srun -N 1 --ntasks-per-node 16 --cpus-per-task 4 --cpu_bind=cores --nodelist nid00459 /global/project/projectdirs/jcesr/qchem/qc44/cnl_qc441/dist/exe/qcprog.cori.haswell.exe .pt_n2_neutral_140.0.in.48635.qcin.1 /global/cscratch1/sd/bwood/qchem/nx/qchem48635/
Process 0 of 16 is on nid00459 - thread support 0
Process 1 of 16 is on nid00459 - thread support 0
Process 2 of 16 is on nid00459 - thread support 0
Process 3 of 16 is on nid00459 - thread support 0
Process 4 of 16 is on nid00459 - thread support 0
Process 5 of 16 is on nid00459 - thread support 0
Process 6 of 16 is on nid00459 - thread support 0
Process 15 of 16 is on nid00459 - thread support 0
initial socket setup ...start
initial socket setup ...done 
now start server 0 ... 
nid00459 10.128.1
Q-Chem Developer Version! Running on 10.128.1.*
                  Welcome to Q-Chem
     A Quantum Leap Into The Future Of Chemistry


 Q-Chem 4.4, Q-Chem, Inc., Pleasanton, CA (2016)

 Y. Shao,  Z. Gan,  E. Epifanovsky,  A. T. B. Gilbert,  M. Wormit,  
 J. Kussmann,  A. W. Lange,  A. Behn,  J. Deng,  X. Feng,  D. Ghosh,  
 M. Goldey,  P. R. Horn,  L. D. Jacobson,  I. Kaliman,  F. Rob,  
 R. Z. Khaliullin,  T. Kus,  A. Landau,  J. Liu,  E. I. Proynov,  Y. M. Rhee,  
 R. M. Richard,  M. A. Rohrdanz,  R. P. Steele,  E. J. Sundstrom,  
 H. L. Woodcock III,  P. M. Zimmerman,  D. Zuev,  B. Albrecht,  E. Alguire,  
 B. Austin,  S. A. Baeppler,  G. J. O. Beran,  Y. A. Bernard,  
 E. J. Berquist,  K. Brandhorst,  K. B. Bravaya,  S. T. Brown,  D. Casanova,  
 C.-M. Chang,  Y. Chen,  S. H. Chien,  K. D. Closser,  M. P. Coons,  
 D. L. Crittenden,  S. Dasgupta,  M. Diedenhofen,  R. A. DiStasio Jr.,  
 H. Do,  A. D. Dutoi,  R. G. Edgar,  P.-T. Fang,  S. Fatehi,  Q. Feng,  
 L. Fusti-Molnar,  A. Ghysels,  A. Golubeva-Zadorozhnaya,  J. Gomes,  
 A. Gunina,  M. W. D. Hanson-Heine,  P. H. P. Harbach,  A. W. Hauser,  
 J. E. Herr,  E. G. Hohenstein,  Z. C. Holden,  K. Hui,  T.-C. Jagau,  H. Ji,  
 B. Kaduk,  K. Khistyaev,  Jaehoon Kim,  Jihan Kim,  R. A. King,  
 P. Klunzinger,  K. Koh,  D. Kosenkov,  T. Kowalczyk,  C. M. Krauter,  
 A. Kunitsa,  K. U. Lao,  A. Laurent,  K. V. Lawler,  J. Lee,  D. Lefrancois,  
 S. Lehtola,  S. V. Levchenko,  C. Y. Lin,  Y.-S. Lin,  F. Liu,  E. Livshits,  
 R. C. Lochan,  A. Luenser,  P. Manohar,  S. F. Manzer,  S.-P. Mao,  Y. Mao,  
 N. Mardirossian,  A. V. Marenich,  L. A. Martinez-Martinez,  S. A. Maurer,  
 N. J. Mayhall,  J.-M. Mewes,  A. F. Morrison,  K. Nanda,  T. S. Nguyen-Beck,  
 C. M. Oana,  R. Olivares-Amaya,  D. P. O'Neill,  J. A. Parkhill,  
 T. M. Perrine,  R. Peverati,  P. A. Pieniazek,  F. Plasser,  A. Prociuk,  
 D. R. Rehn,  E. Rosta,  N. J. Russ,  N. Sergueev,  S. M. Sharada,  
 S. Sharma,  D. W. Small,  A. Sodt,  T. Stauch,  T. Stein,  D. Stuck,  
 Y.-C. Su,  A. J. W. Thom,  T. Tsuchimochi,  L. Vogt,  O. Vydrov,  T. Wang,  
 M. A. Watson,  J. Wenzel,  A. White,  C. F. Williams,  V. Vanovschi,  
 K. Yao,  S. Yeganeh,  S. R. Yost,  Z.-Q. You,  I. Y. Zhang,  X. Zhang,  
 Y. Zhao,  B. R. Brooks,  G. K. L. Chan,  D. M. Chipman,  C. J. Cramer,  
 W. A. Goddard III,  M. S. Gordon,  W. J. Hehre,  A. Klamt,  
 H. F. Schaefer III,  M. W. Schmidt,  C. D. Sherrill,  D. G. Truhlar,  
 A. Warshel,  X. Xu,  A. Aspuru-Guzik,  R. Baer,  A. T. Bell,  N. A. Besley,  
 J.-D. Chai,  A. Dreuw,  B. D. Dunietz,  T. R. Furlani,  S. R. Gwaltney,  
 C.-P. Hsu,  Y. Jung,  J. Kong,  D. S. Lambrecht,  W. Liang,  C. Ochsenfeld,  
 V. A. Rassolov,  L. V. Slipchenko,  J. E. Subotnik,  T. Van Voorhis,  
 J. M. Herbert,  A. I. Krylov,  P. M. W. Gill,  M. Head-Gordon

 Contributors to earlier versions of Q-Chem not listed above: 
 R. D. Adamson,  J. Baker,  E. F. C. Byrd,  A. K. Chakraborty,  C.-L. Cheng,  
 H. Dachsel,  R. J. Doerksen,  G. Hawkins,  A. Heyden,  S. Hirata,  
 G. Kedziora,  F. J. Keil,  C. Kelley,  P. P. Korambath,  W. Kurlancheek,  
 A. M. Lee,  M. S. Lee,  D. Liotard,  I. Lotan,  P. E. Maslen,  N. Nair,  
 D. Neuhauser,  R. Olson,  B. Peters,  J. Ritchie,  N. E. Schultz,  
 N. Shenvi,  A. C. Simmonett,  K. S. Thanthiriwatte,  Q. Wu,  W. Zhang

 Please cite Q-Chem as follows:
 Y. Shao et al., Mol. Phys. 113, 184-215 (2015)
 DOI: 10.1080/00268976.2014.952696

 Q-Chem 4.4.2 for Intel X86 EM64T Linux

 Parts of Q-Chem use Armadillo 5.200.1 (Boston Tea Smuggler).
 http://arma.sourceforge.net/

 Q-Chem begins on Wed May 31 02:24:49 2017  

Host: nid00447
0

     Scratch files written to /global/cscratch1/sd/bwood/qchem/nx/qchem48635.0//
 Parallel job on  16  processors

Checking the input file for inconsistencies... 	...done.

--------------------------------------------------------------
User input:
--------------------------------------------------------------
$molecule
 0  1
 S           0.00238887        0.06077275        0.00183269
 C           1.73707619        0.03315849        0.00323229
 H           2.27612737        0.05289032        0.94042557
 C           2.24169204       -0.01546201       -1.26965798
 H           3.30285780       -0.04005365       -1.48972496
 C           1.22479222       -0.01612968       -2.26811464
 H           1.42674790       -0.02650987       -3.33334501
 C          -0.05393771        0.02880388       -1.75170966
 C          -1.32450815        0.04889988       -2.45636342
 C          -2.50025423       -0.60288023       -2.14516849
 H          -2.60840403       -1.23174421       -1.26844061
 C          -3.55640907       -0.34104636       -3.06542101
 H          -4.55223809       -0.75980077       -2.97562160
 C          -3.18479324        0.50935274       -4.07331845
 H          -3.78220234        0.88065295       -4.89473174
 S          -1.52532776        0.99213782       -3.92289179
$end


$rem
         jobtype = opt
        exchange = b3lyp
           basis = 6-31++g**
  max_scf_cycles = 150
      mem_static = 775
       mem_total = 7750
      sym_ignore = true
        symmetry = false
          thresh = 12
$end


$opt
CONSTRAINT
tors 6 8 9 10 140.0
ENDCONSTRAINT
$end

--------------------------------------------------------------
 ----------------------------------------------------------------
             Standard Nuclear Orientation (Angstroms)
    I     Atom           X                Y                Z
 ----------------------------------------------------------------
    1      S       0.0023888700     0.0607727500     0.0018326900
    2      C       1.7370761900     0.0331584900     0.0032322900
    3      H       2.2761273700     0.0528903200     0.9404255700
    4      C       2.2416920400    -0.0154620100    -1.2696579800
    5      H       3.3028578000    -0.0400536500    -1.4897249600
    6      C       1.2247922200    -0.0161296800    -2.2681146400
    7      H       1.4267479000    -0.0265098700    -3.3333450100
    8      C      -0.0539377100     0.0288038800    -1.7517096600
    9      C      -1.3245081500     0.0488998800    -2.4563634200
   10      C      -2.5002542300    -0.6028802300    -2.1451684900
   11      H      -2.6084040300    -1.2317442100    -1.2684406100
   12      C      -3.5564090700    -0.3410463600    -3.0654210100
   13      H      -4.5522380900    -0.7598007700    -2.9756216000
   14      C      -3.1847932400     0.5093527400    -4.0733184500
   15      H      -3.7822023400     0.8806529500    -4.8947317400
   16      S      -1.5253277600     0.9921378200    -3.9228917900
 ----------------------------------------------------------------
 Nuclear Repulsion Energy =   628.6810215237 hartrees
 There are       43 alpha and       43 beta electrons
 Requested basis set is 6-31++G(d,p)
 There are 76 shells and 234 basis functions

 Total QAlloc Memory Limit   7750 MB
 Mega-Array Size       758 MB
 MEM_STATIC part       775 MB
 A cutoff of  1.0D-12 yielded   2529 shell pairs
 There are     24894 function pairs

 Q-Chem warning in module /project/projectdirs/jcesr/qchem/qc44/cnl_qc441/compile/cori/qc_src/libqints/qchem/aobasis.C, line 68:

 Using reconstructed effective core potential

 
 -------------------------------------------------------
 OpenMP Integral Computing Module                       
 Release: version 1.0, May 2013, Q-Chem Inc. Pittsburgh 
 -------------------------------------------------------
 Integral Job Info:
 Integral job number is                      11
 Integral operator is                         1
 short-range coefficients                     0
 long-range coefficients              100000000
 Omega coefficients                           0
 if combine SR and LR in K                    0
 Integral screening is                        0
 Integral computing path is                   2
 max size of driver memory is            800000
 size of driver memory is                593474
 size of scratch memory is             15166112
 max col of scratch BK array               1296
 max len of scratch array in speh3          155
 max len of scratch index in speh4           18
 max int batch size is                      520
 min int batch size is                       52
 fixed nKL is                                52
 max L of basis functions is                  2
 order of int derivative is                   0
 number of shells is                         76
 number of basis is                         234
 number of cartesian basis is               234
 number of contracted shell pairs          2529
 number of primitive shell pairs           8250
 maxK2 (contraction) of shell pair           36
 max number of K2 of shell pair               1
 max number of CS2 of shell pair            268
 max number of PS2 of shell pair           1524
 mem total for path MDJ                   51992
 -------------------------------------------------------
 Smallest overlap matrix eigenvalue = 1.07E-06

 Scale SEOQF with 1.000000e-01/1.000000e-01/1.000000e-01

 Standard Electronic Orientation quadrupole field applied
 Nucleus-field energy     =    -0.0000000477 hartrees
 Guess from superposition of atomic densities
 Warning:  Energy on first SCF cycle will be non-variational
 A restricted hybrid HF-DFT SCF calculation will be
 performed using Pulay DIIS extrapolation
 Exchange:     0.2000 Hartree-Fock + 0.0800 Slater + 0.7200 B88
 Correlation:  0.1900 VWN1RPA + 0.8100 LYP
 Using SG-1 standard quadrature grid
 SCF converges when DIIS error is below 1.0E-08
 ---------------------------------------
  Cycle       Energy         DIIS Error
 ---------------------------------------
    1   -1107.1960771172      4.41E-02
    2   -1104.6782177158      4.55E-03
    3   -1104.4816060494      6.65E-03
    4   -1104.8343950821      8.26E-04
    5   -1104.8386652694      4.42E-04
    6   -1104.8399731987      1.25E-04
    7   -1104.8400615917      6.38E-05
    8   -1104.8400896000      1.48E-05
    9   -1104.8400913236      2.09E-06
   10   -1104.8400913482      1.23E-06
   11   -1104.8400913606      3.88E-07
   12   -1104.8400913612      1.41E-07
   13   -1104.8400913601      2.53E-08
   14   -1104.8400913604      1.39E-08
   15   -1104.8400913605      3.18E-09 Convergence criterion met
 ---------------------------------------
 SCF time:  CPU 8.02 s  wall 7.67 s
 SCF   energy in the final basis set = -1104.8400913605
 Total energy in the final basis set = -1104.8400913605
 
 --------------------------------------------------------------
 
                    Orbital Energies (a.u.)
 --------------------------------------------------------------
 
 Alpha MOs
 -- Occupied --
-88.920 -88.920 -10.238 -10.238 -10.225 -10.225 -10.204 -10.204
-10.203 -10.203  -7.979  -7.979  -5.944  -5.943  -5.940  -5.940
 -5.936  -5.936  -0.900  -0.878  -0.771  -0.747  -0.738  -0.705
 -0.603  -0.578  -0.554  -0.534  -0.525  -0.478  -0.419  -0.418
 -0.409  -0.405  -0.399  -0.377  -0.374  -0.356  -0.346  -0.274
 -0.262  -0.261  -0.218
 -- Virtual --
 -0.052  -0.011  -0.006  -0.003   0.006   0.010   0.017   0.022
  0.029   0.035   0.038   0.045   0.046   0.055   0.058   0.062
  0.071   0.079   0.091   0.094   0.102   0.102   0.106   0.109
  0.120   0.123   0.130   0.132   0.133   0.135   0.137   0.138
  0.150   0.150   0.160   0.165   0.165   0.176   0.177   0.179
  0.186   0.190   0.205   0.208   0.210   0.224   0.224   0.230
  0.236   0.244   0.260   0.269   0.275   0.276   0.281   0.287
  0.312   0.317   0.326   0.339   0.354   0.357   0.379   0.388
  0.432   0.455   0.465   0.516   0.523   0.537   0.539   0.568
  0.580   0.604   0.614   0.626   0.651   0.659   0.667   0.680
  0.694   0.698   0.720   0.727   0.733   0.743   0.756   0.770
  0.785   0.812   0.813   0.832   0.836   0.871   0.916   0.942
  0.950   0.954   0.957   0.963   0.968   0.988   1.002   1.014
  1.017   1.031   1.051   1.069   1.086   1.095   1.115   1.116
  1.147   1.177   1.191   1.219   1.251   1.272   1.316   1.348
  1.348   1.354   1.361   1.376   1.450   1.467   1.504   1.532
  1.565   1.688   1.693   1.747   1.801   1.863   1.870   1.889
  1.917   1.922   1.951   1.981   2.006   2.043   2.075   2.096
  2.109   2.151   2.177   2.182   2.236   2.244   2.259   2.336
  2.365   2.368   2.420   2.443   2.464   2.468   2.492   2.509
  2.523   2.526   2.582   2.586   2.598   2.658   2.695   2.714
  2.747   2.853   2.862   2.909   2.929   3.148   3.197   3.270
  3.272   3.402   3.427   3.720   3.743   3.973   3.975   4.253
  4.305   4.318   4.332   4.418   4.536   4.657   4.713
 --------------------------------------------------------------
 
          Ground-State Mulliken Net Atomic Charges

     Atom                 Charge (a.u.)
  ----------------------------------------
      1 S                    -0.017950
      2 C                    -0.033839
      3 H                     0.188205
      4 C                    -0.410062
      5 H                     0.115129
      6 C                     0.270157
      7 H                     0.132162
      8 C                    -0.247006
      9 C                    -0.239030
     10 C                     0.264807
     11 H                     0.132008
     12 C                    -0.406762
     13 H                     0.115119
     14 C                    -0.034766
     15 H                     0.188243
     16 S                    -0.016415
  ----------------------------------------
  Sum of atomic charges =     0.000000

 -----------------------------------------------------------------
                    Cartesian Multipole Moments
 -----------------------------------------------------------------
    Charge (ESU x 10^10)
                 0.0000
    Dipole Moment (Debye)
         X       0.0402      Y      -0.2818      Z      -0.0828
       Tot       0.2965
    Quadrupole Moments (Debye-Ang)
        XX     -62.8246     XY       1.2790     YY     -76.8949
        XZ       3.7499     YZ      -1.6010     ZZ     -68.0283
    Octopole Moments (Debye-Ang^2)
       XXX     135.8132    XXY     -16.6807    XYY      48.6142
       YYY     -34.0503    XXZ     120.8788    XYZ       5.3329
       YYZ     157.2549    XZZ      35.5735    YZZ       3.2955
       ZZZ     429.1857
    Hexadecapole Moments (Debye-Ang^3)
      XXXX   -1614.6046   XXXY      62.8180   XXYY    -348.8903
      XYYY      37.8248   YYYY    -217.7422   XXXZ    -604.1629
      XXYZ      37.6526   XYYZ    -242.2338   YYYZ     149.8547
      XXZZ    -650.7880   XYZZ     -36.8345   YYZZ    -545.5426
      XZZZ    -606.9134   YZZZ      63.7193   ZZZZ   -2834.0645
 -----------------------------------------------------------------
 Calculating analytic gradient of the SCF energy
 Gradient of SCF Energy
            1           2           3           4           5           6
    1  -0.0001273   0.0005815  -0.0001186  -0.0002080  -0.0000250   0.0005345
    2  -0.0013390   0.0017777   0.0007860  -0.0017623   0.0001130  -0.0033573
    3   0.0002954  -0.0003435  -0.0000286  -0.0001250  -0.0000029   0.0001232
            7           8           9          10          11          12
    1   0.0003604  -0.0027584   0.0022027   0.0003820  -0.0007807   0.0005974
    2   0.0015267   0.0021865   0.0021384  -0.0028446   0.0011697  -0.0013435
    3   0.0000602  -0.0006452   0.0020323  -0.0020032   0.0007097  -0.0008012
           13          14          15          16
    1   0.0000066  -0.0009053  -0.0001146   0.0003729
    2   0.0000991   0.0010864   0.0006392  -0.0008760
    3   0.0000743   0.0012670   0.0004401  -0.0010525
 Max gradient component =       3.357E-03
 RMS gradient           =       1.237E-03
 Gradient time:  CPU 2.11 s  wall 2.12 s
 Geometry Optimization Parameters
   NAtoms,    NIC,     NZ,  NCons,   NDum,   NFix, NCnnct, MaxDiis
       16     111       0       1       0       0       0       0


** CONSTRAINED OPTIMIZATION IN DELOCALIZED INTERNAL COORDINATES **
   Searching for a Minimum

   Optimization Cycle:   1

                       Coordinates (Angstroms)
     ATOM                X               Y               Z
      1  S         0.0023888700    0.0607727500    0.0018326900
      2  C         1.7370761900    0.0331584900    0.0032322900
      3  H         2.2761273700    0.0528903200    0.9404255700
      4  C         2.2416920400   -0.0154620100   -1.2696579800
      5  H         3.3028578000   -0.0400536500   -1.4897249600
      6  C         1.2247922200   -0.0161296800   -2.2681146400
      7  H         1.4267479000   -0.0265098700   -3.3333450100
      8  C        -0.0539377100    0.0288038800   -1.7517096600
      9  C        -1.3245081500    0.0488998800   -2.4563634200
     10  C        -2.5002542300   -0.6028802300   -2.1451684900
     11  H        -2.6084040300   -1.2317442100   -1.2684406100
     12  C        -3.5564090700   -0.3410463600   -3.0654210100
     13  H        -4.5522380900   -0.7598007700   -2.9756216000
     14  C        -3.1847932400    0.5093527400   -4.0733184500
     15  H        -3.7822023400    0.8806529500   -4.8947317400
     16  S        -1.5253277600    0.9921378200   -3.9228917900
   Point Group: c1    Number of degrees of freedom:    42


   Energy is  -1104.840091361

              Constraints and their Current Values
                                        Value     Constraint
   Dihedral:        6   8   9  10      140.000      140.000

 Attempting to Generate Delocalized Internal Coordinates

 41 Hessian modes will be used to form the next step
  Hessian Eigenvalues:
     0.045000    0.045000    0.045000    0.045000    0.045000    0.045000
     0.045002    0.045002    0.045003    0.045004    0.045011    0.045012
     0.159943    0.159949    0.159991    0.159992    0.160000    0.160000
     0.221282    0.221282    0.237835    0.237839    0.250000    0.250000
     0.294264    0.294663    0.312518    0.312618    0.354736    0.354850
     0.355125    0.355132    0.358226    0.358329    0.378510    0.404854
     0.404909    0.463547    0.463616    0.497922    0.497945

 Minimum Search - Taking Simple RFO Step
 Searching for Lamda that Minimizes Along All modes
 Value Taken    Lamda =  -0.00044050
 Step Taken.  Stepsize is  0.096493

                             Maximum     Tolerance    Cnvgd?
         Gradient           0.002929      0.000300      NO
         Displacement       0.066644      0.001200      NO
         Energy change     *********      0.000001      NO


 New Cartesian Coordinates Obtained by Inverse Iteration

 Displacement from previous Coordinates is:  0.184480
 ----------------------------------------------------------------
             Standard Nuclear Orientation (Angstroms)
    I     Atom           X                Y                Z
 ----------------------------------------------------------------
    1      S       0.0061011462     0.0763950894     0.0057469104
    2      C       1.7393389801     0.0128348186     0.0031116242
    3      H       2.2809897473     0.0019704178     0.9390670099
    4      C       2.2409856308    -0.0108245331    -1.2719578798
    5      H       3.3012262097    -0.0483958357    -1.4948357245
    6      C       1.2213630204     0.0060519817    -2.2681482702
    7      H       1.4173855479    -0.0109931426    -3.3344129179
    8      C      -0.0545921523     0.0499140383    -1.7473514464
    9      C      -1.3301461713     0.0683505431    -2.4484017420
   10      C      -2.5032426140    -0.5839268203    -2.1327357023
   11      H      -2.6038880082    -1.2170653340    -1.2581437084
   12      C      -3.5567137114    -0.3385549564    -3.0613011349
   13      H      -4.5480104468    -0.7690663801    -2.9763970428
   14      C      -3.1813349977     0.4923965338    -4.0843618727
   15      H      -3.7726740868     0.8379243968    -4.9213648064
   16      S      -1.5331803239     1.0060312328    -3.9175321062
 ----------------------------------------------------------------
 Nuclear Repulsion Energy =   628.6422538089 hartrees
 There are       43 alpha and       43 beta electrons
 Applying Cartesian multipole field
    Component          Value
    ---------          -----
     (2,0,0)        1.00000E-11
     (0,2,0)        2.00000E-11
     (0,0,2)       -3.00000E-11
 Nucleus-field energy     =    -0.0000000476 hartrees
 Requested basis set is 6-31++G(d,p)
 There are 76 shells and 234 basis functions
 A cutoff of  1.0D-12 yielded   2530 shell pairs
 There are     24906 function pairs

 Q-Chem warning in module /project/projectdirs/jcesr/qchem/qc44/cnl_qc441/compile/cori/qc_src/libqints/qchem/aobasis.C, line 68:

 Using reconstructed effective core potential

 Smallest overlap matrix eigenvalue = 1.05E-06
 Guess MOs from SCF MO coefficient file
 Reading MOs from coefficient file
 Reading MOs from coefficient file
 A restricted hybrid HF-DFT SCF calculation will be
 performed using Pulay DIIS extrapolation
 Exchange:     0.2000 Hartree-Fock + 0.0800 Slater + 0.7200 B88
 Correlation:  0.1900 VWN1RPA + 0.8100 LYP
 Using SG-1 standard quadrature grid
 SCF converges when DIIS error is below 1.0E-08
 Geometry optimization detected.  Setting ReadMinima to 0
 Setting SaveMinima to 0
 ---------------------------------------
  Cycle       Energy         DIIS Error
 ---------------------------------------
    1   -1104.8407327196      6.83E-04
    2   -1104.8403164040      6.79E-05
    3   -1104.8402380476      1.27E-04
    4   -1104.8403615033      1.92E-05
    5   -1104.8403634415      1.08E-05
    6   -1104.8403642479      3.45E-06
    7   -1104.8403643314      8.56E-07
    8   -1104.8403643365      2.27E-07
    9   -1104.8403643361      5.42E-08
   10   -1104.8403643357      1.78E-08
   11   -1104.8403643351      9.04E-09 Convergence criterion met
 ---------------------------------------
 SCF time:  CPU 6.05 s  wall 5.74 s
 SCF   energy in the final basis set = -1104.8403643351
 Total energy in the final basis set = -1104.8403643351
 
 --------------------------------------------------------------
 
                    Orbital Energies (a.u.)
 --------------------------------------------------------------
 
 Alpha MOs
 -- Occupied --
-88.920 -88.920 -10.238 -10.238 -10.225 -10.225 -10.204 -10.204
-10.203 -10.203  -7.979  -7.979  -5.944  -5.943  -5.940  -5.940
 -5.936  -5.936  -0.900  -0.878  -0.771  -0.748  -0.738  -0.705
 -0.603  -0.578  -0.554  -0.534  -0.525  -0.478  -0.419  -0.418
 -0.409  -0.405  -0.399  -0.377  -0.374  -0.356  -0.346  -0.274
 -0.262  -0.261  -0.218
 -- Virtual --
 -0.052  -0.010  -0.006  -0.003   0.007   0.009   0.017   0.022
  0.030   0.035   0.038   0.045   0.046   0.055   0.058   0.062
  0.071   0.079   0.091   0.094   0.102   0.102   0.106   0.109
  0.121   0.122   0.130   0.132   0.134   0.135   0.137   0.137
  0.149   0.151   0.160   0.164   0.165   0.175   0.177   0.179
  0.186   0.190   0.205   0.207   0.209   0.224   0.224   0.229
  0.236   0.245   0.260   0.268   0.273   0.276   0.281   0.287
  0.312   0.317   0.325   0.340   0.355   0.357   0.378   0.388
  0.433   0.456   0.465   0.516   0.522   0.536   0.540   0.567
  0.581   0.601   0.615   0.626   0.651   0.657   0.668   0.679
  0.696   0.699   0.720   0.727   0.733   0.743   0.757   0.771
  0.785   0.813   0.813   0.832   0.836   0.870   0.916   0.943
  0.950   0.954   0.958   0.962   0.968   0.988   1.001   1.014
  1.018   1.031   1.052   1.067   1.086   1.095   1.115   1.115
  1.148   1.177   1.192   1.219   1.249   1.271   1.319   1.346
  1.346   1.351   1.362   1.379   1.455   1.467   1.502   1.532
  1.563   1.687   1.694   1.746   1.800   1.865   1.869   1.888
  1.918   1.921   1.951   1.981   2.005   2.042   2.077   2.096
  2.111   2.152   2.176   2.182   2.236   2.243   2.259   2.334
  2.365   2.368   2.421   2.446   2.460   2.467   2.494   2.507
  2.525   2.529   2.581   2.586   2.598   2.658   2.693   2.716
  2.746   2.852   2.860   2.909   2.930   3.148   3.196   3.269
  3.272   3.402   3.426   3.720   3.743   3.974   3.975   4.252
  4.305   4.318   4.331   4.417   4.537   4.656   4.713
 --------------------------------------------------------------
 
          Ground-State Mulliken Net Atomic Charges

     Atom                 Charge (a.u.)
  ----------------------------------------
      1 S                    -0.016637
      2 C                    -0.035761
      3 H                     0.187885
      4 C                    -0.408160
      5 H                     0.115168
      6 C                     0.270580
      7 H                     0.132850
      8 C                    -0.247545
      9 C                    -0.243333
     10 C                     0.266595
     11 H                     0.132717
     12 C                    -0.405833
     13 H                     0.115136
     14 C                    -0.036340
     15 H                     0.187937
     16 S                    -0.015260
  ----------------------------------------
  Sum of atomic charges =     0.000000

 -----------------------------------------------------------------
                    Cartesian Multipole Moments
 -----------------------------------------------------------------
    Charge (ESU x 10^10)
                 0.0000
    Dipole Moment (Debye)
         X       0.0490      Y      -0.3412      Z      -0.1008
       Tot       0.3592
    Quadrupole Moments (Debye-Ang)
        XX     -62.9445     XY       1.2918     YY     -76.9146
        XZ       3.7973     YZ      -1.5044     ZZ     -67.8543
    Octopole Moments (Debye-Ang^2)
       XXX     136.7140    XXY     -18.1876    XYY      48.9009
       YYY     -35.9673    XXZ     120.8199    XYZ       4.6098
       YYZ     157.2260    XZZ      35.0091    YZZ       1.9722
       ZZZ     427.2154
    Hexadecapole Moments (Debye-Ang^3)
      XXXX   -1619.9987   XXXY      65.9751   XXYY    -350.0946
      XYYY      39.6012   YYYY    -218.3377   XXXZ    -606.0228
      XXYZ      41.5619   XYYZ    -243.5301   YYYZ     154.2306
      XXZZ    -648.9278   XYZZ     -33.6838   YYZZ    -546.1210
      XZZZ    -602.0836   YZZZ      70.4030   ZZZZ   -2820.6389
 -----------------------------------------------------------------
 Calculating analytic gradient of the SCF energy
 Gradient of SCF Energy
            1           2           3           4           5           6
    1   0.0000687   0.0001957  -0.0000662  -0.0000829   0.0000025  -0.0000463
    2   0.0003858  -0.0000203   0.0002078   0.0000074   0.0000502  -0.0025564
    3   0.0001233  -0.0000729   0.0000560  -0.0000398  -0.0000090   0.0001498
            7           8           9          10          11          12
    1   0.0001129  -0.0001981  -0.0000409   0.0007289  -0.0003655   0.0000428
    2   0.0009588   0.0010246   0.0005950  -0.0019718   0.0007198   0.0000361
    3  -0.0000316  -0.0004301   0.0009407  -0.0014984   0.0005306   0.0000290
           13          14          15          16
    1  -0.0000153  -0.0001624  -0.0000025  -0.0001715
    2   0.0000392  -0.0000730   0.0002225   0.0003744
    3   0.0000368   0.0000672   0.0000740   0.0000745
 Max gradient component =       2.556E-03
 RMS gradient           =       6.150E-04
 Gradient time:  CPU 2.14 s  wall 2.10 s
 Geometry Optimization Parameters
   NAtoms,    NIC,     NZ,  NCons,   NDum,   NFix, NCnnct, MaxDiis
       16     111       0       1       0       0       0       0

 Cartesian Hessian Update
 Hessian Updated using BFGS Update


** CONSTRAINED OPTIMIZATION IN DELOCALIZED INTERNAL COORDINATES **
   Searching for a Minimum

   Optimization Cycle:   2

                       Coordinates (Angstroms)
     ATOM                X               Y               Z
      1  S         0.0061011462    0.0763950894    0.0057469104
      2  C         1.7393389801    0.0128348186    0.0031116242
      3  H         2.2809897473    0.0019704178    0.9390670099
      4  C         2.2409856308   -0.0108245331   -1.2719578798
      5  H         3.3012262097   -0.0483958357   -1.4948357245
      6  C         1.2213630204    0.0060519817   -2.2681482702
      7  H         1.4173855479   -0.0109931426   -3.3344129179
      8  C        -0.0545921523    0.0499140383   -1.7473514464
      9  C        -1.3301461713    0.0683505431   -2.4484017420
     10  C        -2.5032426140   -0.5839268203   -2.1327357023
     11  H        -2.6038880082   -1.2170653340   -1.2581437084
     12  C        -3.5567137114   -0.3385549564   -3.0613011349
     13  H        -4.5480104468   -0.7690663801   -2.9763970428
     14  C        -3.1813349977    0.4923965338   -4.0843618727
     15  H        -3.7726740868    0.8379243968   -4.9213648064
     16  S        -1.5331803239    1.0060312328   -3.9175321062
   Point Group: c1    Number of degrees of freedom:    42


   Energy is  -1104.840364335

              Constraints and their Current Values
                                        Value     Constraint
   Dihedral:        6   8   9  10      140.000      140.000
 Hessian Updated using BFGS Update

 37 Hessian modes will be used to form the next step
  Hessian Eigenvalues:
     0.028138    0.045000    0.045000    0.045001    0.045004    0.045005
     0.045012    0.055286    0.159511    0.159947    0.159991    0.159992
     0.160000    0.160129    0.221281    0.221363    0.237485    0.237839
     0.249994    0.250123    0.294003    0.294582    0.312540    0.312639
     0.354747    0.354855    0.355126    0.355134    0.358232    0.358338
     0.379612    0.404861    0.404989    0.463574    0.463675    0.497931
     0.497997

 Minimum Search - Taking Simple RFO Step
 Searching for Lamda that Minimizes Along All modes
 Value Taken    Lamda =  -0.00008631
 Step Taken.  Stepsize is  0.054272

                             Maximum     Tolerance    Cnvgd?
         Gradient           0.000900      0.000300      NO
         Displacement       0.025863      0.001200      NO
         Energy change     -0.000273      0.000001      NO


 New Cartesian Coordinates Obtained by Inverse Iteration

 Displacement from previous Coordinates is:  0.094127
 ----------------------------------------------------------------
             Standard Nuclear Orientation (Angstroms)
    I     Atom           X                Y                Z
 ----------------------------------------------------------------
    1      S       0.0070487250     0.0785883588     0.0082780515
    2      C       1.7397398970     0.0048098392     0.0026427222
    3      H       2.2830995042    -0.0224624222     0.9372553523
    4      C       2.2399057711    -0.0090539699    -1.2732629953
    5      H       3.2994649627    -0.0554557832    -1.4977243411
    6      C       1.2189489010     0.0203363681    -2.2679824029
    7      H       1.4116315875    -0.0047491779    -3.3346286347
    8      C      -0.0556675333     0.0636827904    -1.7445071579
    9      C      -1.3330457818     0.0813918293    -2.4434130176
   10      C      -2.5047496914    -0.5715063324    -2.1249812506
   11      H      -2.5999062481    -1.2104177934    -1.2540778351
   12      C      -3.5559816661    -0.3376123908    -3.0591815971
   13      H      -4.5441341520    -0.7759310327    -2.9776010870
   14      C      -3.1796053900     0.4855220629    -4.0883343274
   15      H      -3.7681090698     0.8167628540    -4.9330504092
   16      S      -1.5350320460     1.0091368498    -3.9184498800
 ----------------------------------------------------------------
 Nuclear Repulsion Energy =   628.6738293394 hartrees
 There are       43 alpha and       43 beta electrons
 Applying Cartesian multipole field
    Component          Value
    ---------          -----
     (2,0,0)        1.00000E-11
     (0,2,0)        2.00000E-11
     (0,0,2)       -3.00000E-11
 Nucleus-field energy     =    -0.0000000476 hartrees
 Requested basis set is 6-31++G(d,p)
 There are 76 shells and 234 basis functions
 A cutoff of  1.0D-12 yielded   2530 shell pairs
 There are     24906 function pairs

 Q-Chem warning in module /project/projectdirs/jcesr/qchem/qc44/cnl_qc441/compile/cori/qc_src/libqints/qchem/aobasis.C, line 68:

 Using reconstructed effective core potential

 Smallest overlap matrix eigenvalue = 1.04E-06
 Guess MOs from SCF MO coefficient file
 Reading MOs from coefficient file
 Reading MOs from coefficient file
 A restricted hybrid HF-DFT SCF calculation will be
 performed using Pulay DIIS extrapolation
 Exchange:     0.2000 Hartree-Fock + 0.0800 Slater + 0.7200 B88
 Correlation:  0.1900 VWN1RPA + 0.8100 LYP
 Using SG-1 standard quadrature grid
 SCF converges when DIIS error is below 1.0E-08
 Geometry optimization detected.  Setting ReadMinima to 0
 Setting SaveMinima to 0
 ---------------------------------------
  Cycle       Energy         DIIS Error
 ---------------------------------------
    1   -1104.8400665925      3.45E-04
    2   -1104.8404068604      3.58E-05
    3   -1104.8403822984      6.87E-05
    4   -1104.8404191314      9.31E-06
    5   -1104.8404195560      5.63E-06
    6   -1104.8404197783      1.59E-06
    7   -1104.8404197953      4.28E-07
    8   -1104.8404197980      9.80E-08
    9   -1104.8404197996      2.68E-08
   10   -1104.8404197995      1.12E-08
   11   -1104.8404197995      4.75E-09 Convergence criterion met
 ---------------------------------------
 SCF time:  CPU 5.99 s  wall 5.73 s
 SCF   energy in the final basis set = -1104.8404197995
 Total energy in the final basis set = -1104.8404197995
 
 --------------------------------------------------------------
 
                    Orbital Energies (a.u.)
 --------------------------------------------------------------
 
 Alpha MOs
 -- Occupied --
-88.920 -88.920 -10.238 -10.238 -10.225 -10.225 -10.204 -10.204
-10.203 -10.203  -7.979  -7.979  -5.944  -5.943  -5.940  -5.940
 -5.936  -5.936  -0.900  -0.878  -0.771  -0.748  -0.738  -0.705
 -0.603  -0.578  -0.554  -0.534  -0.525  -0.478  -0.419  -0.418
 -0.409  -0.405  -0.398  -0.377  -0.374  -0.356  -0.346  -0.274
 -0.262  -0.261  -0.218
 -- Virtual --
 -0.052  -0.010  -0.006  -0.003   0.007   0.009   0.017   0.022
  0.030   0.035   0.038   0.045   0.046   0.055   0.058   0.062
  0.071   0.080   0.091   0.094   0.102   0.102   0.106   0.109
  0.121   0.122   0.130   0.132   0.134   0.135   0.137   0.137
  0.149   0.151   0.161   0.164   0.165   0.174   0.177   0.179
  0.186   0.191   0.205   0.207   0.209   0.224   0.224   0.229
  0.236   0.246   0.260   0.268   0.272   0.276   0.282   0.287
  0.312   0.316   0.324   0.340   0.355   0.357   0.377   0.388
  0.433   0.456   0.466   0.516   0.522   0.537   0.540   0.567
  0.581   0.601   0.615   0.625   0.652   0.657   0.668   0.678
  0.695   0.699   0.720   0.727   0.733   0.743   0.758   0.772
  0.785   0.813   0.814   0.832   0.836   0.869   0.917   0.943
  0.949   0.955   0.960   0.962   0.967   0.989   1.000   1.014
  1.018   1.030   1.052   1.066   1.087   1.095   1.115   1.115
  1.148   1.177   1.194   1.219   1.248   1.270   1.318   1.343
  1.349   1.352   1.362   1.381   1.460   1.465   1.499   1.533
  1.560   1.686   1.694   1.745   1.799   1.866   1.869   1.888
  1.919   1.922   1.950   1.981   2.005   2.041   2.078   2.095
  2.113   2.152   2.176   2.183   2.236   2.243   2.258   2.333
  2.365   2.368   2.421   2.447   2.458   2.466   2.494   2.506
  2.527   2.530   2.581   2.586   2.599   2.658   2.693   2.716
  2.744   2.852   2.860   2.909   2.931   3.147   3.197   3.269
  3.272   3.403   3.426   3.721   3.742   3.974   3.975   4.252
  4.305   4.318   4.330   4.417   4.537   4.657   4.712
 --------------------------------------------------------------
 
          Ground-State Mulliken Net Atomic Charges

     Atom                 Charge (a.u.)
  ----------------------------------------
      1 S                    -0.018878
      2 C                    -0.035106
      3 H                     0.187750
      4 C                    -0.409387
      5 H                     0.115071
      6 C                     0.276254
      7 H                     0.133251
      8 C                    -0.248952
      9 C                    -0.247911
     10 C                     0.272518
     11 H                     0.133131
     12 C                    -0.407429
     13 H                     0.115028
     14 C                    -0.035814
     15 H                     0.187796
     16 S                    -0.017322
  ----------------------------------------
  Sum of atomic charges =     0.000000

 -----------------------------------------------------------------
                    Cartesian Multipole Moments
 -----------------------------------------------------------------
    Charge (ESU x 10^10)
                 0.0000
    Dipole Moment (Debye)
         X       0.0564      Y      -0.3913      Z      -0.1157
       Tot       0.4119
    Quadrupole Moments (Debye-Ang)
        XX     -63.0289     XY       1.3082     YY     -76.9226
        XZ       3.8190     YZ      -1.4132     ZZ     -67.7402
    Octopole Moments (Debye-Ang^2)
       XXX     137.2496    XXY     -19.0236    XYY      49.0235
       YYY     -36.8794    XXZ     120.8225    XYZ       4.2035
       YYZ     157.2442    XZZ      34.7162    YZZ       1.1912
       ZZZ     426.1178
    Hexadecapole Moments (Debye-Ang^3)
      XXXX   -1622.2400   XXXY      67.5258   XXYY    -350.2955
      XYYY      40.4550   YYYY    -218.1044   XXXZ    -606.8166
      XXYZ      43.9059   XYYZ    -244.0469   YYYZ     156.7021
      XXZZ    -648.1562   XYZZ     -31.9073   YYZZ    -546.6484
      XZZZ    -599.4743   YZZZ      74.2690   ZZZZ   -2814.2794
 -----------------------------------------------------------------
 Calculating analytic gradient of the SCF energy
 Gradient of SCF Energy
            1           2           3           4           5           6
    1   0.0000304  -0.0000594  -0.0000209   0.0000352  -0.0000003  -0.0001725
    2   0.0004462  -0.0001480  -0.0000392   0.0003587  -0.0001088  -0.0016534
    3   0.0000464  -0.0000186   0.0000114   0.0000004  -0.0000127   0.0000641
            7           8           9          10          11          12
    1  -0.0000071   0.0006208  -0.0008143   0.0006073  -0.0000892  -0.0001299
    2   0.0003818   0.0008610   0.0003170  -0.0012357   0.0002958   0.0002911
    3  -0.0000208  -0.0003009   0.0006452  -0.0009166   0.0002212   0.0001780
           13          14          15          16
    1   0.0000269   0.0000825   0.0000268  -0.0001364
    2  -0.0000845  -0.0000792   0.0000008   0.0003964
    3  -0.0000495  -0.0000489  -0.0000215   0.0002228
 Max gradient component =       1.653E-03
 RMS gradient           =       4.318E-04
 Gradient time:  CPU 2.15 s  wall 2.11 s
 Geometry Optimization Parameters
   NAtoms,    NIC,     NZ,  NCons,   NDum,   NFix, NCnnct, MaxDiis
       16     111       0       1       0       0       0       0

 Cartesian Hessian Update
 Hessian Updated using BFGS Update


** CONSTRAINED OPTIMIZATION IN DELOCALIZED INTERNAL COORDINATES **
   Searching for a Minimum

   Optimization Cycle:   3

                       Coordinates (Angstroms)
     ATOM                X               Y               Z
      1  S         0.0070487250    0.0785883588    0.0082780515
      2  C         1.7397398970    0.0048098392    0.0026427222
      3  H         2.2830995042   -0.0224624222    0.9372553523
      4  C         2.2399057711   -0.0090539699   -1.2732629953
      5  H         3.2994649627   -0.0554557832   -1.4977243411
      6  C         1.2189489010    0.0203363681   -2.2679824029
      7  H         1.4116315875   -0.0047491779   -3.3346286347
      8  C        -0.0556675333    0.0636827904   -1.7445071579
      9  C        -1.3330457818    0.0813918293   -2.4434130176
     10  C        -2.5047496914   -0.5715063324   -2.1249812506
     11  H        -2.5999062481   -1.2104177934   -1.2540778351
     12  C        -3.5559816661   -0.3376123908   -3.0591815971
     13  H        -4.5441341520   -0.7759310327   -2.9776010870
     14  C        -3.1796053900    0.4855220629   -4.0883343274
     15  H        -3.7681090698    0.8167628540   -4.9330504092
     16  S        -1.5350320460    1.0091368498   -3.9184498800
   Point Group: c1    Number of degrees of freedom:    42


   Energy is  -1104.840419800

              Constraints and their Current Values
                                        Value     Constraint
   Dihedral:        6   8   9  10      140.000      140.000
 Hessian Updated using BFGS Update

 36 Hessian modes will be used to form the next step
  Hessian Eigenvalues:
     0.018794    0.045000    0.045000    0.045004    0.045012    0.046305
     0.056208    0.159750    0.159947    0.159992    0.159999    0.160000
     0.160249    0.221285    0.221367    0.237838    0.238841    0.249992
     0.250253    0.294197    0.294599    0.312555    0.312679    0.354743
     0.354853    0.355126    0.355134    0.358233    0.358340    0.381890
     0.404862    0.405001    0.463584    0.465913    0.497932    0.498136

 Minimum Search - Taking Simple RFO Step
 Searching for Lamda that Minimizes Along All modes
 Value Taken    Lamda =  -0.00002197
 Step Taken.  Stepsize is  0.031547

                             Maximum     Tolerance    Cnvgd?
         Gradient           0.000545      0.000300      NO
         Displacement       0.016022      0.001200      NO
         Energy change     -0.000055      0.000001      NO


 New Cartesian Coordinates Obtained by Inverse Iteration

 Displacement from previous Coordinates is:  0.045042
 ----------------------------------------------------------------
             Standard Nuclear Orientation (Angstroms)
    I     Atom           X                Y                Z
 ----------------------------------------------------------------
    1      S       0.0074144289     0.0756056954     0.0096082724
    2      C       1.7401089228     0.0006664296     0.0026042081
    3      H       2.2843587350    -0.0332961273     0.9364842789
    4      C       2.2393265634    -0.0085168448    -1.2736992592
    5      H       3.2986038067    -0.0571238078    -1.4989838499
    6      C       1.2177923107     0.0277434918    -2.2676495787
    7      H       1.4092879848    -0.0012018625    -3.3343839811
    8      C      -0.0565076671     0.0708810891    -1.7430567808
    9      C      -1.3341920657     0.0883504768    -2.4409243300
   10      C      -2.5054880472    -0.5649791696    -2.1212660733
   11      H      -2.5983330000    -1.2067583854    -1.2522657474
   12      C      -3.5555107337    -0.3372783712    -3.0583611585
   13      H      -4.5427229707    -0.7777366452    -2.9770576481
   14      C      -3.1790009010     0.4819978951    -4.0905217584
   15      H      -3.7666716583     0.8072968713    -4.9381206622
   16      S      -1.5348579384     1.0073913146    -3.9214247419
 ----------------------------------------------------------------
 Nuclear Repulsion Energy =   628.6737757307 hartrees
 There are       43 alpha and       43 beta electrons
 Applying Cartesian multipole field
    Component          Value
    ---------          -----
     (2,0,0)        1.00000E-11
     (0,2,0)        2.00000E-11
     (0,0,2)       -3.00000E-11
 Nucleus-field energy     =    -0.0000000476 hartrees
 Requested basis set is 6-31++G(d,p)
 There are 76 shells and 234 basis functions
 A cutoff of  1.0D-12 yielded   2530 shell pairs
 There are     24906 function pairs

 Q-Chem warning in module /project/projectdirs/jcesr/qchem/qc44/cnl_qc441/compile/cori/qc_src/libqints/qchem/aobasis.C, line 68:

 Using reconstructed effective core potential

 Smallest overlap matrix eigenvalue = 1.04E-06
 Guess MOs from SCF MO coefficient file
 Reading MOs from coefficient file
 Reading MOs from coefficient file
 A restricted hybrid HF-DFT SCF calculation will be
 performed using Pulay DIIS extrapolation
 Exchange:     0.2000 Hartree-Fock + 0.0800 Slater + 0.7200 B88
 Correlation:  0.1900 VWN1RPA + 0.8100 LYP
 Using SG-1 standard quadrature grid
 SCF converges when DIIS error is below 1.0E-08
 Geometry optimization detected.  Setting ReadMinima to 0
 Setting SaveMinima to 0
 ---------------------------------------
  Cycle       Energy         DIIS Error
 ---------------------------------------
    1   -1104.8395998740      1.95E-04
    2   -1104.8404300605      1.83E-05
    3   -1104.8404228224      3.66E-05
    4   -1104.8404333150      4.48E-06
    5   -1104.8404334011      2.93E-06
    6   -1104.8404334608      6.96E-07
    7   -1104.8404334639      2.51E-07
    8   -1104.8404334649      3.53E-08
    9   -1104.8404334657      1.23E-08
   10   -1104.8404334647      6.55E-09 Convergence criterion met
 ---------------------------------------
 SCF time:  CPU 5.50 s  wall 5.18 s
 SCF   energy in the final basis set = -1104.8404334647
 Total energy in the final basis set = -1104.8404334647
 
 --------------------------------------------------------------
 
                    Orbital Energies (a.u.)
 --------------------------------------------------------------
 
 Alpha MOs
 -- Occupied --
-88.920 -88.920 -10.238 -10.238 -10.225 -10.225 -10.204 -10.204
-10.203 -10.203  -7.979  -7.979  -5.944  -5.943  -5.940  -5.940
 -5.936  -5.936  -0.900  -0.878  -0.771  -0.748  -0.738  -0.705
 -0.603  -0.578  -0.554  -0.534  -0.525  -0.478  -0.419  -0.418
 -0.408  -0.405  -0.399  -0.377  -0.374  -0.356  -0.346  -0.274
 -0.262  -0.261  -0.218
 -- Virtual --
 -0.053  -0.009  -0.006  -0.003   0.007   0.009   0.017   0.022
  0.030   0.035   0.038   0.045   0.046   0.054   0.058   0.061
  0.071   0.080   0.091   0.094   0.101   0.102   0.106   0.109
  0.120   0.122   0.130   0.132   0.134   0.135   0.137   0.137
  0.149   0.151   0.161   0.163   0.165   0.174   0.177   0.178
  0.187   0.191   0.206   0.207   0.209   0.224   0.224   0.229
  0.236   0.246   0.259   0.267   0.271   0.276   0.282   0.287
  0.312   0.316   0.324   0.341   0.355   0.357   0.377   0.388
  0.433   0.455   0.466   0.517   0.522   0.537   0.540   0.567
  0.581   0.602   0.615   0.625   0.652   0.656   0.668   0.678
  0.694   0.699   0.720   0.727   0.732   0.743   0.758   0.772
  0.785   0.813   0.815   0.832   0.837   0.869   0.917   0.943
  0.948   0.956   0.961   0.962   0.967   0.989   0.999   1.014
  1.018   1.030   1.053   1.065   1.087   1.095   1.115   1.115
  1.148   1.177   1.194   1.218   1.248   1.270   1.317   1.343
  1.350   1.353   1.362   1.382   1.463   1.464   1.498   1.533
  1.559   1.686   1.693   1.744   1.799   1.866   1.868   1.888
  1.920   1.921   1.950   1.980   2.005   2.041   2.078   2.094
  2.114   2.151   2.176   2.183   2.236   2.243   2.258   2.333
  2.365   2.368   2.421   2.447   2.457   2.466   2.495   2.505
  2.528   2.530   2.582   2.586   2.600   2.658   2.693   2.717
  2.744   2.851   2.859   2.910   2.931   3.147   3.197   3.269
  3.272   3.403   3.426   3.721   3.742   3.974   3.975   4.252
  4.305   4.318   4.329   4.417   4.537   4.657   4.712
 --------------------------------------------------------------
 
          Ground-State Mulliken Net Atomic Charges

     Atom                 Charge (a.u.)
  ----------------------------------------
      1 S                    -0.020965
      2 C                    -0.034016
      3 H                     0.187743
      4 C                    -0.410498
      5 H                     0.114995
      6 C                     0.279482
      7 H                     0.133351
      8 C                    -0.249058
      9 C                    -0.249822
     10 C                     0.275487
     11 H                     0.133246
     12 C                    -0.408546
     13 H                     0.114951
     14 C                    -0.034973
     15 H                     0.187780
     16 S                    -0.019157
  ----------------------------------------
  Sum of atomic charges =     0.000000

 -----------------------------------------------------------------
                    Cartesian Multipole Moments
 -----------------------------------------------------------------
    Charge (ESU x 10^10)
                 0.0000
    Dipole Moment (Debye)
         X       0.0598      Y      -0.4150      Z      -0.1227
       Tot       0.4369
    Quadrupole Moments (Debye-Ang)
        XX     -63.0563     XY       1.3182     YY     -76.9346
        XZ       3.8311     YZ      -1.3720     ZZ     -67.6891
    Octopole Moments (Debye-Ang^2)
       XXX     137.4096    XXY     -19.2773    XYY      49.0808
       YYY     -37.0814    XXZ     120.8334    XYZ       4.0332
       YYZ     157.3097    XZZ      34.5797    YZZ       0.9035
       ZZZ     425.6925
    Hexadecapole Moments (Debye-Ang^3)
      XXXX   -1622.6824   XXXY      67.9620   XXYY    -350.2899
      XYYY      40.6715   YYYY    -217.4723   XXXZ    -607.0637
      XXYZ      44.7446   XYYZ    -244.3428   YYYZ     157.6522
      XXZZ    -648.0145   XYZZ     -31.2197   YYZZ    -547.1872
      XZZZ    -598.3809   YZZZ      75.7408   ZZZZ   -2812.7918
 -----------------------------------------------------------------
 Calculating analytic gradient of the SCF energy
 Gradient of SCF Energy
            1           2           3           4           5           6
    1   0.0000309  -0.0000563   0.0000221   0.0000610  -0.0000074  -0.0001316
    2   0.0001640   0.0000111  -0.0000987   0.0002788  -0.0001501  -0.0012076
    3  -0.0000368   0.0000280  -0.0000075   0.0000505   0.0000013  -0.0000016
            7           8           9          10          11          12
    1  -0.0000351   0.0004993  -0.0007414   0.0004427   0.0000256  -0.0001311
    2   0.0000422   0.0010567   0.0005257  -0.0009296   0.0000373   0.0002425
    3  -0.0000048  -0.0003138   0.0007710  -0.0006315   0.0000235   0.0001013
           13          14          15          16
    1   0.0000433   0.0000350   0.0000043  -0.0000612
    2  -0.0001066   0.0000691  -0.0000623   0.0001276
    3  -0.0000820  -0.0000027  -0.0000362   0.0001413
 Max gradient component =       1.208E-03
 RMS gradient           =       3.574E-04
 Gradient time:  CPU 2.14 s  wall 2.11 s
 Geometry Optimization Parameters
   NAtoms,    NIC,     NZ,  NCons,   NDum,   NFix, NCnnct, MaxDiis
       16     111       0       1       0       0       0       0

 Cartesian Hessian Update
 Hessian Updated using BFGS Update


** CONSTRAINED OPTIMIZATION IN DELOCALIZED INTERNAL COORDINATES **
   Searching for a Minimum

   Optimization Cycle:   4

                       Coordinates (Angstroms)
     ATOM                X               Y               Z
      1  S         0.0074144289    0.0756056954    0.0096082724
      2  C         1.7401089228    0.0006664296    0.0026042081
      3  H         2.2843587350   -0.0332961273    0.9364842789
      4  C         2.2393265634   -0.0085168448   -1.2736992592
      5  H         3.2986038067   -0.0571238078   -1.4989838499
      6  C         1.2177923107    0.0277434918   -2.2676495787
      7  H         1.4092879848   -0.0012018625   -3.3343839811
      8  C        -0.0565076671    0.0708810891   -1.7430567808
      9  C        -1.3341920657    0.0883504768   -2.4409243300
     10  C        -2.5054880472   -0.5649791696   -2.1212660733
     11  H        -2.5983330000   -1.2067583854   -1.2522657474
     12  C        -3.5555107337   -0.3372783712   -3.0583611585
     13  H        -4.5427229707   -0.7777366452   -2.9770576481
     14  C        -3.1790009010    0.4819978951   -4.0905217584
     15  H        -3.7666716583    0.8072968713   -4.9381206622
     16  S        -1.5348579384    1.0073913146   -3.9214247419
   Point Group: c1    Number of degrees of freedom:    42


   Energy is  -1104.840433465

              Constraints and their Current Values
                                        Value     Constraint
   Dihedral:        6   8   9  10      140.000      140.000
 Hessian Updated using BFGS Update

 39 Hessian modes will be used to form the next step
  Hessian Eigenvalues:
     0.015058    0.045000    0.045000    0.045002    0.045003    0.045004
     0.045012    0.045070    0.047200    0.052416    0.159947    0.159992
     0.159998    0.159999    0.160026    0.160305    0.221283    0.221439
     0.237837    0.238790    0.249971    0.250094    0.294298    0.294682
     0.312523    0.312619    0.354751    0.354860    0.355127    0.355137
     0.358234    0.358343    0.379006    0.404883    0.405391    0.463583
     0.463937    0.497878    0.497933

 Minimum Search - Taking Simple RFO Step
 Searching for Lamda that Minimizes Along All modes
 Value Taken    Lamda =  -0.00000502
 Step Taken.  Stepsize is  0.014812

                             Maximum     Tolerance    Cnvgd?
         Gradient           0.000171      0.000300     YES
         Displacement       0.006341      0.001200      NO
         Energy change     -0.000014      0.000001      NO


 New Cartesian Coordinates Obtained by Inverse Iteration

 Displacement from previous Coordinates is:  0.021123
 ----------------------------------------------------------------
             Standard Nuclear Orientation (Angstroms)
    I     Atom           X                Y                Z
 ----------------------------------------------------------------
    1      S       0.0073299966     0.0725372397     0.0101321572
    2      C       1.7400980385    -0.0020570398     0.0024642986
    3      H       2.2845466107    -0.0374117995     0.9361608394
    4      C       2.2389926990    -0.0087318032    -1.2739693072
    5      H       3.2982601419    -0.0559011135    -1.4996240260
    6      C       1.2173452372     0.0305794386    -2.2675268196
    7      H       1.4087361967     0.0018006701    -3.3342856315
    8      C      -0.0569420986     0.0736440240    -1.7425356057
    9      C      -1.3344945104     0.0910605016    -2.4399556773
   10      C      -2.5057205636    -0.5624845435    -2.1198557939
   11      H      -2.5984350048    -1.2041561372    -1.2507613736
   12      C      -3.5551045801    -0.3375015366    -3.0581448233
   13      H      -4.5426496590    -0.7769936314    -2.9756488099
   14      C      -3.1783412960     0.4796910298    -4.0918464060
   15      H      -3.7659264248     0.8037686957    -4.9399559821
   16      S      -1.5340870134     1.0051980552    -3.9236658492
 ----------------------------------------------------------------
 Nuclear Repulsion Energy =   628.6794910337 hartrees
 There are       43 alpha and       43 beta electrons
 Applying Cartesian multipole field
    Component          Value
    ---------          -----
     (2,0,0)        1.00000E-11
     (0,2,0)        2.00000E-11
     (0,0,2)       -3.00000E-11
 Nucleus-field energy     =    -0.0000000477 hartrees
 Requested basis set is 6-31++G(d,p)
 There are 76 shells and 234 basis functions
 A cutoff of  1.0D-12 yielded   2530 shell pairs
 There are     24906 function pairs

 Q-Chem warning in module /project/projectdirs/jcesr/qchem/qc44/cnl_qc441/compile/cori/qc_src/libqints/qchem/aobasis.C, line 68:

 Using reconstructed effective core potential

 Smallest overlap matrix eigenvalue = 1.03E-06
 Guess MOs from SCF MO coefficient file
 Reading MOs from coefficient file
 Reading MOs from coefficient file
 A restricted hybrid HF-DFT SCF calculation will be
 performed using Pulay DIIS extrapolation
 Exchange:     0.2000 Hartree-Fock + 0.0800 Slater + 0.7200 B88
 Correlation:  0.1900 VWN1RPA + 0.8100 LYP
 Using SG-1 standard quadrature grid
 SCF converges when DIIS error is below 1.0E-08
 Geometry optimization detected.  Setting ReadMinima to 0
 Setting SaveMinima to 0
 ---------------------------------------
  Cycle       Energy         DIIS Error
 ---------------------------------------
    1   -1104.8399361792      1.00E-04
    2   -1104.8404362687      7.47E-06
    3   -1104.8404351323      1.49E-05
    4   -1104.8404368664      1.94E-06
    5   -1104.8404368827      1.28E-06
    6   -1104.8404368928      3.51E-07
    7   -1104.8404368956      1.14E-07
    8   -1104.8404368947      1.79E-08
    9   -1104.8404368942      5.97E-09 Convergence criterion met
 ---------------------------------------
 SCF time:  CPU 4.94 s  wall 4.79 s
 SCF   energy in the final basis set = -1104.8404368942
 Total energy in the final basis set = -1104.8404368942
 
 --------------------------------------------------------------
 
                    Orbital Energies (a.u.)
 --------------------------------------------------------------
 
 Alpha MOs
 -- Occupied --
-88.920 -88.920 -10.238 -10.238 -10.225 -10.225 -10.204 -10.204
-10.203 -10.203  -7.979  -7.979  -5.944  -5.943  -5.940  -5.940
 -5.936  -5.936  -0.900  -0.878  -0.771  -0.748  -0.738  -0.705
 -0.603  -0.578  -0.554  -0.534  -0.525  -0.478  -0.419  -0.418
 -0.408  -0.405  -0.399  -0.377  -0.374  -0.356  -0.346  -0.274
 -0.262  -0.261  -0.218
 -- Virtual --
 -0.053  -0.009  -0.006  -0.003   0.007   0.010   0.017   0.022
  0.030   0.035   0.038   0.045   0.046   0.054   0.058   0.061
  0.071   0.080   0.091   0.094   0.101   0.102   0.106   0.109
  0.120   0.122   0.130   0.132   0.134   0.135   0.137   0.137
  0.149   0.151   0.161   0.163   0.165   0.174   0.178   0.178
  0.187   0.191   0.206   0.207   0.209   0.224   0.225   0.229
  0.236   0.247   0.259   0.267   0.271   0.276   0.282   0.286
  0.312   0.316   0.324   0.341   0.355   0.357   0.377   0.388
  0.433   0.455   0.466   0.517   0.522   0.537   0.540   0.567
  0.581   0.602   0.615   0.625   0.652   0.656   0.668   0.678
  0.693   0.699   0.720   0.727   0.732   0.743   0.758   0.772
  0.785   0.813   0.815   0.832   0.837   0.869   0.917   0.942
  0.948   0.956   0.961   0.962   0.967   0.989   0.999   1.014
  1.018   1.030   1.053   1.065   1.087   1.096   1.114   1.115
  1.148   1.177   1.195   1.218   1.247   1.270   1.317   1.343
  1.350   1.353   1.362   1.382   1.463   1.464   1.498   1.533
  1.560   1.686   1.693   1.744   1.799   1.866   1.868   1.888
  1.920   1.921   1.950   1.980   2.005   2.041   2.078   2.094
  2.114   2.152   2.175   2.183   2.236   2.243   2.257   2.333
  2.365   2.368   2.421   2.447   2.457   2.466   2.494   2.505
  2.528   2.530   2.582   2.586   2.600   2.659   2.693   2.717
  2.744   2.851   2.859   2.910   2.931   3.147   3.197   3.269
  3.272   3.403   3.426   3.721   3.742   3.974   3.975   4.252
  4.305   4.317   4.329   4.417   4.537   4.657   4.712
 --------------------------------------------------------------
 
          Ground-State Mulliken Net Atomic Charges

     Atom                 Charge (a.u.)
  ----------------------------------------
      1 S                    -0.021730
      2 C                    -0.033829
      3 H                     0.187732
      4 C                    -0.410425
      5 H                     0.114961
      6 C                     0.279423
      7 H                     0.133260
      8 C                    -0.247804
      9 C                    -0.249492
     10 C                     0.275224
     11 H                     0.133167
     12 C                    -0.408459
     13 H                     0.114917
     14 C                    -0.034928
     15 H                     0.187766
     16 S                    -0.019782
  ----------------------------------------
  Sum of atomic charges =     0.000000

 -----------------------------------------------------------------
                    Cartesian Multipole Moments
 -----------------------------------------------------------------
    Charge (ESU x 10^10)
                 0.0000
    Dipole Moment (Debye)
         X       0.0602      Y      -0.4180      Z      -0.1235
       Tot       0.4400
    Quadrupole Moments (Debye-Ang)
        XX     -63.0565     XY       1.3227     YY     -76.9448
        XZ       3.8274     YZ      -1.3718     ZZ     -67.6796
    Octopole Moments (Debye-Ang^2)
       XXX     137.3903    XXY     -19.2436    XYY      49.1080
       YYY     -36.9746    XXZ     120.8636    XYZ       3.9898
       YYZ     157.3669    XZZ      34.5698    YZZ       0.9019
       ZZZ     425.6331
    Hexadecapole Moments (Debye-Ang^3)
      XXXX   -1622.1527   XXXY      67.9134   XXYY    -350.2270
      XYYY      40.5886   YYYY    -216.9471   XXXZ    -607.1126
      XXYZ      44.7832   XYYZ    -244.4712   YYYZ     157.7591
      XXZZ    -648.1943   XYZZ     -31.0966   YYZZ    -547.5282
      XZZZ    -598.1550   YZZZ      75.8520   ZZZZ   -2813.2714
 -----------------------------------------------------------------
 Calculating analytic gradient of the SCF energy
 Gradient of SCF Energy
            1           2           3           4           5           6
    1  -0.0000076  -0.0000389   0.0000181   0.0000238  -0.0000032  -0.0000377
    2   0.0000118   0.0000684  -0.0000761   0.0001324  -0.0000985  -0.0011344
    3  -0.0000126   0.0000062  -0.0000144   0.0000054  -0.0000026   0.0000032
            7           8           9          10          11          12
    1  -0.0000136   0.0002935  -0.0005834   0.0003348   0.0000290  -0.0000567
    2  -0.0000539   0.0012455   0.0007251  -0.0009005  -0.0000458   0.0001142
    3  -0.0000013  -0.0003579   0.0009368  -0.0006070  -0.0000353   0.0000654
           13          14          15          16
    1   0.0000274   0.0000096   0.0000012   0.0000038
    2  -0.0000676   0.0000971  -0.0000433   0.0000255
    3  -0.0000507   0.0000460  -0.0000169   0.0000356
 Max gradient component =       1.245E-03
 RMS gradient           =       3.588E-04
 Gradient time:  CPU 2.14 s  wall 2.09 s
 Geometry Optimization Parameters
   NAtoms,    NIC,     NZ,  NCons,   NDum,   NFix, NCnnct, MaxDiis
       16     111       0       1       0       0       0       0

 Cartesian Hessian Update
 Hessian Updated using BFGS Update


** CONSTRAINED OPTIMIZATION IN DELOCALIZED INTERNAL COORDINATES **
   Searching for a Minimum

   Optimization Cycle:   5

                       Coordinates (Angstroms)
     ATOM                X               Y               Z
      1  S         0.0073299966    0.0725372397    0.0101321572
      2  C         1.7400980385   -0.0020570398    0.0024642986
      3  H         2.2845466107   -0.0374117995    0.9361608394
      4  C         2.2389926990   -0.0087318032   -1.2739693072
      5  H         3.2982601419   -0.0559011135   -1.4996240260
      6  C         1.2173452372    0.0305794386   -2.2675268196
      7  H         1.4087361967    0.0018006701   -3.3342856315
      8  C        -0.0569420986    0.0736440240   -1.7425356057
      9  C        -1.3344945104    0.0910605016   -2.4399556773
     10  C        -2.5057205636   -0.5624845435   -2.1198557939
     11  H        -2.5984350048   -1.2041561372   -1.2507613736
     12  C        -3.5551045801   -0.3375015366   -3.0581448233
     13  H        -4.5426496590   -0.7769936314   -2.9756488099
     14  C        -3.1783412960    0.4796910298   -4.0918464060
     15  H        -3.7659264248    0.8037686957   -4.9399559821
     16  S        -1.5340870134    1.0051980552   -3.9236658492
   Point Group: c1    Number of degrees of freedom:    42


   Energy is  -1104.840436894

              Constraints and their Current Values
                                        Value     Constraint
   Dihedral:        6   8   9  10      140.000      140.000
 Hessian Updated using BFGS Update

 36 Hessian modes will be used to form the next step
  Hessian Eigenvalues:
     0.012016    0.033296    0.045001    0.045011    0.045016    0.045387
     0.057956    0.159290    0.159947    0.159992    0.159999    0.160016
     0.160407    0.221283    0.221619    0.237835    0.239165    0.249980
     0.250448    0.294034    0.294586    0.312555    0.312704    0.354749
     0.354860    0.355128    0.355138    0.358240    0.358354    0.380830
     0.404883    0.406497    0.463584    0.464215    0.497933    0.498301

 Minimum Search - Taking Simple RFO Step
 Searching for Lamda that Minimizes Along All modes
 Value Taken    Lamda =  -0.00000239
 Step Taken.  Stepsize is  0.011649

                             Maximum     Tolerance    Cnvgd?
         Gradient           0.000118      0.000300     YES
         Displacement       0.006188      0.001200      NO
         Energy change     -0.000003      0.000001      NO


 New Cartesian Coordinates Obtained by Inverse Iteration

 Displacement from previous Coordinates is:  0.018457
 ----------------------------------------------------------------
             Standard Nuclear Orientation (Angstroms)
    I     Atom           X                Y                Z
 ----------------------------------------------------------------
    1      S       0.0074803838     0.0699361741     0.0104621540
    2      C       1.7402754721    -0.0048427223     0.0024123995
    3      H       2.2847680108    -0.0405182175     0.9360680889
    4      C       2.2388773887    -0.0092293763    -1.2741273089
    5      H       3.2981779588    -0.0541894339    -1.5000755370
    6      C       1.2171067609     0.0324026057    -2.2674097039
    7      H       1.4085141607     0.0054169845    -3.3342120285
    8      C      -0.0571789951     0.0753964364    -1.7422221152
    9      C      -1.3347432525     0.0927569398    -2.4392909630
   10      C      -2.5059514424    -0.5608689067    -2.1189681381
   11      H      -2.5991303684    -1.2011734972    -1.2489133958
   12      C      -3.5548477756    -0.3379515378    -3.0582356589
   13      H      -4.5429851607    -0.7758310296    -2.9742845761
   14      C      -3.1777856913     0.4773412249    -4.0933039801
   15      H      -3.7653802762     0.8011750037    -4.9414977108
   16      S      -1.5335894034     1.0032214022    -3.9254203361
 ----------------------------------------------------------------
 Nuclear Repulsion Energy =   628.6728583201 hartrees
 There are       43 alpha and       43 beta electrons
 Applying Cartesian multipole field
    Component          Value
    ---------          -----
     (2,0,0)        1.00000E-11
     (0,2,0)        2.00000E-11
     (0,0,2)       -3.00000E-11
 Nucleus-field energy     =    -0.0000000477 hartrees
 Requested basis set is 6-31++G(d,p)
 There are 76 shells and 234 basis functions
 A cutoff of  1.0D-12 yielded   2530 shell pairs
 There are     24906 function pairs

 Q-Chem warning in module /project/projectdirs/jcesr/qchem/qc44/cnl_qc441/compile/cori/qc_src/libqints/qchem/aobasis.C, line 68:

 Using reconstructed effective core potential

 Smallest overlap matrix eigenvalue = 1.03E-06
 Guess MOs from SCF MO coefficient file
 Reading MOs from coefficient file
 Reading MOs from coefficient file
 A restricted hybrid HF-DFT SCF calculation will be
 performed using Pulay DIIS extrapolation
 Exchange:     0.2000 Hartree-Fock + 0.0800 Slater + 0.7200 B88
 Correlation:  0.1900 VWN1RPA + 0.8100 LYP
 Using SG-1 standard quadrature grid
 SCF converges when DIIS error is below 1.0E-08
 Geometry optimization detected.  Setting ReadMinima to 0
 Setting SaveMinima to 0
 ---------------------------------------
  Cycle       Energy         DIIS Error
 ---------------------------------------
    1   -1104.8400364085      7.75E-05
    2   -1104.8404380337      5.54E-06
    3   -1104.8404375079      1.06E-05
    4   -1104.8404383823      1.58E-06
    5   -1104.8404383917      1.02E-06
    6   -1104.8404383992      2.99E-07
    7   -1104.8404384013      8.45E-08
    8   -1104.8404384001      1.74E-08
    9   -1104.8404383999      5.43E-09 Convergence criterion met
 ---------------------------------------
 SCF time:  CPU 4.88 s  wall 4.69 s
 SCF   energy in the final basis set = -1104.8404383999
 Total energy in the final basis set = -1104.8404383999
 
 --------------------------------------------------------------
 
                    Orbital Energies (a.u.)
 --------------------------------------------------------------
 
 Alpha MOs
 -- Occupied --
-88.920 -88.920 -10.238 -10.238 -10.225 -10.225 -10.204 -10.204
-10.203 -10.203  -7.979  -7.979  -5.944  -5.943  -5.940  -5.940
 -5.936  -5.936  -0.900  -0.878  -0.771  -0.748  -0.738  -0.705
 -0.603  -0.578  -0.554  -0.534  -0.525  -0.478  -0.419  -0.418
 -0.408  -0.405  -0.399  -0.377  -0.374  -0.356  -0.346  -0.274
 -0.262  -0.261  -0.218
 -- Virtual --
 -0.053  -0.009  -0.006  -0.003   0.007   0.010   0.017   0.022
  0.030   0.035   0.038   0.045   0.046   0.054   0.058   0.061
  0.071   0.080   0.091   0.094   0.101   0.102   0.106   0.109
  0.120   0.122   0.130   0.132   0.134   0.135   0.137   0.137
  0.149   0.151   0.161   0.163   0.165   0.174   0.178   0.178
  0.187   0.191   0.206   0.207   0.209   0.224   0.225   0.229
  0.236   0.247   0.259   0.267   0.270   0.276   0.282   0.286
  0.312   0.316   0.324   0.341   0.355   0.357   0.377   0.388
  0.433   0.455   0.466   0.517   0.522   0.538   0.540   0.567
  0.581   0.602   0.615   0.624   0.652   0.656   0.668   0.678
  0.692   0.699   0.720   0.727   0.732   0.743   0.758   0.772
  0.785   0.813   0.815   0.832   0.837   0.869   0.917   0.942
  0.948   0.957   0.961   0.962   0.967   0.989   1.000   1.014
  1.019   1.030   1.052   1.065   1.088   1.096   1.114   1.115
  1.148   1.177   1.195   1.218   1.247   1.270   1.317   1.344
  1.349   1.353   1.361   1.382   1.463   1.464   1.498   1.533
  1.560   1.686   1.694   1.744   1.799   1.866   1.868   1.888
  1.921   1.921   1.950   1.980   2.005   2.041   2.078   2.094
  2.114   2.152   2.175   2.184   2.236   2.243   2.257   2.334
  2.365   2.368   2.421   2.447   2.457   2.466   2.494   2.505
  2.528   2.530   2.582   2.586   2.600   2.658   2.693   2.717
  2.744   2.851   2.859   2.910   2.931   3.147   3.197   3.269
  3.272   3.403   3.426   3.721   3.742   3.974   3.975   4.252
  4.305   4.317   4.329   4.417   4.537   4.657   4.712
 --------------------------------------------------------------
 
          Ground-State Mulliken Net Atomic Charges

     Atom                 Charge (a.u.)
  ----------------------------------------
      1 S                    -0.022107
      2 C                    -0.033782
      3 H                     0.187746
      4 C                    -0.409886
      5 H                     0.114947
      6 C                     0.277972
      7 H                     0.133101
      8 C                    -0.245969
      9 C                    -0.248413
     10 C                     0.273695
     11 H                     0.133019
     12 C                    -0.407940
     13 H                     0.114903
     14 C                    -0.034985
     15 H                     0.187774
     16 S                    -0.020076
  ----------------------------------------
  Sum of atomic charges =     0.000000

 -----------------------------------------------------------------
                    Cartesian Multipole Moments
 -----------------------------------------------------------------
    Charge (ESU x 10^10)
                 0.0000
    Dipole Moment (Debye)
         X       0.0597      Y      -0.4151      Z      -0.1227
       Tot       0.4369
    Quadrupole Moments (Debye-Ang)
        XX     -63.0475     XY       1.3249     YY     -76.9559
        XZ       3.8241     YZ      -1.3837     ZZ     -67.6799
    Octopole Moments (Debye-Ang^2)
       XXX     137.3257    XXY     -19.1481    XYY      49.1328
       YYY     -36.8073    XXZ     120.8870    XYZ       3.9723
       YYZ     157.4220    XZZ      34.5694    YZZ       0.9656
       ZZZ     425.6474
    Hexadecapole Moments (Debye-Ang^3)
      XXXX   -1621.6232   XXXY      67.7747   XXYY    -350.2128
      XYYY      40.4537   YYYY    -216.4875   XXXZ    -607.1506
      XXYZ      44.6348   XYYZ    -244.6021   YYYZ     157.6711
      XXZZ    -648.3892   XYZZ     -31.0834   YYZZ    -547.8247
      XZZZ    -598.0915   YZZZ      75.6581   ZZZZ   -2814.0985
 -----------------------------------------------------------------
 Calculating analytic gradient of the SCF energy
 Gradient of SCF Energy
            1           2           3           4           5           6
    1   0.0000085   0.0000051   0.0000097  -0.0000046  -0.0000002  -0.0000056
    2  -0.0000447   0.0000465  -0.0000380  -0.0000017  -0.0000213  -0.0011706
    3  -0.0000135   0.0000104  -0.0000065  -0.0000089   0.0000002   0.0000213
            7           8           9          10          11          12
    1  -0.0000011   0.0001759  -0.0005022   0.0003141   0.0000176   0.0000030
    2  -0.0000612   0.0013899   0.0008456  -0.0009315  -0.0000560   0.0000082
    3   0.0000013  -0.0004261   0.0010870  -0.0006452  -0.0000439   0.0000088
           13          14          15          16
    1   0.0000040  -0.0000214  -0.0000028  -0.0000000
    2  -0.0000051   0.0000678  -0.0000035  -0.0000244
    3  -0.0000116   0.0000291  -0.0000012  -0.0000013
 Max gradient component =       1.390E-03
 RMS gradient           =       3.838E-04
 Gradient time:  CPU 2.10 s  wall 2.09 s
 Geometry Optimization Parameters
   NAtoms,    NIC,     NZ,  NCons,   NDum,   NFix, NCnnct, MaxDiis
       16     111       0       1       0       0       0       0

 Cartesian Hessian Update
 Hessian Updated using BFGS Update


** CONSTRAINED OPTIMIZATION IN DELOCALIZED INTERNAL COORDINATES **
   Searching for a Minimum

   Optimization Cycle:   6

                       Coordinates (Angstroms)
     ATOM                X               Y               Z
      1  S         0.0074803838    0.0699361741    0.0104621540
      2  C         1.7402754721   -0.0048427223    0.0024123995
      3  H         2.2847680108   -0.0405182175    0.9360680889
      4  C         2.2388773887   -0.0092293763   -1.2741273089
      5  H         3.2981779588   -0.0541894339   -1.5000755370
      6  C         1.2171067609    0.0324026057   -2.2674097039
      7  H         1.4085141607    0.0054169845   -3.3342120285
      8  C        -0.0571789951    0.0753964364   -1.7422221152
      9  C        -1.3347432525    0.0927569398   -2.4392909630
     10  C        -2.5059514424   -0.5608689067   -2.1189681381
     11  H        -2.5991303684   -1.2011734972   -1.2489133958
     12  C        -3.5548477756   -0.3379515378   -3.0582356589
     13  H        -4.5429851607   -0.7758310296   -2.9742845761
     14  C        -3.1777856913    0.4773412249   -4.0933039801
     15  H        -3.7653802762    0.8011750037   -4.9414977108
     16  S        -1.5335894034    1.0032214022   -3.9254203361
   Point Group: c1    Number of degrees of freedom:    42


   Energy is  -1104.840438400

              Constraints and their Current Values
                                        Value     Constraint
   Dihedral:        6   8   9  10      140.000      140.000
 Hessian Updated using BFGS Update

 36 Hessian modes will be used to form the next step
  Hessian Eigenvalues:
     0.011009    0.026061    0.045000    0.045000    0.045001    0.045075
     0.046158    0.057438    0.159204    0.159947    0.160000    0.160039
     0.160405    0.221285    0.221645    0.237840    0.242050    0.249979
     0.250622    0.294123    0.294590    0.312555    0.312704    0.354747
     0.354859    0.355128    0.355139    0.358241    0.358357    0.382667
     0.404882    0.406513    0.463584    0.466176    0.497934    0.498527

 Minimum Search - Taking Simple RFO Step
 Searching for Lamda that Minimizes Along All modes
 Value Taken    Lamda =   0.00000000
 Step Taken.  Stepsize is  0.005224

                             Maximum     Tolerance    Cnvgd?
         Gradient           0.000075      0.000300     YES
         Displacement       0.003147      0.001200      NO
         Energy change     -0.000002      0.000001      NO


 New Cartesian Coordinates Obtained by Inverse Iteration

 Displacement from previous Coordinates is:  0.009295
 ----------------------------------------------------------------
             Standard Nuclear Orientation (Angstroms)
    I     Atom           X                Y                Z
 ----------------------------------------------------------------
    1      S       0.0075136601     0.0690462857     0.0105909550
    2      C       1.7402904907    -0.0062872121     0.0023107292
    3      H       2.2847735730    -0.0420784750     0.9359630265
    4      C       2.2388200796    -0.0095438543    -1.2742590797
    5      H       3.2981321847    -0.0535580667    -1.5003455072
    6      C       1.2169928109     0.0331183931    -2.2674207435
    7      H       1.4083786505     0.0076735610    -3.3342669040
    8      C      -0.0572322184     0.0760697135    -1.7421021347
    9      C      -1.3348960095     0.0933854246    -2.4389929174
   10      C      -2.5060532694    -0.5602534924    -2.1185498752
   11      H      -2.5996289038    -1.1993621526    -1.2476538640
   12      C      -3.5546977699    -0.3382586984    -3.0582998729
   13      H      -4.5430877082    -0.7754572953    -2.9737622215
   14      C      -3.1773838529     0.4761105473    -4.0940013089
   15      H      -3.7649348646     0.7998744525    -4.9422472912
   16      S      -1.5333790829     1.0025629190    -3.9259818005
 ----------------------------------------------------------------
 Nuclear Repulsion Energy =   628.6737501457 hartrees
 There are       43 alpha and       43 beta electrons
 Applying Cartesian multipole field
    Component          Value
    ---------          -----
     (2,0,0)        1.00000E-11
     (0,2,0)        2.00000E-11
     (0,0,2)       -3.00000E-11
 Nucleus-field energy     =    -0.0000000477 hartrees
 Requested basis set is 6-31++G(d,p)
 There are 76 shells and 234 basis functions
 A cutoff of  1.0D-12 yielded   2530 shell pairs
 There are     24906 function pairs

 Q-Chem warning in module /project/projectdirs/jcesr/qchem/qc44/cnl_qc441/compile/cori/qc_src/libqints/qchem/aobasis.C, line 68:

 Using reconstructed effective core potential

 Smallest overlap matrix eigenvalue = 1.03E-06
 Guess MOs from SCF MO coefficient file
 Reading MOs from coefficient file
 Reading MOs from coefficient file
 A restricted hybrid HF-DFT SCF calculation will be
 performed using Pulay DIIS extrapolation
 Exchange:     0.2000 Hartree-Fock + 0.0800 Slater + 0.7200 B88
 Correlation:  0.1900 VWN1RPA + 0.8100 LYP
 Using SG-1 standard quadrature grid
 SCF converges when DIIS error is below 1.0E-08
 Geometry optimization detected.  Setting ReadMinima to 0
 Setting SaveMinima to 0
 ---------------------------------------
  Cycle       Energy         DIIS Error
 ---------------------------------------
    1   -1104.8403354614      3.33E-05
    2   -1104.8404386752      2.38E-06
    3   -1104.8404385843      4.52E-06
    4   -1104.8404387414      6.70E-07
    5   -1104.8404387426      4.61E-07
    6   -1104.8404387454      1.18E-07
    7   -1104.8404387444      3.94E-08
    8   -1104.8404387448      6.30E-09 Convergence criterion met
 ---------------------------------------
 SCF time:  CPU 4.32 s  wall 5.10 s
 SCF   energy in the final basis set = -1104.8404387448
 Total energy in the final basis set = -1104.8404387448
 
 --------------------------------------------------------------
 
                    Orbital Energies (a.u.)
 --------------------------------------------------------------
 
 Alpha MOs
 -- Occupied --
-88.920 -88.920 -10.238 -10.238 -10.225 -10.225 -10.204 -10.204
-10.203 -10.203  -7.979  -7.979  -5.944  -5.943  -5.940  -5.940
 -5.936  -5.936  -0.900  -0.878  -0.771  -0.748  -0.738  -0.705
 -0.603  -0.578  -0.554  -0.534  -0.525  -0.478  -0.419  -0.418
 -0.408  -0.405  -0.399  -0.377  -0.374  -0.356  -0.346  -0.274
 -0.262  -0.261  -0.218
 -- Virtual --
 -0.053  -0.009  -0.006  -0.003   0.007   0.010   0.017   0.022
  0.030   0.035   0.038   0.045   0.046   0.054   0.058   0.061
  0.071   0.080   0.090   0.094   0.101   0.102   0.106   0.109
  0.120   0.123   0.130   0.132   0.134   0.135   0.137   0.137
  0.149   0.151   0.161   0.163   0.165   0.174   0.178   0.178
  0.186   0.191   0.206   0.207   0.209   0.224   0.225   0.229
  0.236   0.247   0.259   0.267   0.270   0.276   0.282   0.286
  0.312   0.316   0.324   0.341   0.355   0.357   0.377   0.388
  0.433   0.455   0.466   0.517   0.522   0.538   0.540   0.567
  0.581   0.602   0.615   0.624   0.652   0.656   0.668   0.678
  0.692   0.699   0.720   0.727   0.732   0.743   0.758   0.773
  0.785   0.813   0.815   0.832   0.837   0.869   0.917   0.942
  0.948   0.957   0.961   0.962   0.967   0.989   1.000   1.014
  1.019   1.030   1.052   1.065   1.088   1.096   1.114   1.115
  1.148   1.177   1.195   1.218   1.247   1.270   1.318   1.344
  1.349   1.353   1.361   1.382   1.463   1.464   1.498   1.532
  1.561   1.685   1.694   1.744   1.799   1.866   1.868   1.888
  1.921   1.921   1.950   1.979   2.005   2.041   2.078   2.094
  2.114   2.152   2.175   2.184   2.236   2.243   2.257   2.334
  2.365   2.368   2.421   2.447   2.457   2.466   2.494   2.505
  2.528   2.530   2.582   2.586   2.600   2.658   2.693   2.716
  2.744   2.851   2.859   2.910   2.931   3.147   3.197   3.269
  3.272   3.403   3.426   3.721   3.742   3.974   3.975   4.251
  4.305   4.317   4.329   4.416   4.537   4.657   4.712
 --------------------------------------------------------------
 
          Ground-State Mulliken Net Atomic Charges

     Atom                 Charge (a.u.)
  ----------------------------------------
      1 S                    -0.022119
      2 C                    -0.033916
      3 H                     0.187741
      4 C                    -0.409431
      5 H                     0.114947
      6 C                     0.276916
      7 H                     0.133002
      8 C                    -0.244928
      9 C                    -0.247740
     10 C                     0.272691
     11 H                     0.132927
     12 C                    -0.407537
     13 H                     0.114901
     14 C                    -0.035138
     15 H                     0.187767
     16 S                    -0.020083
  ----------------------------------------
  Sum of atomic charges =     0.000000

 -----------------------------------------------------------------
                    Cartesian Multipole Moments
 -----------------------------------------------------------------
    Charge (ESU x 10^10)
                 0.0000
    Dipole Moment (Debye)
         X       0.0593      Y      -0.4124      Z      -0.1219
       Tot       0.4340
    Quadrupole Moments (Debye-Ang)
        XX     -63.0439     XY       1.3257     YY     -76.9610
        XZ       3.8202     YZ      -1.3927     ZZ     -67.6815
    Octopole Moments (Debye-Ang^2)
       XXX     137.2979    XXY     -19.1059    XYY      49.1456
       YYY     -36.7291    XXZ     120.9022    XYZ       3.9621
       YYZ     157.4437    XZZ      34.5771    YZZ       1.0056
       ZZZ     425.6570
    Hexadecapole Moments (Debye-Ang^3)
      XXXX   -1621.3624   XXXY      67.7219   XXYY    -350.2068
      XYYY      40.3850   YYYY    -216.3143   XXXZ    -607.1810
      XXYZ      44.5672   XYYZ    -244.6511   YYYZ     157.6071
      XXZZ    -648.4835   XYZZ     -31.0646   YYZZ    -547.9328
      XZZZ    -598.0699   YZZZ      75.5281   ZZZZ   -2814.4144
 -----------------------------------------------------------------
 Calculating analytic gradient of the SCF energy
 Gradient of SCF Energy
            1           2           3           4           5           6
    1  -0.0000012   0.0000023   0.0000001  -0.0000097   0.0000020  -0.0000073
    2  -0.0000251   0.0000045  -0.0000199  -0.0000411   0.0000133  -0.0012257
    3   0.0000066  -0.0000026  -0.0000033  -0.0000208  -0.0000035   0.0000312
            7           8           9          10          11          12
    1   0.0000027   0.0002141  -0.0005490   0.0003314   0.0000059   0.0000187
    2  -0.0000293   0.0014302   0.0008551  -0.0009679  -0.0000336  -0.0000283
    3  -0.0000012  -0.0004505   0.0011268  -0.0006814  -0.0000251  -0.0000027
           13          14          15          16
    1  -0.0000069  -0.0000061   0.0000007   0.0000025
    2   0.0000202   0.0000269   0.0000164   0.0000045
    3   0.0000089   0.0000167   0.0000072  -0.0000062
 Max gradient component =       1.430E-03
 RMS gradient           =       3.984E-04
 Gradient time:  CPU 2.13 s  wall 2.07 s
 Geometry Optimization Parameters
   NAtoms,    NIC,     NZ,  NCons,   NDum,   NFix, NCnnct, MaxDiis
       16     111       0       1       0       0       0       0

 Cartesian Hessian Update
 Hessian Updated using BFGS Update


** CONSTRAINED OPTIMIZATION IN DELOCALIZED INTERNAL COORDINATES **
   Searching for a Minimum

   Optimization Cycle:   7

                       Coordinates (Angstroms)
     ATOM                X               Y               Z
      1  S         0.0075136601    0.0690462857    0.0105909550
      2  C         1.7402904907   -0.0062872121    0.0023107292
      3  H         2.2847735730   -0.0420784750    0.9359630265
      4  C         2.2388200796   -0.0095438543   -1.2742590797
      5  H         3.2981321847   -0.0535580667   -1.5003455072
      6  C         1.2169928109    0.0331183931   -2.2674207435
      7  H         1.4083786505    0.0076735610   -3.3342669040
      8  C        -0.0572322184    0.0760697135   -1.7421021347
      9  C        -1.3348960095    0.0933854246   -2.4389929174
     10  C        -2.5060532694   -0.5602534924   -2.1185498752
     11  H        -2.5996289038   -1.1993621526   -1.2476538640
     12  C        -3.5546977699   -0.3382586984   -3.0582998729
     13  H        -4.5430877082   -0.7754572953   -2.9737622215
     14  C        -3.1773838529    0.4761105473   -4.0940013089
     15  H        -3.7649348646    0.7998744525   -4.9422472912
     16  S        -1.5333790829    1.0025629190   -3.9259818005
   Point Group: c1    Number of degrees of freedom:    42


   Energy is  -1104.840438745

              Constraints and their Current Values
                                        Value     Constraint
   Dihedral:        6   8   9  10      140.000      140.000
 Hessian Updated using BFGS Update

 41 Hessian modes will be used to form the next step
  Hessian Eigenvalues:
     0.010993    0.021303    0.045000    0.045000    0.045000    0.045001
     0.045002    0.045004    0.045012    0.045078    0.045899    0.053259
     0.159815    0.159947    0.159991    0.159999    0.160091    0.160158
     0.221283    0.221903    0.237838    0.243578    0.249817    0.249986
     0.294203    0.294636    0.312557    0.312719    0.354755    0.354871
     0.355128    0.355147    0.358248    0.358380    0.379950    0.404883
     0.407836    0.463583    0.464212    0.497933    0.498146

 Minimum Search - Taking Simple RFO Step
 Searching for Lamda that Minimizes Along All modes
 Value Taken    Lamda =   0.00000000
 Step Taken.  Stepsize is  0.002185

                             Maximum     Tolerance    Cnvgd?
         Gradient           0.000033      0.000300     YES
         Displacement       0.001188      0.001200     YES
         Energy change     -0.000000      0.000001     YES

 Final energy is   -1104.84043874477     


 ******************************
 **  OPTIMIZATION CONVERGED  **
 ******************************

                       Coordinates (Angstroms)
     ATOM                X               Y               Z
      1  S         0.0075136601    0.0690462857    0.0105909550
      2  C         1.7402904907   -0.0062872121    0.0023107292
      3  H         2.2847735730   -0.0420784750    0.9359630265
      4  C         2.2388200796   -0.0095438543   -1.2742590797
      5  H         3.2981321847   -0.0535580667   -1.5003455072
      6  C         1.2169928109    0.0331183931   -2.2674207435
      7  H         1.4083786505    0.0076735610   -3.3342669040
      8  C        -0.0572322184    0.0760697135   -1.7421021347
      9  C        -1.3348960095    0.0933854246   -2.4389929174
     10  C        -2.5060532694   -0.5602534924   -2.1185498752
     11  H        -2.5996289038   -1.1993621526   -1.2476538640
     12  C        -3.5546977699   -0.3382586984   -3.0582998729
     13  H        -4.5430877082   -0.7754572953   -2.9737622215
     14  C        -3.1773838529    0.4761105473   -4.0940013089
     15  H        -3.7649348646    0.7998744525   -4.9422472912
     16  S        -1.5333790829    1.0025629190   -3.9259818005

Z-matrix Print:
$molecule
0 1
S 
C  1 1.734433
H  2 1.081411 1 120.021714
C  2 1.370464 1 111.590452 3 -179.913616 0
H  4 1.084064 2 123.354907 1 -179.927013 0
C  4 1.425595 2 112.837873 1 -0.705232 0
H  6 1.084176 4 123.938136 2 -178.093273 0
C  6 1.378932 4 113.445458 2 0.332036 0
C  8 1.455466 6 128.987004 4 -178.336598 0
C  9 1.378962 8 128.950301 6 140.000000 0
H  10 1.084286 9 122.638500 8 0.152604 0
C  10 1.425506 9 113.438300 8 -178.317354 0
H  12 1.084068 10 123.813413 9 179.599602 0
C  12 1.370489 10 112.843016 9 0.356217 0
H  14 1.081462 12 128.394014 10 179.457869 0
S  14 1.734397 12 111.599803 10 -0.707052 0
$end

 
 --------------------------------------------------------------
 
                    Orbital Energies (a.u.)
 --------------------------------------------------------------
 
 Alpha MOs
 -- Occupied --
-88.920 -88.920 -10.238 -10.238 -10.225 -10.225 -10.204 -10.204
-10.203 -10.203  -7.979  -7.979  -5.944  -5.943  -5.940  -5.940
 -5.936  -5.936  -0.900  -0.878  -0.771  -0.748  -0.738  -0.705
 -0.603  -0.578  -0.554  -0.534  -0.525  -0.478  -0.419  -0.418
 -0.408  -0.405  -0.399  -0.377  -0.374  -0.356  -0.346  -0.274
 -0.262  -0.261  -0.218
 -- Virtual --
 -0.053  -0.009  -0.006  -0.003   0.007   0.010   0.017   0.022
  0.030   0.035   0.038   0.045   0.046   0.054   0.058   0.061
  0.071   0.080   0.090   0.094   0.101   0.102   0.106   0.109
  0.120   0.123   0.130   0.132   0.134   0.135   0.137   0.137
  0.149   0.151   0.161   0.163   0.165   0.174   0.178   0.178
  0.186   0.191   0.206   0.207   0.209   0.224   0.225   0.229
  0.236   0.247   0.259   0.267   0.270   0.276   0.282   0.286
  0.312   0.316   0.324   0.341   0.355   0.357   0.377   0.388
  0.433   0.455   0.466   0.517   0.522   0.538   0.540   0.567
  0.581   0.602   0.615   0.624   0.652   0.656   0.668   0.678
  0.692   0.699   0.720   0.727   0.732   0.743   0.758   0.773
  0.785   0.813   0.815   0.832   0.837   0.869   0.917   0.942
  0.948   0.957   0.961   0.962   0.967   0.989   1.000   1.014
  1.019   1.030   1.052   1.065   1.088   1.096   1.114   1.115
  1.148   1.177   1.195   1.218   1.247   1.270   1.318   1.344
  1.349   1.353   1.361   1.382   1.463   1.464   1.498   1.532
  1.561   1.685   1.694   1.744   1.799   1.866   1.868   1.888
  1.921   1.921   1.950   1.979   2.005   2.041   2.078   2.094
  2.114   2.152   2.175   2.184   2.236   2.243   2.257   2.334
  2.365   2.368   2.421   2.447   2.457   2.466   2.494   2.505
  2.528   2.530   2.582   2.586   2.600   2.658   2.693   2.716
  2.744   2.851   2.859   2.910   2.931   3.147   3.197   3.269
  3.272   3.403   3.426   3.721   3.742   3.974   3.975   4.251
  4.305   4.317   4.329   4.416   4.537   4.657   4.712
 --------------------------------------------------------------
 
          Ground-State Mulliken Net Atomic Charges

     Atom                 Charge (a.u.)
  ----------------------------------------
      1 S                    -0.022119
      2 C                    -0.033916
      3 H                     0.187741
      4 C                    -0.409431
      5 H                     0.114947
      6 C                     0.276916
      7 H                     0.133002
      8 C                    -0.244928
      9 C                    -0.247740
     10 C                     0.272691
     11 H                     0.132927
     12 C                    -0.407537
     13 H                     0.114901
     14 C                    -0.035138
     15 H                     0.187767
     16 S                    -0.020083
  ----------------------------------------
  Sum of atomic charges =     0.000000

 -----------------------------------------------------------------
                    Cartesian Multipole Moments
 -----------------------------------------------------------------
    Charge (ESU x 10^10)
                 0.0000
    Dipole Moment (Debye)
         X       0.0593      Y      -0.4124      Z      -0.1219
       Tot       0.4340
    Quadrupole Moments (Debye-Ang)
        XX     -63.0439     XY       1.3257     YY     -76.9610
        XZ       3.8202     YZ      -1.3927     ZZ     -67.6815
    Octopole Moments (Debye-Ang^2)
       XXX     137.2979    XXY     -19.1059    XYY      49.1456
       YYY     -36.7291    XXZ     120.9022    XYZ       3.9621
       YYZ     157.4437    XZZ      34.5771    YZZ       1.0056
       ZZZ     425.6570
    Hexadecapole Moments (Debye-Ang^3)
      XXXX   -1621.3624   XXXY      67.7219   XXYY    -350.2068
      XYYY      40.3850   YYYY    -216.3143   XXXZ    -607.1810
      XXYZ      44.5672   XYYZ    -244.6511   YYYZ     157.6071
      XXZZ    -648.4835   XYZZ     -31.0646   YYZZ    -547.9328
      XZZZ    -598.0699   YZZZ      75.5281   ZZZZ   -2814.4144
 -----------------------------------------------------------------
Archival summary:
1\1\nid00459\OPT\ProcedureUnspecified\BasisUnspecified\286\bwood\WedMay3102:25:472017WedMay3102:25:472017\0\\#,OPT,ProcedureUnspecified,BasisUnspecified,\\0,1\S\C,1,1.73443\H,2,1.08141,1,120.022\C,2,1.37046,1,111.59,3,-179.914,0\H,4,1.08406,2,123.355,1,-179.927,0\C,4,1.4256,2,112.838,1,-0.705232,0\H,6,1.08418,4,123.938,2,-178.093,0\C,6,1.37893,4,113.445,2,0.332036,0\C,8,1.45547,6,128.987,4,-178.337,0\C,9,1.37896,8,128.95,6,140,0\H,10,1.08429,9,122.639,8,0.152604,0\C,10,1.42551,9,113.438,8,-178.317,0\H,12,1.08407,10,123.813,9,179.6,0\C,12,1.37049,10,112.843,9,0.356217,0\H,14,1.08146,12,128.394,10,179.458,0\S,14,1.7344,12,111.6,10,-0.707052,0\\\@

 Total job time:  58.38s(wall), 56.20s(cpu) 
 Wed May 31 02:25:47 2017

        *************************************************************
        *                                                           *
        *  Thank you very much for using Q-Chem.  Have a nice day.  *
        *                                                           *
        *************************************************************


0 sent ACK to 0 
now end server 0 ... 
