srun -N 1 --ntasks-per-node 16 --cpus-per-task 4 --cpu_bind=cores --nodelist nid00474 /global/project/projectdirs/jcesr/qchem/qc44/cnl_qc441/dist/exe/qcprog.cori.haswell.exe .pt_n2_neutral_180.0.in.48483.qcin.1 /global/cscratch1/sd/bwood/qchem/nx/qchem48483/
Process 1 of 16 is on nid00474 - thread support 0
Process 2 of 16 is on nid00474 - thread support 0
Process 3 of 16 is on nid00474 - thread support 0
Process 4 of 16 is on nid00474 - thread support 0
Process 5 of 16 is on nid00474 - thread support 0
Process 6 of 16 is on nid00474 - thread support 0
Process 0 of 16 is on nid00474 - thread support 0
initial socket setup ...start
Process 15 of 16 is on nid00474 - thread support 0
initial socket setup ...done 
now start server 0 ... 
nid00474 10.128.1
Q-Chem Developer Version! Running on 10.128.1.*
                  Welcome to Q-Chem
     A Quantum Leap Into The Future Of Chemistry


 Q-Chem 4.4, Q-Chem, Inc., Pleasanton, CA (2016)

 Y. Shao,  Z. Gan,  E. Epifanovsky,  A. T. B. Gilbert,  M. Wormit,  
 J. Kussmann,  A. W. Lange,  A. Behn,  J. Deng,  X. Feng,  D. Ghosh,  
 M. Goldey,  P. R. Horn,  L. D. Jacobson,  I. Kaliman,  F. Rob,  
 R. Z. Khaliullin,  T. Kus,  A. Landau,  J. Liu,  E. I. Proynov,  Y. M. Rhee,  
 R. M. Richard,  M. A. Rohrdanz,  R. P. Steele,  E. J. Sundstrom,  
 H. L. Woodcock III,  P. M. Zimmerman,  D. Zuev,  B. Albrecht,  E. Alguire,  
 B. Austin,  S. A. Baeppler,  G. J. O. Beran,  Y. A. Bernard,  
 E. J. Berquist,  K. Brandhorst,  K. B. Bravaya,  S. T. Brown,  D. Casanova,  
 C.-M. Chang,  Y. Chen,  S. H. Chien,  K. D. Closser,  M. P. Coons,  
 D. L. Crittenden,  S. Dasgupta,  M. Diedenhofen,  R. A. DiStasio Jr.,  
 H. Do,  A. D. Dutoi,  R. G. Edgar,  P.-T. Fang,  S. Fatehi,  Q. Feng,  
 L. Fusti-Molnar,  A. Ghysels,  A. Golubeva-Zadorozhnaya,  J. Gomes,  
 A. Gunina,  M. W. D. Hanson-Heine,  P. H. P. Harbach,  A. W. Hauser,  
 J. E. Herr,  E. G. Hohenstein,  Z. C. Holden,  K. Hui,  T.-C. Jagau,  H. Ji,  
 B. Kaduk,  K. Khistyaev,  Jaehoon Kim,  Jihan Kim,  R. A. King,  
 P. Klunzinger,  K. Koh,  D. Kosenkov,  T. Kowalczyk,  C. M. Krauter,  
 A. Kunitsa,  K. U. Lao,  A. Laurent,  K. V. Lawler,  J. Lee,  D. Lefrancois,  
 S. Lehtola,  S. V. Levchenko,  C. Y. Lin,  Y.-S. Lin,  F. Liu,  E. Livshits,  
 R. C. Lochan,  A. Luenser,  P. Manohar,  S. F. Manzer,  S.-P. Mao,  Y. Mao,  
 N. Mardirossian,  A. V. Marenich,  L. A. Martinez-Martinez,  S. A. Maurer,  
 N. J. Mayhall,  J.-M. Mewes,  A. F. Morrison,  K. Nanda,  T. S. Nguyen-Beck,  
 C. M. Oana,  R. Olivares-Amaya,  D. P. O'Neill,  J. A. Parkhill,  
 T. M. Perrine,  R. Peverati,  P. A. Pieniazek,  F. Plasser,  A. Prociuk,  
 D. R. Rehn,  E. Rosta,  N. J. Russ,  N. Sergueev,  S. M. Sharada,  
 S. Sharma,  D. W. Small,  A. Sodt,  T. Stauch,  T. Stein,  D. Stuck,  
 Y.-C. Su,  A. J. W. Thom,  T. Tsuchimochi,  L. Vogt,  O. Vydrov,  T. Wang,  
 M. A. Watson,  J. Wenzel,  A. White,  C. F. Williams,  V. Vanovschi,  
 K. Yao,  S. Yeganeh,  S. R. Yost,  Z.-Q. You,  I. Y. Zhang,  X. Zhang,  
 Y. Zhao,  B. R. Brooks,  G. K. L. Chan,  D. M. Chipman,  C. J. Cramer,  
 W. A. Goddard III,  M. S. Gordon,  W. J. Hehre,  A. Klamt,  
 H. F. Schaefer III,  M. W. Schmidt,  C. D. Sherrill,  D. G. Truhlar,  
 A. Warshel,  X. Xu,  A. Aspuru-Guzik,  R. Baer,  A. T. Bell,  N. A. Besley,  
 J.-D. Chai,  A. Dreuw,  B. D. Dunietz,  T. R. Furlani,  S. R. Gwaltney,  
 C.-P. Hsu,  Y. Jung,  J. Kong,  D. S. Lambrecht,  W. Liang,  C. Ochsenfeld,  
 V. A. Rassolov,  L. V. Slipchenko,  J. E. Subotnik,  T. Van Voorhis,  
 J. M. Herbert,  A. I. Krylov,  P. M. W. Gill,  M. Head-Gordon

 Contributors to earlier versions of Q-Chem not listed above: 
 R. D. Adamson,  J. Baker,  E. F. C. Byrd,  A. K. Chakraborty,  C.-L. Cheng,  
 H. Dachsel,  R. J. Doerksen,  G. Hawkins,  A. Heyden,  S. Hirata,  
 G. Kedziora,  F. J. Keil,  C. Kelley,  P. P. Korambath,  W. Kurlancheek,  
 A. M. Lee,  M. S. Lee,  D. Liotard,  I. Lotan,  P. E. Maslen,  N. Nair,  
 D. Neuhauser,  R. Olson,  B. Peters,  J. Ritchie,  N. E. Schultz,  
 N. Shenvi,  A. C. Simmonett,  K. S. Thanthiriwatte,  Q. Wu,  W. Zhang

 Please cite Q-Chem as follows:
 Y. Shao et al., Mol. Phys. 113, 184-215 (2015)
 DOI: 10.1080/00268976.2014.952696

 Q-Chem 4.4.2 for Intel X86 EM64T Linux

 Parts of Q-Chem use Armadillo 5.200.1 (Boston Tea Smuggler).
 http://arma.sourceforge.net/

 Q-Chem begins on Wed May 31 02:24:47 2017  

Host: nid00447
0

     Scratch files written to /global/cscratch1/sd/bwood/qchem/nx/qchem48483.0//
 Parallel job on  16  processors

Checking the input file for inconsistencies... 	...done.

--------------------------------------------------------------
User input:
--------------------------------------------------------------
$molecule
 0  1
 S           0.00238887        0.06077275        0.00183269
 C           1.73707619        0.03315849        0.00323229
 H           2.27612737        0.05289032        0.94042557
 C           2.24169204       -0.01546201       -1.26965798
 H           3.30285780       -0.04005365       -1.48972496
 C           1.22479222       -0.01612968       -2.26811464
 H           1.42674790       -0.02650987       -3.33334501
 C          -0.05393771        0.02880388       -1.75170966
 C          -1.32450815        0.04889988       -2.45636342
 C          -2.60320004        0.09383811       -1.93967586
 H          -2.80487143        0.13749987       -0.87513823
 C          -3.61979715        0.11083806       -2.93823785
 H          -4.68043232        0.15360843       -2.71842342
 C          -3.11491669        0.08049702       -4.21154430
 H          -3.65353162        0.09245793       -5.14921810
 S          -1.38144205        0.01267868       -4.21026717
$end


$rem
         jobtype = opt
        exchange = b3lyp
           basis = 6-31++g**
  max_scf_cycles = 150
      mem_static = 775
       mem_total = 7750
      sym_ignore = true
        symmetry = false
          thresh = 12
$end


$opt
CONSTRAINT
tors 6 8 9 10 180.0
ENDCONSTRAINT
$end

--------------------------------------------------------------
 ----------------------------------------------------------------
             Standard Nuclear Orientation (Angstroms)
    I     Atom           X                Y                Z
 ----------------------------------------------------------------
    1      S       0.0023888700     0.0607727500     0.0018326900
    2      C       1.7370761900     0.0331584900     0.0032322900
    3      H       2.2761273700     0.0528903200     0.9404255700
    4      C       2.2416920400    -0.0154620100    -1.2696579800
    5      H       3.3028578000    -0.0400536500    -1.4897249600
    6      C       1.2247922200    -0.0161296800    -2.2681146400
    7      H       1.4267479000    -0.0265098700    -3.3333450100
    8      C      -0.0539377100     0.0288038800    -1.7517096600
    9      C      -1.3245081500     0.0488998800    -2.4563634200
   10      C      -2.6032000400     0.0938381100    -1.9396758600
   11      H      -2.8048714300     0.1374998700    -0.8751382300
   12      C      -3.6197971500     0.1108380600    -2.9382378500
   13      H      -4.6804323200     0.1536084300    -2.7184234200
   14      C      -3.1149166900     0.0804970200    -4.2115443000
   15      H      -3.6535316200     0.0924579300    -5.1492181000
   16      S      -1.3814420500     0.0126786800    -4.2102671700
 ----------------------------------------------------------------
 Nuclear Repulsion Energy =   629.2573748758 hartrees
 There are       43 alpha and       43 beta electrons
 Requested basis set is 6-31++G(d,p)
 There are 76 shells and 234 basis functions

 Total QAlloc Memory Limit   7750 MB
 Mega-Array Size       758 MB
 MEM_STATIC part       775 MB
 A cutoff of  1.0D-12 yielded   2531 shell pairs
 There are     24917 function pairs

 Q-Chem warning in module /project/projectdirs/jcesr/qchem/qc44/cnl_qc441/compile/cori/qc_src/libqints/qchem/aobasis.C, line 68:

 Using reconstructed effective core potential

 
 -------------------------------------------------------
 OpenMP Integral Computing Module                       
 Release: version 1.0, May 2013, Q-Chem Inc. Pittsburgh 
 -------------------------------------------------------
 Integral Job Info:
 Integral job number is                      11
 Integral operator is                         1
 short-range coefficients                     0
 long-range coefficients              100000000
 Omega coefficients                           0
 if combine SR and LR in K                    0
 Integral screening is                        0
 Integral computing path is                   2
 max size of driver memory is            800000
 size of driver memory is                593474
 size of scratch memory is             15166112
 max col of scratch BK array               1296
 max len of scratch array in speh3          155
 max len of scratch index in speh4           18
 max int batch size is                      520
 min int batch size is                       52
 fixed nKL is                                52
 max L of basis functions is                  2
 order of int derivative is                   0
 number of shells is                         76
 number of basis is                         234
 number of cartesian basis is               234
 number of contracted shell pairs          2531
 number of primitive shell pairs           8264
 maxK2 (contraction) of shell pair           36
 max number of K2 of shell pair               1
 max number of CS2 of shell pair            266
 max number of PS2 of shell pair           1524
 mem total for path MDJ                   52408
 -------------------------------------------------------
 Smallest overlap matrix eigenvalue = 8.12E-07
 Linear dependence detected in AO basis
 Number of orthogonalized atomic orbitals = 233
 Maximum deviation from orthogonality = 4.945E-11

 Scale SEOQF with 1.000000e-01/1.000000e-01/1.000000e-02

 Standard Electronic Orientation quadrupole field applied
 Nucleus-field energy     =     0.0000000055 hartrees
 Guess from superposition of atomic densities
 Warning:  Energy on first SCF cycle will be non-variational
 A restricted hybrid HF-DFT SCF calculation will be
 performed using Pulay DIIS extrapolation
 Exchange:     0.2000 Hartree-Fock + 0.0800 Slater + 0.7200 B88
 Correlation:  0.1900 VWN1RPA + 0.8100 LYP
 Using SG-1 standard quadrature grid
 SCF converges when DIIS error is below 1.0E-08
 ---------------------------------------
  Cycle       Energy         DIIS Error
 ---------------------------------------
    1   -1107.1777398353      4.42E-02
    2   -1104.6717555844      4.68E-03
    3   -1104.4774018574      6.74E-03
    4   -1104.8353487047      8.01E-04
    5   -1104.8389338227      4.69E-04
    6   -1104.8403743057      1.42E-04
    7   -1104.8404860166      7.50E-05
    8   -1104.8405261739      1.16E-05
    9   -1104.8405272228      2.13E-06
   10   -1104.8405272540      9.22E-07
   11   -1104.8405272600      2.09E-07
   12   -1104.8405272588      4.66E-08
   13   -1104.8405272591      4.05E-08
   14   -1104.8405272591      4.18E-09 Convergence criterion met
 ---------------------------------------
 SCF time:  CPU 7.61 s  wall 7.09 s
 SCF   energy in the final basis set = -1104.8405272591
 Total energy in the final basis set = -1104.8405272591
 
 --------------------------------------------------------------
 
                    Orbital Energies (a.u.)
 --------------------------------------------------------------
 
 Alpha MOs
 -- Occupied --
-88.920 -88.920 -10.240 -10.239 -10.225 -10.225 -10.205 -10.205
-10.204 -10.204  -7.979  -7.979  -5.944  -5.944  -5.940  -5.940
 -5.936  -5.936  -0.901  -0.878  -0.772  -0.750  -0.737  -0.706
 -0.604  -0.582  -0.551  -0.534  -0.528  -0.478  -0.421  -0.419
 -0.408  -0.405  -0.402  -0.379  -0.374  -0.358  -0.343  -0.284
 -0.266  -0.258  -0.211
 -- Virtual --
 -0.060  -0.006  -0.004  -0.000   0.008   0.009   0.017   0.022
  0.032   0.037   0.039   0.041   0.052   0.056   0.062   0.068
  0.074   0.082   0.086   0.094   0.096   0.102   0.106   0.111
  0.116   0.123   0.125   0.131   0.132   0.143   0.144   0.147
  0.149   0.151   0.159   0.167   0.169   0.169   0.185   0.194
  0.194   0.200   0.208   0.209   0.220   0.220   0.227   0.232
  0.250   0.251   0.257   0.270   0.285   0.289   0.293   0.315
  0.322   0.331   0.348   0.354   0.360   0.373   0.397   0.408
  0.455   0.476   0.505   0.510   0.550   0.557   0.571   0.599
  0.609   0.625   0.649   0.649   0.657   0.659   0.662   0.697
  0.710   0.715   0.722   0.730   0.740   0.742   0.780   0.787
  0.814   0.820   0.822   0.845   0.867   0.921   0.938   0.947
  0.950   0.955   0.960   0.970   0.984   0.993   0.999   1.019
  1.028   1.046   1.075   1.109   1.111   1.120   1.148   1.169
  1.175   1.194   1.222   1.259   1.273   1.321   1.337   1.344
  1.353   1.353   1.370   1.476   1.480   1.492   1.547   1.612
  1.670   1.690   1.724   1.800   1.865   1.881   1.895   1.915
  1.927   1.935   1.949   2.008   2.055   2.069   2.072   2.122
  2.174   2.180   2.182   2.214   2.245   2.256   2.341   2.361
  2.364   2.418   2.450   2.457   2.470   2.491   2.509   2.529
  2.540   2.557   2.586   2.612   2.675   2.690   2.717   2.755
  2.867   2.876   2.936   2.940   3.144   3.209   3.267   3.277
  3.399   3.428   3.721   3.743   3.974   3.986   4.234   4.297
  4.312   4.320   4.409   4.536   4.661   4.716
 --------------------------------------------------------------
 
          Ground-State Mulliken Net Atomic Charges

     Atom                 Charge (a.u.)
  ----------------------------------------
      1 S                    -0.158538
      2 C                     0.034202
      3 H                     0.202920
      4 C                    -0.404796
      5 H                     0.122396
      6 C                     0.487101
      7 H                     0.115177
      8 C                    -0.398142
      9 C                    -0.398692
     10 C                     0.486725
     11 H                     0.115244
     12 C                    -0.404814
     13 H                     0.122374
     14 C                     0.034110
     15 H                     0.202901
     16 S                    -0.158167
  ----------------------------------------
  Sum of atomic charges =     0.000000

 -----------------------------------------------------------------
                    Cartesian Multipole Moments
 -----------------------------------------------------------------
    Charge (ESU x 10^10)
                 0.0000
    Dipole Moment (Debye)
         X       0.0008      Y       0.0543      Z      -0.0010
       Tot       0.0543
    Quadrupole Moments (Debye-Ang)
        XX     -62.3004     XY      -0.4361     YY     -78.9306
        XZ       2.9533     YZ       0.0461     ZZ     -66.9200
    Octopole Moments (Debye-Ang^2)
       XXX     128.8657    XXY      -1.4024    XYY      54.3414
       YYY     -10.2954    XXZ     127.0231    XYZ       1.3010
       YYZ     166.0897    XZZ      33.6955    YZZ      -2.8975
       ZZZ     422.4118
    Hexadecapole Moments (Debye-Ang^3)
      XXXX   -1581.8172   XXXY       8.8735   XXYY    -354.9554
      XYYY      21.4331   YYYY    -105.0971   XXXZ    -605.3498
      XXYZ       2.0675   XYYZ    -259.1432   YYYZ      21.2354
      XXZZ    -685.1352   XYZZ       2.0740   YYZZ    -586.0870
      XZZZ    -559.3828   YZZZ      17.4813   ZZZZ   -2884.0432
 -----------------------------------------------------------------
 Calculating analytic gradient of the SCF energy
 Gradient of SCF Energy
            1           2           3           4           5           6
    1  -0.0001516  -0.0005158   0.0001152  -0.0000150   0.0000432  -0.0000512
    2  -0.0006900   0.0008628   0.0003274  -0.0008258   0.0000365  -0.0012067
    3  -0.0003102   0.0004531   0.0000018  -0.0000437   0.0000036  -0.0004617
            7           8           9          10          11          12
    1  -0.0004450   0.0013075  -0.0011979  -0.0000066   0.0003811  -0.0000433
    2   0.0007325   0.0007880   0.0008889  -0.0012953   0.0006704  -0.0006914
    3  -0.0000681   0.0004317  -0.0003871   0.0005051   0.0000862   0.0001117
           13          14          15          16
    1  -0.0000406   0.0006908  -0.0001269   0.0000563
    2   0.0000191   0.0007927   0.0003398  -0.0007488
    3  -0.0000100  -0.0003448  -0.0000595   0.0000918
 Max gradient component =       1.307E-03
 RMS gradient           =       5.568E-04
 Gradient time:  CPU 2.08 s  wall 2.11 s
 Geometry Optimization Parameters
   NAtoms,    NIC,     NZ,  NCons,   NDum,   NFix, NCnnct, MaxDiis
       16     111       0       1       0       0       0       0


** CONSTRAINED OPTIMIZATION IN DELOCALIZED INTERNAL COORDINATES **
   Searching for a Minimum

   Optimization Cycle:   1

                       Coordinates (Angstroms)
     ATOM                X               Y               Z
      1  S         0.0023888700    0.0607727500    0.0018326900
      2  C         1.7370761900    0.0331584900    0.0032322900
      3  H         2.2761273700    0.0528903200    0.9404255700
      4  C         2.2416920400   -0.0154620100   -1.2696579800
      5  H         3.3028578000   -0.0400536500   -1.4897249600
      6  C         1.2247922200   -0.0161296800   -2.2681146400
      7  H         1.4267479000   -0.0265098700   -3.3333450100
      8  C        -0.0539377100    0.0288038800   -1.7517096600
      9  C        -1.3245081500    0.0488998800   -2.4563634200
     10  C        -2.6032000400    0.0938381100   -1.9396758600
     11  H        -2.8048714300    0.1374998700   -0.8751382300
     12  C        -3.6197971500    0.1108380600   -2.9382378500
     13  H        -4.6804323200    0.1536084300   -2.7184234200
     14  C        -3.1149166900    0.0804970200   -4.2115443000
     15  H        -3.6535316200    0.0924579300   -5.1492181000
     16  S        -1.3814420500    0.0126786800   -4.2102671700
   Point Group: c1    Number of degrees of freedom:    42


   Energy is  -1104.840527259

              Constraints and their Current Values
                                        Value     Constraint
   Dihedral:        6   8   9  10     -180.000      180.000

 Attempting to Generate Delocalized Internal Coordinates

 41 Hessian modes will be used to form the next step
  Hessian Eigenvalues:
     0.045000    0.045000    0.045000    0.045000    0.045000    0.045000
     0.045002    0.045002    0.045003    0.045004    0.045011    0.045012
     0.159943    0.159949    0.159991    0.159992    0.160000    0.160000
     0.221282    0.221282    0.237835    0.237839    0.250000    0.250000
     0.294264    0.294663    0.312518    0.312618    0.354736    0.354850
     0.355125    0.355132    0.358226    0.358329    0.378510    0.404854
     0.404909    0.463547    0.463616    0.497922    0.497945

 Minimum Search - Taking Simple RFO Step
 Searching for Lamda that Minimizes Along All modes
 Value Taken    Lamda =  -0.00009699
 Step Taken.  Stepsize is  0.043333

                             Maximum     Tolerance    Cnvgd?
         Gradient           0.001460      0.000300      NO
         Displacement       0.032532      0.001200      NO
         Energy change     *********      0.000001      NO


 New Cartesian Coordinates Obtained by Inverse Iteration

 Displacement from previous Coordinates is:  0.076539
 ----------------------------------------------------------------
             Standard Nuclear Orientation (Angstroms)
    I     Atom           X                Y                Z
 ----------------------------------------------------------------
    1      S       0.0043582373     0.0689639029     0.0026309645
    2      C       1.7390721349     0.0249051410     0.0036167750
    3      H       2.2777356041     0.0320903878     0.9411030694
    4      C       2.2430511793    -0.0136242743    -1.2692483741
    5      H       3.3038739478    -0.0440702554    -1.4899341830
    6      C       1.2256952664    -0.0074684589    -2.2668454185
    7      H       1.4308587847    -0.0219994810    -3.3314481969
    8      C      -0.0541094718     0.0376574516    -1.7515078718
    9      C      -1.3240821749     0.0579275071    -2.4565039728
   10      C      -2.6038902114     0.1030511473    -1.9412835398
   11      H      -2.8085991569     0.1430408909    -0.8772444403
   12      C      -3.6212020338     0.1123423266    -2.9389638190
   13      H      -4.6818616636     0.1490342742    -2.7184558769
   14      C      -3.1172828770     0.0723890244    -4.2117866468
   15      H      -3.6558179048     0.0716726820    -5.1493810527
   16      S      -1.3827544305     0.0218759439    -4.2106774663
 ----------------------------------------------------------------
 Nuclear Repulsion Energy =   629.1020050002 hartrees
 There are       43 alpha and       43 beta electrons
 Applying Cartesian multipole field
    Component          Value
    ---------          -----
     (2,0,0)        1.00000E-11
     (0,2,0)        2.00000E-11
     (0,0,2)       -3.00000E-12
 Nucleus-field energy     =     0.0000000056 hartrees
 Requested basis set is 6-31++G(d,p)
 There are 76 shells and 234 basis functions
 A cutoff of  1.0D-12 yielded   2529 shell pairs
 There are     24905 function pairs

 Q-Chem warning in module /project/projectdirs/jcesr/qchem/qc44/cnl_qc441/compile/cori/qc_src/libqints/qchem/aobasis.C, line 68:

 Using reconstructed effective core potential

 Smallest overlap matrix eigenvalue = 8.12E-07
 Linear dependence detected in AO basis
 Number of orthogonalized atomic orbitals = 233
 Maximum deviation from orthogonality = 6.167E-11
 Guess MOs from SCF MO coefficient file
 Reading MOs from coefficient file
 Reading MOs from coefficient file
 A restricted hybrid HF-DFT SCF calculation will be
 performed using Pulay DIIS extrapolation
 Exchange:     0.2000 Hartree-Fock + 0.0800 Slater + 0.7200 B88
 Correlation:  0.1900 VWN1RPA + 0.8100 LYP
 Using SG-1 standard quadrature grid
 SCF converges when DIIS error is below 1.0E-08
 Geometry optimization detected.  Setting ReadMinima to 0
 Setting SaveMinima to 0
 ---------------------------------------
  Cycle       Energy         DIIS Error
 ---------------------------------------
    1   -1104.8398259856      2.94E-04
    2   -1104.8405825810      1.53E-05
    3   -1104.8405844359      1.58E-05
    4   -1104.8405858241      6.95E-06
    5   -1104.8405861092      3.17E-06
    6   -1104.8405861835      9.87E-07
    7   -1104.8405861908      3.28E-07
    8   -1104.8405861900      9.95E-08
    9   -1104.8405861900      2.44E-08
   10   -1104.8405861899      8.02E-09 Convergence criterion met
 ---------------------------------------
 SCF time:  CPU 5.50 s  wall 5.19 s
 SCF   energy in the final basis set = -1104.8405861899
 Total energy in the final basis set = -1104.8405861899
 
 --------------------------------------------------------------
 
                    Orbital Energies (a.u.)
 --------------------------------------------------------------
 
 Alpha MOs
 -- Occupied --
-88.920 -88.920 -10.240 -10.240 -10.225 -10.225 -10.205 -10.205
-10.204 -10.204  -7.979  -7.979  -5.944  -5.944  -5.940  -5.940
 -5.936  -5.936  -0.901  -0.878  -0.772  -0.750  -0.737  -0.706
 -0.605  -0.582  -0.551  -0.535  -0.528  -0.478  -0.421  -0.419
 -0.408  -0.405  -0.403  -0.379  -0.374  -0.358  -0.343  -0.284
 -0.265  -0.258  -0.211
 -- Virtual --
 -0.060  -0.006  -0.004  -0.000   0.008   0.009   0.017   0.022
  0.032   0.037   0.039   0.041   0.052   0.056   0.062   0.068
  0.074   0.082   0.086   0.094   0.096   0.102   0.106   0.111
  0.116   0.123   0.125   0.131   0.132   0.143   0.144   0.147
  0.149   0.151   0.159   0.167   0.169   0.169   0.185   0.194
  0.194   0.200   0.208   0.209   0.219   0.219   0.227   0.232
  0.250   0.252   0.257   0.270   0.285   0.289   0.294   0.315
  0.322   0.331   0.348   0.355   0.360   0.373   0.397   0.408
  0.455   0.476   0.505   0.511   0.549   0.557   0.572   0.599
  0.609   0.625   0.649   0.649   0.657   0.659   0.662   0.697
  0.710   0.715   0.722   0.729   0.740   0.742   0.780   0.787
  0.813   0.821   0.822   0.845   0.867   0.921   0.938   0.948
  0.949   0.955   0.960   0.969   0.984   0.994   0.999   1.018
  1.028   1.046   1.075   1.109   1.111   1.120   1.148   1.168
  1.175   1.194   1.222   1.259   1.273   1.324   1.340   1.341
  1.350   1.353   1.369   1.476   1.481   1.491   1.547   1.612
  1.670   1.690   1.724   1.801   1.865   1.881   1.895   1.914
  1.926   1.936   1.948   2.007   2.055   2.068   2.072   2.122
  2.174   2.180   2.182   2.214   2.245   2.255   2.341   2.361
  2.363   2.418   2.451   2.459   2.470   2.491   2.509   2.528
  2.540   2.557   2.586   2.612   2.676   2.690   2.717   2.755
  2.866   2.876   2.937   2.939   3.145   3.210   3.268   3.278
  3.399   3.428   3.721   3.743   3.974   3.986   4.234   4.297
  4.312   4.320   4.410   4.536   4.661   4.716
 --------------------------------------------------------------
 
          Ground-State Mulliken Net Atomic Charges

     Atom                 Charge (a.u.)
  ----------------------------------------
      1 S                    -0.157295
      2 C                     0.035495
      3 H                     0.203045
      4 C                    -0.407207
      5 H                     0.122376
      6 C                     0.486765
      7 H                     0.115219
      8 C                    -0.398406
      9 C                    -0.398491
     10 C                     0.487027
     11 H                     0.115236
     12 C                    -0.407366
     13 H                     0.122369
     14 C                     0.035607
     15 H                     0.203048
     16 S                    -0.157422
  ----------------------------------------
  Sum of atomic charges =     0.000000

 -----------------------------------------------------------------
                    Cartesian Multipole Moments
 -----------------------------------------------------------------
    Charge (ESU x 10^10)
                 0.0000
    Dipole Moment (Debye)
         X       0.0006      Y       0.0273      Z      -0.0003
       Tot       0.0273
    Quadrupole Moments (Debye-Ang)
        XX     -62.2467     XY      -0.4181     YY     -78.9365
        XZ       2.9712     YZ       0.1020     ZZ     -66.9415
    Octopole Moments (Debye-Ang^2)
       XXX     128.7050    XXY      -2.1432    XYY      54.3450
       YYY     -11.2947    XXZ     126.8667    XYZ       0.9195
       YYZ     166.1072    XZZ      33.6272    YZZ      -3.6284
       ZZZ     422.5463
    Hexadecapole Moments (Debye-Ang^3)
      XXXX   -1582.5824   XXXY      10.4337   XXYY    -355.3602
      XYYY      22.1616   YYYY    -105.2494   XXXZ    -605.3583
      XXYZ       4.1342   XYYZ    -259.4188   YYYZ      23.4213
      XXZZ    -684.8816   XYZZ       4.0295   YYZZ    -586.3008
      XZZZ    -559.6461   YZZZ      21.6624   ZZZZ   -2885.2662
 -----------------------------------------------------------------
 Calculating analytic gradient of the SCF energy
 Gradient of SCF Energy
            1           2           3           4           5           6
    1   0.0000212  -0.0000655   0.0000769   0.0000567   0.0000175   0.0001269
    2   0.0000232   0.0000243   0.0000932  -0.0000217   0.0000191  -0.0008641
    3  -0.0002422   0.0000472  -0.0000554   0.0001076   0.0000456  -0.0000206
            7           8           9          10          11          12
    1  -0.0001231   0.0002180  -0.0001985  -0.0001053   0.0001300  -0.0000762
    2   0.0004900   0.0002452   0.0002387  -0.0008591   0.0004553   0.0000104
    3   0.0000123   0.0002377  -0.0001782   0.0000468  -0.0000395  -0.0001205
           13          14          15          16
    1  -0.0000170   0.0000654  -0.0000779  -0.0000493
    2   0.0000056   0.0000083   0.0001062   0.0000254
    3  -0.0000544  -0.0000472   0.0000505   0.0002101
 Max gradient component =       8.641E-04
 RMS gradient           =       2.277E-04
 Gradient time:  CPU 2.13 s  wall 2.07 s
 Geometry Optimization Parameters
   NAtoms,    NIC,     NZ,  NCons,   NDum,   NFix, NCnnct, MaxDiis
       16     111       0       1       0       0       0       0

 Cartesian Hessian Update
 Hessian Updated using BFGS Update


** CONSTRAINED OPTIMIZATION IN DELOCALIZED INTERNAL COORDINATES **
   Searching for a Minimum

   Optimization Cycle:   2

                       Coordinates (Angstroms)
     ATOM                X               Y               Z
      1  S         0.0043582373    0.0689639029    0.0026309645
      2  C         1.7390721349    0.0249051410    0.0036167750
      3  H         2.2777356041    0.0320903878    0.9411030694
      4  C         2.2430511793   -0.0136242743   -1.2692483741
      5  H         3.3038739478   -0.0440702554   -1.4899341830
      6  C         1.2256952664   -0.0074684589   -2.2668454185
      7  H         1.4308587847   -0.0219994810   -3.3314481969
      8  C        -0.0541094718    0.0376574516   -1.7515078718
      9  C        -1.3240821749    0.0579275071   -2.4565039728
     10  C        -2.6038902114    0.1030511473   -1.9412835398
     11  H        -2.8085991569    0.1430408909   -0.8772444403
     12  C        -3.6212020338    0.1123423266   -2.9389638190
     13  H        -4.6818616636    0.1490342742   -2.7184558769
     14  C        -3.1172828770    0.0723890244   -4.2117866468
     15  H        -3.6558179048    0.0716726820   -5.1493810527
     16  S        -1.3827544305    0.0218759439   -4.2106774663
   Point Group: c1    Number of degrees of freedom:    42


   Energy is  -1104.840586190

              Constraints and their Current Values
                                        Value     Constraint
   Dihedral:        6   8   9  10     -180.000      180.000
 Hessian Updated using BFGS Update

 35 Hessian modes will be used to form the next step
  Hessian Eigenvalues:
     0.029605    0.045000    0.045001    0.045003    0.045004    0.045012
     0.051942    0.156557    0.159946    0.159991    0.159995    0.160691
     0.221282    0.221742    0.237827    0.246624    0.249845    0.250040
     0.292940    0.294429    0.312472    0.312579    0.354798    0.354869
     0.355125    0.355133    0.358262    0.358371    0.378149    0.404537
     0.404941    0.463577    0.471000    0.497928    0.499098

 Minimum Search - Taking Simple RFO Step
 Searching for Lamda that Minimizes Along All modes
 Value Taken    Lamda =  -0.00001659
 Step Taken.  Stepsize is  0.022628

                             Maximum     Tolerance    Cnvgd?
         Gradient           0.000413      0.000300      NO
         Displacement       0.015440      0.001200      NO
         Energy change     -0.000059      0.000001      NO


 New Cartesian Coordinates Obtained by Inverse Iteration

 Displacement from previous Coordinates is:  0.027501
 ----------------------------------------------------------------
             Standard Nuclear Orientation (Angstroms)
    I     Atom           X                Y                Z
 ----------------------------------------------------------------
    1      S       0.0041904799     0.0721963664     0.0029522089
    2      C       1.7388151126     0.0235482326     0.0033952618
    3      H       2.2768629320     0.0256218668     0.9412682014
    4      C       2.2425742696    -0.0128051984    -1.2696453889
    5      H       3.3031498417    -0.0470828493    -1.4908531242
    6      C       1.2253572085    -0.0034114733    -2.2670495214
    7      H       1.4318081631    -0.0236305754    -3.3313953769
    8      C      -0.0544125280     0.0417524556    -1.7516736574
    9      C      -1.3236851967     0.0620876870    -2.4565552552
   10      C      -2.6034578794     0.1072504468    -1.9412415036
   11      H      -2.8095190306     0.1418571303    -0.8771919132
   12      C      -3.6207381579     0.1129605390    -2.9386128408
   13      H      -4.6813627747     0.1457997303    -2.7174175204
   14      C      -3.1170552285     0.0710514394    -4.2115172898
   15      H      -3.6551518912     0.0651473415    -5.1493340561
   16      S      -1.3823300904     0.0254450706    -4.2110582741
 ----------------------------------------------------------------
 Nuclear Repulsion Energy =   629.1094429169 hartrees
 There are       43 alpha and       43 beta electrons
 Applying Cartesian multipole field
    Component          Value
    ---------          -----
     (2,0,0)        1.00000E-11
     (0,2,0)        2.00000E-11
     (0,0,2)       -3.00000E-12
 Nucleus-field energy     =     0.0000000056 hartrees
 Requested basis set is 6-31++G(d,p)
 There are 76 shells and 234 basis functions
 A cutoff of  1.0D-12 yielded   2529 shell pairs
 There are     24905 function pairs

 Q-Chem warning in module /project/projectdirs/jcesr/qchem/qc44/cnl_qc441/compile/cori/qc_src/libqints/qchem/aobasis.C, line 68:

 Using reconstructed effective core potential

 Smallest overlap matrix eigenvalue = 8.10E-07
 Linear dependence detected in AO basis
 Number of orthogonalized atomic orbitals = 233
 Maximum deviation from orthogonality = 7.231E-11
 Guess MOs from SCF MO coefficient file
 Reading MOs from coefficient file
 Reading MOs from coefficient file
 A restricted hybrid HF-DFT SCF calculation will be
 performed using Pulay DIIS extrapolation
 Exchange:     0.2000 Hartree-Fock + 0.0800 Slater + 0.7200 B88
 Correlation:  0.1900 VWN1RPA + 0.8100 LYP
 Using SG-1 standard quadrature grid
 SCF converges when DIIS error is below 1.0E-08
 Geometry optimization detected.  Setting ReadMinima to 0
 Setting SaveMinima to 0
 ---------------------------------------
  Cycle       Energy         DIIS Error
 ---------------------------------------
    1   -1104.8406365793      9.36E-05
    2   -1104.8405958690      5.87E-06
    3   -1104.8405958343      8.35E-06
    4   -1104.8405962995      2.72E-06
    5   -1104.8405963488      9.41E-07
    6   -1104.8405963563      3.15E-07
    7   -1104.8405963587      5.07E-08
    8   -1104.8405963586      2.86E-08
    9   -1104.8405963595      8.65E-09 Convergence criterion met
 ---------------------------------------
 SCF time:  CPU 4.96 s  wall 5.36 s
 SCF   energy in the final basis set = -1104.8405963595
 Total energy in the final basis set = -1104.8405963595
 
 --------------------------------------------------------------
 
                    Orbital Energies (a.u.)
 --------------------------------------------------------------
 
 Alpha MOs
 -- Occupied --
-88.920 -88.920 -10.240 -10.239 -10.225 -10.225 -10.205 -10.205
-10.204 -10.204  -7.979  -7.979  -5.944  -5.944  -5.940  -5.940
 -5.936  -5.936  -0.901  -0.878  -0.772  -0.750  -0.737  -0.706
 -0.605  -0.582  -0.551  -0.535  -0.528  -0.478  -0.421  -0.419
 -0.408  -0.405  -0.403  -0.379  -0.374  -0.358  -0.343  -0.284
 -0.265  -0.258  -0.211
 -- Virtual --
 -0.060  -0.006  -0.004  -0.000   0.008   0.009   0.017   0.022
  0.032   0.037   0.039   0.041   0.052   0.056   0.062   0.068
  0.074   0.082   0.086   0.094   0.096   0.102   0.106   0.111
  0.116   0.123   0.125   0.131   0.132   0.143   0.144   0.147
  0.149   0.151   0.159   0.167   0.169   0.169   0.185   0.194
  0.194   0.200   0.208   0.209   0.219   0.219   0.227   0.232
  0.250   0.252   0.258   0.270   0.285   0.289   0.294   0.315
  0.322   0.331   0.348   0.355   0.360   0.373   0.397   0.408
  0.455   0.476   0.505   0.511   0.550   0.557   0.572   0.599
  0.609   0.626   0.649   0.649   0.657   0.659   0.662   0.697
  0.710   0.715   0.722   0.730   0.740   0.742   0.780   0.787
  0.814   0.821   0.822   0.845   0.867   0.921   0.938   0.948
  0.949   0.956   0.960   0.969   0.984   0.994   0.999   1.018
  1.028   1.046   1.075   1.109   1.111   1.121   1.148   1.168
  1.175   1.193   1.222   1.259   1.273   1.325   1.340   1.340
  1.350   1.353   1.369   1.475   1.482   1.489   1.547   1.612
  1.670   1.690   1.724   1.801   1.865   1.881   1.895   1.914
  1.926   1.936   1.948   2.008   2.055   2.068   2.072   2.122
  2.174   2.180   2.182   2.214   2.245   2.255   2.341   2.360
  2.363   2.418   2.451   2.459   2.470   2.491   2.509   2.528
  2.540   2.558   2.586   2.613   2.676   2.691   2.717   2.755
  2.867   2.876   2.937   2.939   3.145   3.210   3.268   3.278
  3.399   3.429   3.721   3.743   3.973   3.986   4.234   4.297
  4.312   4.320   4.410   4.536   4.661   4.716
 --------------------------------------------------------------
 
          Ground-State Mulliken Net Atomic Charges

     Atom                 Charge (a.u.)
  ----------------------------------------
      1 S                    -0.156968
      2 C                     0.035527
      3 H                     0.203087
      4 C                    -0.408008
      5 H                     0.122313
      6 C                     0.487330
      7 H                     0.115240
      8 C                    -0.398623
      9 C                    -0.398467
     10 C                     0.487442
     11 H                     0.115253
     12 C                    -0.407982
     13 H                     0.122314
     14 C                     0.035516
     15 H                     0.203084
     16 S                    -0.157057
  ----------------------------------------
  Sum of atomic charges =     0.000000

 -----------------------------------------------------------------
                    Cartesian Multipole Moments
 -----------------------------------------------------------------
    Charge (ESU x 10^10)
                 0.0000
    Dipole Moment (Debye)
         X       0.0002      Y       0.0059      Z      -0.0001
       Tot       0.0059
    Quadrupole Moments (Debye-Ang)
        XX     -62.2510     XY      -0.4037     YY     -78.9387
        XZ       2.9589     YZ       0.1474     ZZ     -66.9394
    Octopole Moments (Debye-Ang^2)
       XXX     128.6852    XXY      -2.5550    XYY      54.3507
       YYY     -11.7960    XXZ     126.8987    XYZ       0.7793
       YYZ     166.1149    XZZ      33.6779    YZZ      -4.0181
       ZZZ     422.5433
    Hexadecapole Moments (Debye-Ang^3)
      XXXX   -1582.2938   XXXY      11.2830   XXYY    -355.3177
      XYYY      22.5098   YYYY    -105.3453   XXXZ    -605.4592
      XXYZ       5.1685   XYYZ    -259.3933   YYYZ      24.4984
      XXZZ    -685.0075   XYZZ       4.7580   YYZZ    -586.3764
      XZZZ    -559.6804   YZZZ      23.7360   ZZZZ   -2885.3437
 -----------------------------------------------------------------
 Calculating analytic gradient of the SCF energy
 Gradient of SCF Energy
            1           2           3           4           5           6
    1  -0.0000033  -0.0000430   0.0000062  -0.0000262  -0.0000114   0.0000566
    2   0.0001020  -0.0000858   0.0000005   0.0001541  -0.0000408  -0.0004174
    3   0.0000194  -0.0000220  -0.0000119  -0.0000561   0.0000049   0.0000184
            7           8           9          10          11          12
    1   0.0000324  -0.0000889   0.0000696  -0.0000687  -0.0000168   0.0000294
    2   0.0002321   0.0000647   0.0000345  -0.0003891   0.0002188   0.0001460
    3  -0.0000141   0.0000469  -0.0000451  -0.0000105   0.0000029   0.0000541
           13          14          15          16
    1   0.0000081   0.0000322  -0.0000018   0.0000258
    2  -0.0000483  -0.0000901   0.0000075   0.0001113
    3  -0.0000015   0.0000188   0.0000180  -0.0000224
 Max gradient component =       4.174E-04
 RMS gradient           =       1.081E-04
 Gradient time:  CPU 2.09 s  wall 2.07 s
 Geometry Optimization Parameters
   NAtoms,    NIC,     NZ,  NCons,   NDum,   NFix, NCnnct, MaxDiis
       16     111       0       1       0       0       0       0

 Cartesian Hessian Update
 Hessian Updated using BFGS Update


** CONSTRAINED OPTIMIZATION IN DELOCALIZED INTERNAL COORDINATES **
   Searching for a Minimum

   Optimization Cycle:   3

                       Coordinates (Angstroms)
     ATOM                X               Y               Z
      1  S         0.0041904799    0.0721963664    0.0029522089
      2  C         1.7388151126    0.0235482326    0.0033952618
      3  H         2.2768629320    0.0256218668    0.9412682014
      4  C         2.2425742696   -0.0128051984   -1.2696453889
      5  H         3.3031498417   -0.0470828493   -1.4908531242
      6  C         1.2253572085   -0.0034114733   -2.2670495214
      7  H         1.4318081631   -0.0236305754   -3.3313953769
      8  C        -0.0544125280    0.0417524556   -1.7516736574
      9  C        -1.3236851967    0.0620876870   -2.4565552552
     10  C        -2.6034578794    0.1072504468   -1.9412415036
     11  H        -2.8095190306    0.1418571303   -0.8771919132
     12  C        -3.6207381579    0.1129605390   -2.9386128408
     13  H        -4.6813627747    0.1457997303   -2.7174175204
     14  C        -3.1170552285    0.0710514394   -4.2115172898
     15  H        -3.6551518912    0.0651473415   -5.1493340561
     16  S        -1.3823300904    0.0254450706   -4.2110582741
   Point Group: c1    Number of degrees of freedom:    42


   Energy is  -1104.840596360

              Constraints and their Current Values
                                        Value     Constraint
   Dihedral:        6   8   9  10     -180.000      180.000
 Hessian Updated using BFGS Update

 35 Hessian modes will be used to form the next step
  Hessian Eigenvalues:
     0.020330    0.045001    0.045003    0.045004    0.045012    0.045624
     0.053866    0.159290    0.159947    0.159991    0.160156    0.160864
     0.221284    0.221796    0.237822    0.248561    0.250030    0.251122
     0.294039    0.294486    0.312477    0.312619    0.354800    0.355054
     0.355129    0.355191    0.358272    0.358371    0.383827    0.404894
     0.411441    0.463581    0.470375    0.497926    0.500071

 Minimum Search - Taking Simple RFO Step
 Searching for Lamda that Minimizes Along All modes
 Value Taken    Lamda =  -0.00000358
 Step Taken.  Stepsize is  0.012038

                             Maximum     Tolerance    Cnvgd?
         Gradient           0.000220      0.000300     YES
         Displacement       0.007755      0.001200      NO
         Energy change     -0.000010      0.000001      NO


 New Cartesian Coordinates Obtained by Inverse Iteration

 Displacement from previous Coordinates is:  0.010034
 ----------------------------------------------------------------
             Standard Nuclear Orientation (Angstroms)
    I     Atom           X                Y                Z
 ----------------------------------------------------------------
    1      S       0.0044957452     0.0729147797     0.0029777654
    2      C       1.7391768816     0.0244960073     0.0035356721
    3      H       2.2769935611     0.0259548725     0.9415540663
    4      C       2.2427916716    -0.0124546087    -1.2695234586
    5      H       3.3033185410    -0.0476966939    -1.4908839775
    6      C       1.2254483252    -0.0026528626    -2.2669368150
    7      H       1.4319965761    -0.0268865180    -3.3311634078
    8      C      -0.0543497418     0.0424742846    -1.7517493478
    9      C      -1.3236784666     0.0628288202    -2.4565669233
   10      C      -2.6034778692     0.1079558585    -1.9413866919
   11      H      -2.8097775737     0.1386654716    -0.8772803894
   12      C      -3.6209286084     0.1132804055    -2.9387295313
   13      H      -4.6815471084     0.1452011015    -2.7173073391
   14      C      -3.1174164198     0.0720238362    -4.2116986117
   15      H      -3.6553450187     0.0654830678    -5.1496286169
   16      S      -1.3826552653     0.0262003877    -4.2111424434
 ----------------------------------------------------------------
 Nuclear Repulsion Energy =   629.0838313100 hartrees
 There are       43 alpha and       43 beta electrons
 Applying Cartesian multipole field
    Component          Value
    ---------          -----
     (2,0,0)        1.00000E-11
     (0,2,0)        2.00000E-11
     (0,0,2)       -3.00000E-12
 Nucleus-field energy     =     0.0000000056 hartrees
 Requested basis set is 6-31++G(d,p)
 There are 76 shells and 234 basis functions
 A cutoff of  1.0D-12 yielded   2529 shell pairs
 There are     24905 function pairs

 Q-Chem warning in module /project/projectdirs/jcesr/qchem/qc44/cnl_qc441/compile/cori/qc_src/libqints/qchem/aobasis.C, line 68:

 Using reconstructed effective core potential

 Smallest overlap matrix eigenvalue = 8.10E-07
 Linear dependence detected in AO basis
 Number of orthogonalized atomic orbitals = 233
 Maximum deviation from orthogonality = 3.545E-11
 Guess MOs from SCF MO coefficient file
 Reading MOs from coefficient file
 Reading MOs from coefficient file
 A restricted hybrid HF-DFT SCF calculation will be
 performed using Pulay DIIS extrapolation
 Exchange:     0.2000 Hartree-Fock + 0.0800 Slater + 0.7200 B88
 Correlation:  0.1900 VWN1RPA + 0.8100 LYP
 Using SG-1 standard quadrature grid
 SCF converges when DIIS error is below 1.0E-08
 Geometry optimization detected.  Setting ReadMinima to 0
 Setting SaveMinima to 0
 ---------------------------------------
  Cycle       Energy         DIIS Error
 ---------------------------------------
    1   -1104.8404154515      1.97E-05
    2   -1104.8405984808      2.24E-06
    3   -1104.8405984916      2.52E-06
    4   -1104.8405985308      8.44E-07
    5   -1104.8405985347      4.01E-07
    6   -1104.8405985366      1.32E-07
    7   -1104.8405985386      3.40E-08
    8   -1104.8405985375      1.57E-08
    9   -1104.8405985384      2.58E-09 Convergence criterion met
 ---------------------------------------
 SCF time:  CPU 4.84 s  wall 4.63 s
 SCF   energy in the final basis set = -1104.8405985384
 Total energy in the final basis set = -1104.8405985384
 
 --------------------------------------------------------------
 
                    Orbital Energies (a.u.)
 --------------------------------------------------------------
 
 Alpha MOs
 -- Occupied --
-88.920 -88.920 -10.240 -10.240 -10.225 -10.225 -10.205 -10.205
-10.204 -10.204  -7.979  -7.979  -5.944  -5.944  -5.940  -5.940
 -5.936  -5.936  -0.901  -0.878  -0.772  -0.750  -0.737  -0.706
 -0.605  -0.582  -0.551  -0.535  -0.528  -0.478  -0.421  -0.419
 -0.408  -0.405  -0.403  -0.379  -0.374  -0.358  -0.343  -0.285
 -0.265  -0.258  -0.211
 -- Virtual --
 -0.060  -0.006  -0.004  -0.000   0.008   0.009   0.017   0.022
  0.032   0.037   0.039   0.041   0.052   0.056   0.062   0.068
  0.074   0.082   0.086   0.094   0.096   0.102   0.106   0.111
  0.116   0.123   0.125   0.131   0.132   0.143   0.144   0.147
  0.149   0.151   0.159   0.167   0.169   0.169   0.185   0.194
  0.194   0.200   0.208   0.209   0.219   0.219   0.227   0.232
  0.250   0.252   0.258   0.270   0.285   0.289   0.294   0.315
  0.322   0.331   0.348   0.355   0.360   0.373   0.397   0.408
  0.455   0.476   0.505   0.511   0.549   0.557   0.572   0.599
  0.609   0.626   0.649   0.649   0.657   0.659   0.662   0.697
  0.710   0.715   0.722   0.729   0.740   0.742   0.780   0.787
  0.814   0.821   0.822   0.845   0.867   0.921   0.938   0.948
  0.949   0.956   0.960   0.969   0.984   0.994   0.999   1.018
  1.028   1.046   1.075   1.109   1.111   1.121   1.148   1.168
  1.175   1.193   1.222   1.259   1.273   1.325   1.340   1.340
  1.350   1.353   1.369   1.475   1.483   1.488   1.547   1.612
  1.670   1.690   1.724   1.801   1.865   1.881   1.895   1.914
  1.926   1.936   1.948   2.008   2.055   2.068   2.072   2.122
  2.174   2.180   2.182   2.214   2.245   2.255   2.341   2.360
  2.363   2.418   2.451   2.459   2.470   2.491   2.509   2.528
  2.540   2.558   2.586   2.613   2.676   2.691   2.717   2.755
  2.867   2.876   2.937   2.939   3.145   3.210   3.268   3.278
  3.400   3.429   3.721   3.743   3.973   3.986   4.234   4.297
  4.312   4.320   4.410   4.536   4.661   4.716
 --------------------------------------------------------------
 
          Ground-State Mulliken Net Atomic Charges

     Atom                 Charge (a.u.)
  ----------------------------------------
      1 S                    -0.157073
      2 C                     0.035834
      3 H                     0.203141
      4 C                    -0.408397
      5 H                     0.122318
      6 C                     0.487644
      7 H                     0.115261
      8 C                    -0.398772
      9 C                    -0.398664
     10 C                     0.487634
     11 H                     0.115261
     12 C                    -0.408369
     13 H                     0.122320
     14 C                     0.035836
     15 H                     0.203142
     16 S                    -0.157117
  ----------------------------------------
  Sum of atomic charges =     0.000000

 -----------------------------------------------------------------
                    Cartesian Multipole Moments
 -----------------------------------------------------------------
    Charge (ESU x 10^10)
                 0.0000
    Dipole Moment (Debye)
         X      -0.0000      Y      -0.0030      Z       0.0000
       Tot       0.0030
    Quadrupole Moments (Debye-Ang)
        XX     -62.2466     XY      -0.3978     YY     -78.9406
        XZ       2.9635     YZ       0.1662     ZZ     -66.9408
    Octopole Moments (Debye-Ang^2)
       XXX     128.6700    XXY      -2.6707    XYY      54.3552
       YYY     -11.9453    XXZ     126.8859    XYZ       0.7790
       YYZ     166.1186    XZZ      33.6572    YZZ      -4.1304
       ZZZ     422.5558
    Hexadecapole Moments (Debye-Ang^3)
      XXXX   -1582.5214   XXXY      11.5127   XXYY    -355.3891
      XYYY      22.6128   YYYY    -105.3763   XXXZ    -605.5138
      XXYZ       5.3975   XYYZ    -259.4425   YYYZ      24.8165
      XXZZ    -684.9824   XYZZ       4.7830   YYZZ    -586.4127
      XZZZ    -559.6598   YZZZ      24.2818   ZZZZ   -2885.4912
 -----------------------------------------------------------------
 Calculating analytic gradient of the SCF energy
 Gradient of SCF Energy
            1           2           3           4           5           6
    1   0.0000386   0.0000353  -0.0000060  -0.0000034  -0.0000024  -0.0000206
    2   0.0000126  -0.0000204  -0.0000175   0.0001152  -0.0000593  -0.0001444
    3   0.0000121   0.0000046   0.0000061  -0.0000095   0.0000035   0.0000236
            7           8           9          10          11          12
    1   0.0000366  -0.0001160   0.0001149   0.0000077  -0.0000244   0.0000115
    2   0.0000747   0.0000457   0.0000265  -0.0001322   0.0000666   0.0001027
    3   0.0000057  -0.0000375   0.0000290  -0.0000165  -0.0000083   0.0000001
           13          14          15          16
    1  -0.0000004  -0.0000442   0.0000064  -0.0000336
    2  -0.0000638  -0.0000178  -0.0000130   0.0000244
    3  -0.0000004  -0.0000101  -0.0000048   0.0000024
 Max gradient component =       1.444E-04
 RMS gradient           =       5.068E-05
 Gradient time:  CPU 2.06 s  wall 2.07 s
 Geometry Optimization Parameters
   NAtoms,    NIC,     NZ,  NCons,   NDum,   NFix, NCnnct, MaxDiis
       16     111       0       1       0       0       0       0

 Cartesian Hessian Update
 Hessian Updated using BFGS Update


** CONSTRAINED OPTIMIZATION IN DELOCALIZED INTERNAL COORDINATES **
   Searching for a Minimum

   Optimization Cycle:   4

                       Coordinates (Angstroms)
     ATOM                X               Y               Z
      1  S         0.0044957452    0.0729147797    0.0029777654
      2  C         1.7391768816    0.0244960073    0.0035356721
      3  H         2.2769935611    0.0259548725    0.9415540663
      4  C         2.2427916716   -0.0124546087   -1.2695234586
      5  H         3.3033185410   -0.0476966939   -1.4908839775
      6  C         1.2254483252   -0.0026528626   -2.2669368150
      7  H         1.4319965761   -0.0268865180   -3.3311634078
      8  C        -0.0543497418    0.0424742846   -1.7517493478
      9  C        -1.3236784666    0.0628288202   -2.4565669233
     10  C        -2.6034778692    0.1079558585   -1.9413866919
     11  H        -2.8097775737    0.1386654716   -0.8772803894
     12  C        -3.6209286084    0.1132804055   -2.9387295313
     13  H        -4.6815471084    0.1452011015   -2.7173073391
     14  C        -3.1174164198    0.0720238362   -4.2116986117
     15  H        -3.6553450187    0.0654830678   -5.1496286169
     16  S        -1.3826552653    0.0262003877   -4.2111424434
   Point Group: c1    Number of degrees of freedom:    42


   Energy is  -1104.840598538

              Constraints and their Current Values
                                        Value     Constraint
   Dihedral:        6   8   9  10     -180.000      180.000
 Hessian Updated using BFGS Update

 41 Hessian modes will be used to form the next step
  Hessian Eigenvalues:
     0.016245    0.045000    0.045000    0.045000    0.045000    0.045001
     0.045002    0.045003    0.045011    0.045013    0.045245    0.050170
     0.159790    0.159948    0.159991    0.160000    0.160072    0.160226
     0.221291    0.222300    0.237863    0.249965    0.250060    0.262334
     0.294309    0.294600    0.312478    0.312635    0.354799    0.355074
     0.355130    0.355242    0.358278    0.358410    0.383216    0.404890
     0.414476    0.463587    0.469810    0.497925    0.500584

 Minimum Search - Taking Simple RFO Step
 Searching for Lamda that Minimizes Along All modes
 Value Taken    Lamda =   0.00000000
 Step Taken.  Stepsize is  0.005620

                             Maximum     Tolerance    Cnvgd?
         Gradient           0.000103      0.000300     YES
         Displacement       0.003038      0.001200      NO
         Energy change     -0.000002      0.000001      NO


 New Cartesian Coordinates Obtained by Inverse Iteration

 Displacement from previous Coordinates is:  0.009119
 ----------------------------------------------------------------
             Standard Nuclear Orientation (Angstroms)
    I     Atom           X                Y                Z
 ----------------------------------------------------------------
    1      S       0.0043057189     0.0730486246     0.0029104170
    2      C       1.7390159464     0.0254214296     0.0034337089
    3      H       2.2768129752     0.0277757694     0.9414570118
    4      C       2.2427309928    -0.0123486723    -1.2695752737
    5      H       3.3032839445    -0.0470345927    -1.4909129330
    6      C       1.2254114910    -0.0032115151    -2.2670220826
    7      H       1.4317000944    -0.0293327005    -3.3312541501
    8      C      -0.0543210476     0.0418825702    -1.7517750667
    9      C      -1.3237186510     0.0622426354    -2.4565444836
   10      C      -2.6034519932     0.1073370425    -1.9412825024
   11      H      -2.8096282589     0.1361824439    -0.8770994870
   12      C      -3.6208521195     0.1134000079    -2.9386652633
   13      H      -4.6814640505     0.1459006333    -2.7172776258
   14      C      -3.1172113447     0.0729491543    -4.2116218471
   15      H      -3.6550960192     0.0672933185    -5.1495806502
   16      S      -1.3824724486     0.0262820611    -4.2111198222
 ----------------------------------------------------------------
 Nuclear Repulsion Energy =   629.0953071056 hartrees
 There are       43 alpha and       43 beta electrons
 Applying Cartesian multipole field
    Component          Value
    ---------          -----
     (2,0,0)        1.00000E-11
     (0,2,0)        2.00000E-11
     (0,0,2)       -3.00000E-12
 Nucleus-field energy     =     0.0000000056 hartrees
 Requested basis set is 6-31++G(d,p)
 There are 76 shells and 234 basis functions
 A cutoff of  1.0D-12 yielded   2529 shell pairs
 There are     24905 function pairs

 Q-Chem warning in module /project/projectdirs/jcesr/qchem/qc44/cnl_qc441/compile/cori/qc_src/libqints/qchem/aobasis.C, line 68:

 Using reconstructed effective core potential

 Smallest overlap matrix eigenvalue = 8.10E-07
 Linear dependence detected in AO basis
 Number of orthogonalized atomic orbitals = 233
 Maximum deviation from orthogonality = 4.422E-11
 Guess MOs from SCF MO coefficient file
 Reading MOs from coefficient file
 Reading MOs from coefficient file
 A restricted hybrid HF-DFT SCF calculation will be
 performed using Pulay DIIS extrapolation
 Exchange:     0.2000 Hartree-Fock + 0.0800 Slater + 0.7200 B88
 Correlation:  0.1900 VWN1RPA + 0.8100 LYP
 Using SG-1 standard quadrature grid
 SCF converges when DIIS error is below 1.0E-08
 Geometry optimization detected.  Setting ReadMinima to 0
 Setting SaveMinima to 0
 ---------------------------------------
  Cycle       Energy         DIIS Error
 ---------------------------------------
    1   -1104.8406421490      2.44E-05
    2   -1104.8405990187      1.55E-06
    3   -1104.8405990174      2.19E-06
    4   -1104.8405990476      6.15E-07
    5   -1104.8405990512      3.13E-07
    6   -1104.8405990521      9.95E-08
    7   -1104.8405990512      2.60E-08
    8   -1104.8405990517      6.86E-09 Convergence criterion met
 ---------------------------------------
 SCF time:  CPU 4.41 s  wall 4.24 s
 SCF   energy in the final basis set = -1104.8405990517
 Total energy in the final basis set = -1104.8405990517
 
 --------------------------------------------------------------
 
                    Orbital Energies (a.u.)
 --------------------------------------------------------------
 
 Alpha MOs
 -- Occupied --
-88.920 -88.920 -10.240 -10.240 -10.225 -10.225 -10.205 -10.205
-10.204 -10.204  -7.979  -7.979  -5.944  -5.944  -5.940  -5.940
 -5.936  -5.936  -0.901  -0.878  -0.772  -0.750  -0.737  -0.706
 -0.605  -0.582  -0.551  -0.535  -0.528  -0.478  -0.421  -0.419
 -0.408  -0.405  -0.403  -0.379  -0.374  -0.358  -0.343  -0.285
 -0.265  -0.258  -0.211
 -- Virtual --
 -0.060  -0.006  -0.004  -0.000   0.008   0.009   0.017   0.022
  0.032   0.037   0.039   0.041   0.052   0.056   0.062   0.068
  0.074   0.082   0.086   0.094   0.096   0.102   0.106   0.111
  0.116   0.123   0.125   0.131   0.132   0.143   0.144   0.147
  0.149   0.151   0.159   0.167   0.169   0.169   0.185   0.194
  0.194   0.200   0.208   0.209   0.219   0.219   0.227   0.232
  0.250   0.252   0.258   0.270   0.285   0.289   0.294   0.315
  0.322   0.331   0.348   0.355   0.360   0.373   0.397   0.408
  0.455   0.476   0.505   0.511   0.550   0.557   0.572   0.599
  0.609   0.626   0.649   0.649   0.657   0.659   0.662   0.697
  0.710   0.715   0.722   0.729   0.740   0.742   0.780   0.787
  0.814   0.821   0.822   0.845   0.867   0.921   0.938   0.948
  0.949   0.956   0.960   0.969   0.984   0.994   0.999   1.018
  1.028   1.046   1.075   1.109   1.111   1.121   1.148   1.168
  1.175   1.193   1.222   1.259   1.273   1.325   1.340   1.340
  1.350   1.353   1.369   1.475   1.483   1.488   1.547   1.612
  1.670   1.690   1.724   1.801   1.865   1.881   1.895   1.914
  1.926   1.936   1.948   2.008   2.055   2.068   2.072   2.122
  2.174   2.180   2.182   2.214   2.245   2.255   2.341   2.360
  2.363   2.418   2.451   2.459   2.470   2.491   2.509   2.528
  2.540   2.558   2.586   2.613   2.676   2.691   2.717   2.755
  2.867   2.876   2.937   2.939   3.145   3.210   3.268   3.278
  3.400   3.429   3.721   3.743   3.973   3.986   4.234   4.297
  4.312   4.320   4.410   4.536   4.661   4.716
 --------------------------------------------------------------
 
          Ground-State Mulliken Net Atomic Charges

     Atom                 Charge (a.u.)
  ----------------------------------------
      1 S                    -0.157148
      2 C                     0.035673
      3 H                     0.203124
      4 C                    -0.408145
      5 H                     0.122322
      6 C                     0.487674
      7 H                     0.115250
      8 C                    -0.398759
      9 C                    -0.398704
     10 C                     0.487624
     11 H                     0.115249
     12 C                    -0.408115
     13 H                     0.122324
     14 C                     0.035662
     15 H                     0.203123
     16 S                    -0.157154
  ----------------------------------------
  Sum of atomic charges =     0.000000

 -----------------------------------------------------------------
                    Cartesian Multipole Moments
 -----------------------------------------------------------------
    Charge (ESU x 10^10)
                 0.0000
    Dipole Moment (Debye)
         X      -0.0001      Y      -0.0036      Z       0.0000
       Tot       0.0036
    Quadrupole Moments (Debye-Ang)
        XX     -62.2495     XY      -0.3975     YY     -78.9405
        XZ       2.9607     YZ       0.1675     ZZ     -66.9400
    Octopole Moments (Debye-Ang^2)
       XXX     128.6769    XXY      -2.6500    XYY      54.3553
       YYY     -11.9519    XXZ     126.8985    XYZ       0.8173
       YYZ     166.1176    XZZ      33.6678    YZZ      -4.1177
       ZZZ     422.5519
    Hexadecapole Moments (Debye-Ang^3)
      XXXX   -1582.4234   XXXY      11.4655   XXYY    -355.3611
      XYYY      22.6146   YYYY    -105.3764   XXXZ    -605.5071
      XXYZ       5.2993   XYYZ    -259.4151   YYYZ      24.8263
      XXZZ    -685.0229   XYZZ       4.6092   YYZZ    -586.3959
      XZZZ    -559.6548   YZZZ      24.1871   ZZZZ   -2885.4157
 -----------------------------------------------------------------
 Calculating analytic gradient of the SCF energy
 Gradient of SCF Energy
            1           2           3           4           5           6
    1  -0.0000090   0.0000095  -0.0000114   0.0000015  -0.0000003  -0.0000147
    2  -0.0000294   0.0000103  -0.0000104   0.0000567  -0.0000398  -0.0000446
    3   0.0000286  -0.0000128   0.0000041  -0.0000121  -0.0000048   0.0000103
            7           8           9          10          11          12
    1   0.0000162  -0.0000200   0.0000252   0.0000030  -0.0000126   0.0000042
    2   0.0000143   0.0000485   0.0000441  -0.0000458   0.0000074   0.0000512
    3   0.0000012  -0.0000267   0.0000172  -0.0000065  -0.0000013   0.0000093
           13          14          15          16
    1  -0.0000020  -0.0000102   0.0000113   0.0000092
    2  -0.0000437   0.0000131  -0.0000072  -0.0000246
    3   0.0000071   0.0000126  -0.0000039  -0.0000223
 Max gradient component =       5.668E-05
 RMS gradient           =       2.298E-05
 Gradient time:  CPU 2.13 s  wall 2.07 s
 Geometry Optimization Parameters
   NAtoms,    NIC,     NZ,  NCons,   NDum,   NFix, NCnnct, MaxDiis
       16     111       0       1       0       0       0       0

 Cartesian Hessian Update
 Hessian Updated using BFGS Update


** CONSTRAINED OPTIMIZATION IN DELOCALIZED INTERNAL COORDINATES **
   Searching for a Minimum

   Optimization Cycle:   5

                       Coordinates (Angstroms)
     ATOM                X               Y               Z
      1  S         0.0043057189    0.0730486246    0.0029104170
      2  C         1.7390159464    0.0254214296    0.0034337089
      3  H         2.2768129752    0.0277757694    0.9414570118
      4  C         2.2427309928   -0.0123486723   -1.2695752737
      5  H         3.3032839445   -0.0470345927   -1.4909129330
      6  C         1.2254114910   -0.0032115151   -2.2670220826
      7  H         1.4317000944   -0.0293327005   -3.3312541501
      8  C        -0.0543210476    0.0418825702   -1.7517750667
      9  C        -1.3237186510    0.0622426354   -2.4565444836
     10  C        -2.6034519932    0.1073370425   -1.9412825024
     11  H        -2.8096282589    0.1361824439   -0.8770994870
     12  C        -3.6208521195    0.1134000079   -2.9386652633
     13  H        -4.6814640505    0.1459006333   -2.7172776258
     14  C        -3.1172113447    0.0729491543   -4.2116218471
     15  H        -3.6550960192    0.0672933185   -5.1495806502
     16  S        -1.3824724486    0.0262820611   -4.2111198222
   Point Group: c1    Number of degrees of freedom:    42


   Energy is  -1104.840599052

              Constraints and their Current Values
                                        Value     Constraint
   Dihedral:        6   8   9  10     -180.000      180.000
 Hessian Updated using BFGS Update

 39 Hessian modes will be used to form the next step
  Hessian Eigenvalues:
     0.013754    0.033832    0.045000    0.045000    0.045002    0.045003
     0.045004    0.045011    0.045300    0.054934    0.155983    0.159947
     0.159992    0.160000    0.160082    0.160946    0.221289    0.222951
     0.237870    0.250019    0.250262    0.273014    0.293070    0.294422
     0.312567    0.313182    0.354799    0.355120    0.355144    0.355236
     0.358278    0.358465    0.382513    0.404890    0.417551    0.463594
     0.472523    0.497927    0.501474

 Minimum Search - Taking Simple RFO Step
 Searching for Lamda that Minimizes Along All modes
 Value Taken    Lamda =   0.00000000
 Step Taken.  Stepsize is  0.003449

                             Maximum     Tolerance    Cnvgd?
         Gradient           0.000054      0.000300     YES
         Displacement       0.002313      0.001200      NO
         Energy change     -0.000001      0.000001     YES

 Final energy is   -1104.84059905175     


 ******************************
 **  OPTIMIZATION CONVERGED  **
 ******************************

                       Coordinates (Angstroms)
     ATOM                X               Y               Z
      1  S         0.0043057189    0.0730486246    0.0029104170
      2  C         1.7390159464    0.0254214296    0.0034337089
      3  H         2.2768129752    0.0277757694    0.9414570118
      4  C         2.2427309928   -0.0123486723   -1.2695752737
      5  H         3.3032839445   -0.0470345927   -1.4909129330
      6  C         1.2254114910   -0.0032115151   -2.2670220826
      7  H         1.4317000944   -0.0293327005   -3.3312541501
      8  C        -0.0543210476    0.0418825702   -1.7517750667
      9  C        -1.3237186510    0.0622426354   -2.4565444836
     10  C        -2.6034519932    0.1073370425   -1.9412825024
     11  H        -2.8096282589    0.1361824439   -0.8770994870
     12  C        -3.6208521195    0.1134000079   -2.9386652633
     13  H        -4.6814640505    0.1459006333   -2.7172776258
     14  C        -3.1172113447    0.0729491543   -4.2116218471
     15  H        -3.6550960192    0.0672933185   -5.1495806502
     16  S        -1.3824724486    0.0262820611   -4.2111198222

Z-matrix Print:
$molecule
0 1
S 
C  1 1.735367
H  2 1.081258 1 119.827627
C  2 1.369565 1 111.600341 3 179.981146 0
H  4 1.083959 2 123.403773 1 -179.954685 0
C  4 1.424750 2 112.826156 1 0.010334 0
H  6 1.084355 4 123.444533 2 179.951004 0
C  6 1.380306 4 113.633003 2 0.002160 0
C  8 1.452062 6 129.034092 4 -179.930418 0
C  9 1.380300 8 129.034655 6 -180.000000 0
H  10 1.084356 9 122.923970 8 0.051205 0
C  10 1.424754 9 113.633580 8 -179.934562 0
H  12 1.083959 10 123.770417 9 179.922515 0
C  12 1.369565 10 112.826071 9 0.013397 0
H  14 1.081258 12 128.571823 10 179.963165 0
S  14 1.735364 12 111.600344 10 -0.001904 0
$end

 
 --------------------------------------------------------------
 
                    Orbital Energies (a.u.)
 --------------------------------------------------------------
 
 Alpha MOs
 -- Occupied --
-88.920 -88.920 -10.240 -10.240 -10.225 -10.225 -10.205 -10.205
-10.204 -10.204  -7.979  -7.979  -5.944  -5.944  -5.940  -5.940
 -5.936  -5.936  -0.901  -0.878  -0.772  -0.750  -0.737  -0.706
 -0.605  -0.582  -0.551  -0.535  -0.528  -0.478  -0.421  -0.419
 -0.408  -0.405  -0.403  -0.379  -0.374  -0.358  -0.343  -0.285
 -0.265  -0.258  -0.211
 -- Virtual --
 -0.060  -0.006  -0.004  -0.000   0.008   0.009   0.017   0.022
  0.032   0.037   0.039   0.041   0.052   0.056   0.062   0.068
  0.074   0.082   0.086   0.094   0.096   0.102   0.106   0.111
  0.116   0.123   0.125   0.131   0.132   0.143   0.144   0.147
  0.149   0.151   0.159   0.167   0.169   0.169   0.185   0.194
  0.194   0.200   0.208   0.209   0.219   0.219   0.227   0.232
  0.250   0.252   0.258   0.270   0.285   0.289   0.294   0.315
  0.322   0.331   0.348   0.355   0.360   0.373   0.397   0.408
  0.455   0.476   0.505   0.511   0.550   0.557   0.572   0.599
  0.609   0.626   0.649   0.649   0.657   0.659   0.662   0.697
  0.710   0.715   0.722   0.729   0.740   0.742   0.780   0.787
  0.814   0.821   0.822   0.845   0.867   0.921   0.938   0.948
  0.949   0.956   0.960   0.969   0.984   0.994   0.999   1.018
  1.028   1.046   1.075   1.109   1.111   1.121   1.148   1.168
  1.175   1.193   1.222   1.259   1.273   1.325   1.340   1.340
  1.350   1.353   1.369   1.475   1.483   1.488   1.547   1.612
  1.670   1.690   1.724   1.801   1.865   1.881   1.895   1.914
  1.926   1.936   1.948   2.008   2.055   2.068   2.072   2.122
  2.174   2.180   2.182   2.214   2.245   2.255   2.341   2.360
  2.363   2.418   2.451   2.459   2.470   2.491   2.509   2.528
  2.540   2.558   2.586   2.613   2.676   2.691   2.717   2.755
  2.867   2.876   2.937   2.939   3.145   3.210   3.268   3.278
  3.400   3.429   3.721   3.743   3.973   3.986   4.234   4.297
  4.312   4.320   4.410   4.536   4.661   4.716
 --------------------------------------------------------------
 
          Ground-State Mulliken Net Atomic Charges

     Atom                 Charge (a.u.)
  ----------------------------------------
      1 S                    -0.157148
      2 C                     0.035673
      3 H                     0.203124
      4 C                    -0.408145
      5 H                     0.122322
      6 C                     0.487674
      7 H                     0.115250
      8 C                    -0.398759
      9 C                    -0.398704
     10 C                     0.487624
     11 H                     0.115249
     12 C                    -0.408115
     13 H                     0.122324
     14 C                     0.035662
     15 H                     0.203123
     16 S                    -0.157154
  ----------------------------------------
  Sum of atomic charges =     0.000000

 -----------------------------------------------------------------
                    Cartesian Multipole Moments
 -----------------------------------------------------------------
    Charge (ESU x 10^10)
                 0.0000
    Dipole Moment (Debye)
         X      -0.0001      Y      -0.0036      Z       0.0000
       Tot       0.0036
    Quadrupole Moments (Debye-Ang)
        XX     -62.2495     XY      -0.3975     YY     -78.9405
        XZ       2.9607     YZ       0.1675     ZZ     -66.9400
    Octopole Moments (Debye-Ang^2)
       XXX     128.6769    XXY      -2.6500    XYY      54.3553
       YYY     -11.9519    XXZ     126.8985    XYZ       0.8173
       YYZ     166.1176    XZZ      33.6678    YZZ      -4.1177
       ZZZ     422.5519
    Hexadecapole Moments (Debye-Ang^3)
      XXXX   -1582.4234   XXXY      11.4655   XXYY    -355.3611
      XYYY      22.6146   YYYY    -105.3764   XXXZ    -605.5071
      XXYZ       5.2993   XYYZ    -259.4151   YYYZ      24.8263
      XXZZ    -685.0229   XYZZ       4.6092   YYZZ    -586.3959
      XZZZ    -559.6548   YZZZ      24.1871   ZZZZ   -2885.4157
 -----------------------------------------------------------------
Archival summary:
1\1\nid00474\OPT\ProcedureUnspecified\BasisUnspecified\286\bwood\WedMay3102:25:262017WedMay3102:25:262017\0\\#,OPT,ProcedureUnspecified,BasisUnspecified,\\0,1\S\C,1,1.73537\H,2,1.08126,1,119.828\C,2,1.36957,1,111.6,3,179.981,0\H,4,1.08396,2,123.404,1,-179.955,0\C,4,1.42475,2,112.826,1,0.0103337,0\H,6,1.08436,4,123.445,2,179.951,0\C,6,1.38031,4,113.633,2,0.00216033,0\C,8,1.45206,6,129.034,4,-179.93,0\C,9,1.3803,8,129.035,6,-180,0\H,10,1.08436,9,122.924,8,0.0512053,0\C,10,1.42475,9,113.634,8,-179.935,0\H,12,1.08396,10,123.77,9,179.923,0\C,12,1.36956,10,112.826,9,0.0133971,0\H,14,1.08126,12,128.572,10,179.963,0\S,14,1.73536,12,111.6,10,-0.00190359,0\\\@

 Total job time:  39.41s(wall), 39.06s(cpu) 
 Wed May 31 02:25:26 2017

        *************************************************************
        *                                                           *
        *  Thank you very much for using Q-Chem.  Have a nice day.  *
        *                                                           *
        *************************************************************


0 sent ACK to 0 
now end server 0 ... 
