srun -N 1 --ntasks-per-node 16 --cpus-per-task 4 --cpu_bind=cores --nodelist nid00468 /global/project/projectdirs/jcesr/qchem/qc44/cnl_qc441/dist/exe/qcprog.cori.haswell.exe .pt_n2_neutral_160.0.in.49134.qcin.1 /global/cscratch1/sd/bwood/qchem/nx/qchem49134/
Process 1 of 16 is on nid00468 - thread support 0
Process 3 of 16 is on nid00468 - thread support 0
Process 4 of 16 is on nid00468 - thread support 0
Process 5 of 16 is on nid00468 - thread support 0
Process 6 of 16 is on nid00468 - thread support 0
Process 0 of 16 is on nid00468 - thread support 0
initial socket setup ...start
Process 2 of 16 is on nid00468 - thread support 0
Process 15 of 16 is on nid00468 - thread support 0
initial socket setup ...done 
now start server 0 ... 
nid00468 10.128.1
Q-Chem Developer Version! Running on 10.128.1.*
                  Welcome to Q-Chem
     A Quantum Leap Into The Future Of Chemistry


 Q-Chem 4.4, Q-Chem, Inc., Pleasanton, CA (2016)

 Y. Shao,  Z. Gan,  E. Epifanovsky,  A. T. B. Gilbert,  M. Wormit,  
 J. Kussmann,  A. W. Lange,  A. Behn,  J. Deng,  X. Feng,  D. Ghosh,  
 M. Goldey,  P. R. Horn,  L. D. Jacobson,  I. Kaliman,  F. Rob,  
 R. Z. Khaliullin,  T. Kus,  A. Landau,  J. Liu,  E. I. Proynov,  Y. M. Rhee,  
 R. M. Richard,  M. A. Rohrdanz,  R. P. Steele,  E. J. Sundstrom,  
 H. L. Woodcock III,  P. M. Zimmerman,  D. Zuev,  B. Albrecht,  E. Alguire,  
 B. Austin,  S. A. Baeppler,  G. J. O. Beran,  Y. A. Bernard,  
 E. J. Berquist,  K. Brandhorst,  K. B. Bravaya,  S. T. Brown,  D. Casanova,  
 C.-M. Chang,  Y. Chen,  S. H. Chien,  K. D. Closser,  M. P. Coons,  
 D. L. Crittenden,  S. Dasgupta,  M. Diedenhofen,  R. A. DiStasio Jr.,  
 H. Do,  A. D. Dutoi,  R. G. Edgar,  P.-T. Fang,  S. Fatehi,  Q. Feng,  
 L. Fusti-Molnar,  A. Ghysels,  A. Golubeva-Zadorozhnaya,  J. Gomes,  
 A. Gunina,  M. W. D. Hanson-Heine,  P. H. P. Harbach,  A. W. Hauser,  
 J. E. Herr,  E. G. Hohenstein,  Z. C. Holden,  K. Hui,  T.-C. Jagau,  H. Ji,  
 B. Kaduk,  K. Khistyaev,  Jaehoon Kim,  Jihan Kim,  R. A. King,  
 P. Klunzinger,  K. Koh,  D. Kosenkov,  T. Kowalczyk,  C. M. Krauter,  
 A. Kunitsa,  K. U. Lao,  A. Laurent,  K. V. Lawler,  J. Lee,  D. Lefrancois,  
 S. Lehtola,  S. V. Levchenko,  C. Y. Lin,  Y.-S. Lin,  F. Liu,  E. Livshits,  
 R. C. Lochan,  A. Luenser,  P. Manohar,  S. F. Manzer,  S.-P. Mao,  Y. Mao,  
 N. Mardirossian,  A. V. Marenich,  L. A. Martinez-Martinez,  S. A. Maurer,  
 N. J. Mayhall,  J.-M. Mewes,  A. F. Morrison,  K. Nanda,  T. S. Nguyen-Beck,  
 C. M. Oana,  R. Olivares-Amaya,  D. P. O'Neill,  J. A. Parkhill,  
 T. M. Perrine,  R. Peverati,  P. A. Pieniazek,  F. Plasser,  A. Prociuk,  
 D. R. Rehn,  E. Rosta,  N. J. Russ,  N. Sergueev,  S. M. Sharada,  
 S. Sharma,  D. W. Small,  A. Sodt,  T. Stauch,  T. Stein,  D. Stuck,  
 Y.-C. Su,  A. J. W. Thom,  T. Tsuchimochi,  L. Vogt,  O. Vydrov,  T. Wang,  
 M. A. Watson,  J. Wenzel,  A. White,  C. F. Williams,  V. Vanovschi,  
 K. Yao,  S. Yeganeh,  S. R. Yost,  Z.-Q. You,  I. Y. Zhang,  X. Zhang,  
 Y. Zhao,  B. R. Brooks,  G. K. L. Chan,  D. M. Chipman,  C. J. Cramer,  
 W. A. Goddard III,  M. S. Gordon,  W. J. Hehre,  A. Klamt,  
 H. F. Schaefer III,  M. W. Schmidt,  C. D. Sherrill,  D. G. Truhlar,  
 A. Warshel,  X. Xu,  A. Aspuru-Guzik,  R. Baer,  A. T. Bell,  N. A. Besley,  
 J.-D. Chai,  A. Dreuw,  B. D. Dunietz,  T. R. Furlani,  S. R. Gwaltney,  
 C.-P. Hsu,  Y. Jung,  J. Kong,  D. S. Lambrecht,  W. Liang,  C. Ochsenfeld,  
 V. A. Rassolov,  L. V. Slipchenko,  J. E. Subotnik,  T. Van Voorhis,  
 J. M. Herbert,  A. I. Krylov,  P. M. W. Gill,  M. Head-Gordon

 Contributors to earlier versions of Q-Chem not listed above: 
 R. D. Adamson,  J. Baker,  E. F. C. Byrd,  A. K. Chakraborty,  C.-L. Cheng,  
 H. Dachsel,  R. J. Doerksen,  G. Hawkins,  A. Heyden,  S. Hirata,  
 G. Kedziora,  F. J. Keil,  C. Kelley,  P. P. Korambath,  W. Kurlancheek,  
 A. M. Lee,  M. S. Lee,  D. Liotard,  I. Lotan,  P. E. Maslen,  N. Nair,  
 D. Neuhauser,  R. Olson,  B. Peters,  J. Ritchie,  N. E. Schultz,  
 N. Shenvi,  A. C. Simmonett,  K. S. Thanthiriwatte,  Q. Wu,  W. Zhang

 Please cite Q-Chem as follows:
 Y. Shao et al., Mol. Phys. 113, 184-215 (2015)
 DOI: 10.1080/00268976.2014.952696

 Q-Chem 4.4.2 for Intel X86 EM64T Linux

 Parts of Q-Chem use Armadillo 5.200.1 (Boston Tea Smuggler).
 http://arma.sourceforge.net/

 Q-Chem begins on Wed May 31 02:24:49 2017  

Host: nid00447
0

     Scratch files written to /global/cscratch1/sd/bwood/qchem/nx/qchem49134.0//
 Parallel job on  16  processors

Checking the input file for inconsistencies... 	...done.

--------------------------------------------------------------
User input:
--------------------------------------------------------------
$molecule
 0  1
 S           0.00238887        0.06077275        0.00183269
 C           1.73707619        0.03315849        0.00323229
 H           2.27612737        0.05289032        0.94042557
 C           2.24169204       -0.01546201       -1.26965798
 H           3.30285780       -0.04005365       -1.48972496
 C           1.22479222       -0.01612968       -2.26811464
 H           1.42674790       -0.02650987       -3.33334501
 C          -0.05393771        0.02880388       -1.75170966
 C          -1.32450815        0.04889988       -2.45636342
 C          -2.58176614       -0.27476454       -1.98883577
 H          -2.76565983       -0.58584297       -0.96647018
 C          -3.60757867       -0.12761923       -2.96706971
 H          -4.65570196       -0.32840528       -2.77676159
 C          -3.13135054        0.30856869       -4.17540784
 H          -3.68385711        0.51167586       -5.08258215
 S          -1.41115736        0.53071469       -4.14191324
$end


$rem
         jobtype = opt
        exchange = b3lyp
           basis = 6-31++g**
  max_scf_cycles = 150
      mem_static = 775
       mem_total = 7750
      sym_ignore = true
        symmetry = false
          thresh = 12
$end


$opt
CONSTRAINT
tors 6 8 9 10 160.0
ENDCONSTRAINT
$end

--------------------------------------------------------------
 ----------------------------------------------------------------
             Standard Nuclear Orientation (Angstroms)
    I     Atom           X                Y                Z
 ----------------------------------------------------------------
    1      S       0.0023888700     0.0607727500     0.0018326900
    2      C       1.7370761900     0.0331584900     0.0032322900
    3      H       2.2761273700     0.0528903200     0.9404255700
    4      C       2.2416920400    -0.0154620100    -1.2696579800
    5      H       3.3028578000    -0.0400536500    -1.4897249600
    6      C       1.2247922200    -0.0161296800    -2.2681146400
    7      H       1.4267479000    -0.0265098700    -3.3333450100
    8      C      -0.0539377100     0.0288038800    -1.7517096600
    9      C      -1.3245081500     0.0488998800    -2.4563634200
   10      C      -2.5817661400    -0.2747645400    -1.9888357700
   11      H      -2.7656598300    -0.5858429700    -0.9664701800
   12      C      -3.6075786700    -0.1276192300    -2.9670697100
   13      H      -4.6557019600    -0.3284052800    -2.7767615900
   14      C      -3.1313505400     0.3085686900    -4.1754078400
   15      H      -3.6838571100     0.5116758600    -5.0825821500
   16      S      -1.4111573600     0.5307146900    -4.1419132400
 ----------------------------------------------------------------
 Nuclear Repulsion Energy =   629.0851584503 hartrees
 There are       43 alpha and       43 beta electrons
 Requested basis set is 6-31++G(d,p)
 There are 76 shells and 234 basis functions

 Total QAlloc Memory Limit   7750 MB
 Mega-Array Size       758 MB
 MEM_STATIC part       775 MB
 A cutoff of  1.0D-12 yielded   2529 shell pairs
 There are     24905 function pairs

 Q-Chem warning in module /project/projectdirs/jcesr/qchem/qc44/cnl_qc441/compile/cori/qc_src/libqints/qchem/aobasis.C, line 68:

 Using reconstructed effective core potential

 
 -------------------------------------------------------
 OpenMP Integral Computing Module                       
 Release: version 1.0, May 2013, Q-Chem Inc. Pittsburgh 
 -------------------------------------------------------
 Integral Job Info:
 Integral job number is                      11
 Integral operator is                         1
 short-range coefficients                     0
 long-range coefficients              100000000
 Omega coefficients                           0
 if combine SR and LR in K                    0
 Integral screening is                        0
 Integral computing path is                   2
 max size of driver memory is            800000
 size of driver memory is                593474
 size of scratch memory is             15166112
 max col of scratch BK array               1296
 max len of scratch array in speh3          155
 max len of scratch index in speh4           18
 max int batch size is                      520
 min int batch size is                       52
 fixed nKL is                                52
 max L of basis functions is                  2
 order of int derivative is                   0
 number of shells is                         76
 number of basis is                         234
 number of cartesian basis is               234
 number of contracted shell pairs          2529
 number of primitive shell pairs           8260
 maxK2 (contraction) of shell pair           36
 max number of K2 of shell pair               1
 max number of CS2 of shell pair            266
 max number of PS2 of shell pair           1524
 mem total for path MDJ                   51992
 -------------------------------------------------------
 Smallest overlap matrix eigenvalue = 9.60E-07
 Linear dependence detected in AO basis
 Number of orthogonalized atomic orbitals = 233
 Maximum deviation from orthogonality = 2.059E-11

 Scale SEOQF with 1.000000e-01/1.000000e-01/1.000000e-01

 Standard Electronic Orientation quadrupole field applied
 Nucleus-field energy     =    -0.0000000517 hartrees
 Guess from superposition of atomic densities
 Warning:  Energy on first SCF cycle will be non-variational
 A restricted hybrid HF-DFT SCF calculation will be
 performed using Pulay DIIS extrapolation
 Exchange:     0.2000 Hartree-Fock + 0.0800 Slater + 0.7200 B88
 Correlation:  0.1900 VWN1RPA + 0.8100 LYP
 Using SG-1 standard quadrature grid
 SCF converges when DIIS error is below 1.0E-08
 ---------------------------------------
  Cycle       Energy         DIIS Error
 ---------------------------------------
    1   -1107.1906788125      4.42E-02
    2   -1104.6763071336      4.61E-03
    3   -1104.4851485148      6.66E-03
    4   -1104.8353942614      7.97E-04
    5   -1104.8391199195      4.48E-04
    6   -1104.8404514754      1.28E-04
    7   -1104.8405409540      6.76E-05
    8   -1104.8405729107      1.28E-05
    9   -1104.8405741978      2.19E-06
   10   -1104.8405742255      1.22E-06
   11   -1104.8405742357      3.93E-07
   12   -1104.8405742369      1.70E-07
   13   -1104.8405742361      2.27E-08
   14   -1104.8405742371      1.38E-08
   15   -1104.8405742372      3.38E-09 Convergence criterion met
 ---------------------------------------
 SCF time:  CPU 8.56 s  wall 8.18 s
 SCF   energy in the final basis set = -1104.8405742372
 Total energy in the final basis set = -1104.8405742372
 
 --------------------------------------------------------------
 
                    Orbital Energies (a.u.)
 --------------------------------------------------------------
 
 Alpha MOs
 -- Occupied --
-88.920 -88.920 -10.239 -10.239 -10.225 -10.225 -10.205 -10.205
-10.203 -10.203  -7.979  -7.979  -5.944  -5.944  -5.940  -5.940
 -5.936  -5.936  -0.900  -0.878  -0.772  -0.749  -0.737  -0.706
 -0.604  -0.581  -0.552  -0.534  -0.527  -0.478  -0.420  -0.418
 -0.408  -0.405  -0.401  -0.378  -0.374  -0.358  -0.344  -0.282
 -0.264  -0.259  -0.213
 -- Virtual --
 -0.058  -0.006  -0.005  -0.002   0.007   0.009   0.017   0.022
  0.031   0.035   0.037   0.048   0.049   0.054   0.060   0.064
  0.074   0.083   0.085   0.096   0.098   0.102   0.107   0.110
  0.120   0.125   0.126   0.132   0.132   0.140   0.141   0.141
  0.148   0.157   0.161   0.166   0.169   0.174   0.180   0.186
  0.187   0.201   0.207   0.211   0.219   0.219   0.223   0.226
  0.252   0.256   0.257   0.265   0.265   0.278   0.284   0.301
  0.317   0.321   0.343   0.349   0.351   0.373   0.391   0.406
  0.454   0.464   0.513   0.516   0.542   0.550   0.566   0.586
  0.609   0.614   0.632   0.649   0.656   0.658   0.668   0.681
  0.699   0.718   0.727   0.727   0.742   0.747   0.774   0.785
  0.816   0.819   0.827   0.847   0.866   0.919   0.938   0.949
  0.951   0.954   0.960   0.968   0.982   0.992   0.995   1.018
  1.030   1.040   1.065   1.097   1.106   1.117   1.146   1.157
  1.169   1.180   1.202   1.256   1.259   1.318   1.344   1.345
  1.352   1.356   1.374   1.458   1.473   1.503   1.533   1.590
  1.679   1.692   1.731   1.800   1.862   1.872   1.884   1.916
  1.920   1.937   1.963   2.008   2.050   2.068   2.084   2.118
  2.167   2.178   2.181   2.225   2.239   2.256   2.337   2.362
  2.367   2.417   2.452   2.455   2.469   2.490   2.509   2.524
  2.530   2.566   2.585   2.607   2.665   2.692   2.718   2.749
  2.859   2.869   2.925   2.934   3.145   3.205   3.268   3.273
  3.399   3.427   3.721   3.743   3.973   3.980   4.239   4.295
  4.306   4.319   4.411   4.533   4.658   4.715
 --------------------------------------------------------------
 
          Ground-State Mulliken Net Atomic Charges

     Atom                 Charge (a.u.)
  ----------------------------------------
      1 S                    -0.102987
      2 C                     0.012083
      3 H                     0.196691
      4 C                    -0.341418
      5 H                     0.120135
      6 C                     0.342539
      7 H                     0.120554
      8 C                    -0.346669
      9 C                    -0.348516
     10 C                     0.341104
     11 H                     0.120831
     12 C                    -0.340785
     13 H                     0.120052
     14 C                     0.012011
     15 H                     0.196676
     16 S                    -0.102300
  ----------------------------------------
  Sum of atomic charges =     0.000000

 -----------------------------------------------------------------
                    Cartesian Multipole Moments
 -----------------------------------------------------------------
    Charge (ESU x 10^10)
                 0.0000
    Dipole Moment (Debye)
         X       0.0068      Y      -0.1239      Z      -0.0164
       Tot       0.1252
    Quadrupole Moments (Debye-Ang)
        XX     -62.3505     XY       0.6039     YY     -78.4502
        XZ       3.1646     YZ      -1.0739     ZZ     -67.2195
    Octopole Moments (Debye-Ang^2)
       XXX     130.1761    XXY     -10.3061    XYY      52.9345
       YYY     -22.6875    XXZ     125.3589    XYZ       3.9692
       YYZ     163.7836    XZZ      34.2182    YZZ       1.8682
       ZZZ     424.3038
    Hexadecapole Moments (Debye-Ang^3)
      XXXX   -1587.5709   XXXY      39.0596   XXYY    -353.8303
      XYYY      25.4145   YYYY    -136.4606   XXXZ    -603.4508
      XXYZ      22.1533   XYYZ    -254.4967   YYYZ      98.6952
      XXZZ    -676.4780   XYZZ     -23.2527   YYZZ    -574.0845
      XZZZ    -571.5143   YZZZ      37.8333   ZZZZ   -2872.9899
 -----------------------------------------------------------------
 Calculating analytic gradient of the SCF energy
 Gradient of SCF Energy
            1           2           3           4           5           6
    1  -0.0000129  -0.0002018   0.0000590  -0.0000399   0.0000211   0.0000214
    2  -0.0014748   0.0016253   0.0006194  -0.0015347   0.0000712  -0.0021697
    3  -0.0000598   0.0001679  -0.0000158  -0.0000290   0.0000026  -0.0001629
            7           8           9          10          11          12
    1  -0.0001366   0.0002382  -0.0004207   0.0002522  -0.0000171   0.0001668
    2   0.0014210   0.0015076   0.0013437  -0.0021712   0.0012803  -0.0014133
    3  -0.0000161   0.0002057   0.0002227  -0.0004674   0.0003846  -0.0003111
           13          14          15          16
    1  -0.0000025   0.0000511  -0.0001283   0.0001499
    2   0.0000542   0.0017253   0.0005878  -0.0014723
    3   0.0000030   0.0002487   0.0001847  -0.0003579
 Max gradient component =       2.171E-03
 RMS gradient           =       8.352E-04
 Gradient time:  CPU 2.07 s  wall 2.09 s
 Geometry Optimization Parameters
   NAtoms,    NIC,     NZ,  NCons,   NDum,   NFix, NCnnct, MaxDiis
       16     111       0       1       0       0       0       0


** CONSTRAINED OPTIMIZATION IN DELOCALIZED INTERNAL COORDINATES **
   Searching for a Minimum

   Optimization Cycle:   1

                       Coordinates (Angstroms)
     ATOM                X               Y               Z
      1  S         0.0023888700    0.0607727500    0.0018326900
      2  C         1.7370761900    0.0331584900    0.0032322900
      3  H         2.2761273700    0.0528903200    0.9404255700
      4  C         2.2416920400   -0.0154620100   -1.2696579800
      5  H         3.3028578000   -0.0400536500   -1.4897249600
      6  C         1.2247922200   -0.0161296800   -2.2681146400
      7  H         1.4267479000   -0.0265098700   -3.3333450100
      8  C        -0.0539377100    0.0288038800   -1.7517096600
      9  C        -1.3245081500    0.0488998800   -2.4563634200
     10  C        -2.5817661400   -0.2747645400   -1.9888357700
     11  H        -2.7656598300   -0.5858429700   -0.9664701800
     12  C        -3.6075786700   -0.1276192300   -2.9670697100
     13  H        -4.6557019600   -0.3284052800   -2.7767615900
     14  C        -3.1313505400    0.3085686900   -4.1754078400
     15  H        -3.6838571100    0.5116758600   -5.0825821500
     16  S        -1.4111573600    0.5307146900   -4.1419132400
   Point Group: c1    Number of degrees of freedom:    42


   Energy is  -1104.840574237

              Constraints and their Current Values
                                        Value     Constraint
   Dihedral:        6   8   9  10      160.000      160.000

 Attempting to Generate Delocalized Internal Coordinates

 41 Hessian modes will be used to form the next step
  Hessian Eigenvalues:
     0.045000    0.045000    0.045000    0.045000    0.045000    0.045000
     0.045002    0.045002    0.045003    0.045004    0.045011    0.045012
     0.159943    0.159949    0.159991    0.159992    0.160000    0.160000
     0.221282    0.221282    0.237835    0.237839    0.250000    0.250000
     0.294264    0.294663    0.312518    0.312618    0.354736    0.354850
     0.355125    0.355132    0.358226    0.358329    0.378510    0.404854
     0.404909    0.463547    0.463616    0.497922    0.497945

 Minimum Search - Taking Simple RFO Step
 Searching for Lamda that Minimizes Along All modes
 Value Taken    Lamda =  -0.00031012
 Step Taken.  Stepsize is  0.082543

                             Maximum     Tolerance    Cnvgd?
         Gradient           0.002847      0.000300      NO
         Displacement       0.062969      0.001200      NO
         Energy change     *********      0.000001      NO


 New Cartesian Coordinates Obtained by Inverse Iteration

 Displacement from previous Coordinates is:  0.137596
 ----------------------------------------------------------------
             Standard Nuclear Orientation (Angstroms)
    I     Atom           X                Y                Z
 ----------------------------------------------------------------
    1      S       0.0044444389     0.0778024988     0.0033302249
    2      C       1.7385056487     0.0183955107     0.0032019393
    3      H       2.2779179428     0.0150150865     0.9403434501
    4      C       2.2418967399    -0.0120078046    -1.2704811597
    5      H       3.3024666809    -0.0478075250    -1.4917419629
    6      C       1.2239869914    -0.0002872609    -2.2677481003
    7      H       1.4257336942    -0.0192183283    -3.3329352879
    8      C      -0.0544705507     0.0445941174    -1.7502763820
    9      C      -1.3258373565     0.0649313188    -2.4534894770
   10      C      -2.5828718637    -0.2587402318    -1.9848815852
   11      H      -2.7656604135    -0.5776340256    -0.9647264783
   12      C      -3.6081000401    -0.1248626644    -2.9655380485
   13      H      -4.6543378223    -0.3369938816    -2.7771164148
   14      C      -3.1310360813     0.2941048434    -4.1793163616
   15      H      -3.6812502296     0.4750048229    -5.0925277940
   16      S      -1.4152228590     0.5484008538    -4.1385621621
 ----------------------------------------------------------------
 Nuclear Repulsion Energy =   629.0166015343 hartrees
 There are       43 alpha and       43 beta electrons
 Applying Cartesian multipole field
    Component          Value
    ---------          -----
     (2,0,0)        1.00000E-11
     (0,2,0)        2.00000E-11
     (0,0,2)       -3.00000E-11
 Nucleus-field energy     =    -0.0000000516 hartrees
 Requested basis set is 6-31++G(d,p)
 There are 76 shells and 234 basis functions
 A cutoff of  1.0D-12 yielded   2529 shell pairs
 There are     24905 function pairs

 Q-Chem warning in module /project/projectdirs/jcesr/qchem/qc44/cnl_qc441/compile/cori/qc_src/libqints/qchem/aobasis.C, line 68:

 Using reconstructed effective core potential

 Smallest overlap matrix eigenvalue = 9.47E-07
 Linear dependence detected in AO basis
 Number of orthogonalized atomic orbitals = 233
 Maximum deviation from orthogonality = 9.208E-11
 Guess MOs from SCF MO coefficient file
 Reading MOs from coefficient file
 Reading MOs from coefficient file
 A restricted hybrid HF-DFT SCF calculation will be
 performed using Pulay DIIS extrapolation
 Exchange:     0.2000 Hartree-Fock + 0.0800 Slater + 0.7200 B88
 Correlation:  0.1900 VWN1RPA + 0.8100 LYP
 Using SG-1 standard quadrature grid
 SCF converges when DIIS error is below 1.0E-08
 Geometry optimization detected.  Setting ReadMinima to 0
 Setting SaveMinima to 0
 ---------------------------------------
  Cycle       Energy         DIIS Error
 ---------------------------------------
    1   -1104.8399616054      5.21E-04
    2   -1104.8407459829      4.04E-05
    3   -1104.8407108150      8.40E-05
    4   -1104.8407648205      8.50E-06
    5   -1104.8407651908      5.12E-06
    6   -1104.8407653612      1.48E-06
    7   -1104.8407653762      4.61E-07
    8   -1104.8407653775      1.16E-07
    9   -1104.8407653770      3.61E-08
   10   -1104.8407653779      1.35E-08
   11   -1104.8407653779      5.37E-09 Convergence criterion met
 ---------------------------------------
 SCF time:  CPU 6.00 s  wall 5.62 s
 SCF   energy in the final basis set = -1104.8407653779
 Total energy in the final basis set = -1104.8407653779
 
 --------------------------------------------------------------
 
                    Orbital Energies (a.u.)
 --------------------------------------------------------------
 
 Alpha MOs
 -- Occupied --
-88.920 -88.920 -10.239 -10.239 -10.225 -10.225 -10.205 -10.205
-10.204 -10.203  -7.979  -7.979  -5.944  -5.944  -5.940  -5.940
 -5.936  -5.936  -0.900  -0.878  -0.772  -0.749  -0.737  -0.706
 -0.604  -0.581  -0.552  -0.534  -0.527  -0.478  -0.420  -0.418
 -0.408  -0.405  -0.401  -0.378  -0.374  -0.358  -0.344  -0.281
 -0.264  -0.259  -0.213
 -- Virtual --
 -0.058  -0.006  -0.004  -0.002   0.007   0.009   0.017   0.022
  0.032   0.035   0.037   0.048   0.049   0.053   0.061   0.064
  0.074   0.084   0.085   0.096   0.098   0.102   0.107   0.110
  0.120   0.125   0.127   0.132   0.132   0.140   0.140   0.141
  0.147   0.157   0.161   0.165   0.169   0.173   0.180   0.186
  0.187   0.202   0.207   0.211   0.218   0.218   0.222   0.225
  0.252   0.255   0.256   0.265   0.266   0.278   0.284   0.300
  0.317   0.321   0.344   0.350   0.351   0.373   0.391   0.406
  0.454   0.464   0.513   0.516   0.542   0.551   0.566   0.586
  0.609   0.614   0.630   0.650   0.656   0.659   0.669   0.681
  0.699   0.718   0.727   0.727   0.742   0.748   0.774   0.785
  0.817   0.819   0.826   0.847   0.866   0.919   0.939   0.948
  0.952   0.954   0.960   0.968   0.982   0.993   0.995   1.018
  1.030   1.040   1.066   1.096   1.106   1.117   1.146   1.157
  1.169   1.179   1.205   1.254   1.259   1.320   1.343   1.343
  1.350   1.356   1.375   1.460   1.473   1.504   1.531   1.588
  1.678   1.692   1.731   1.801   1.862   1.872   1.885   1.916
  1.921   1.938   1.962   2.007   2.049   2.069   2.085   2.117
  2.168   2.177   2.181   2.225   2.241   2.255   2.336   2.362
  2.367   2.418   2.453   2.455   2.467   2.491   2.508   2.524
  2.532   2.565   2.585   2.607   2.666   2.692   2.719   2.749
  2.858   2.869   2.925   2.934   3.145   3.205   3.268   3.274
  3.399   3.427   3.721   3.742   3.973   3.980   4.239   4.295
  4.306   4.319   4.410   4.533   4.658   4.715
 --------------------------------------------------------------
 
          Ground-State Mulliken Net Atomic Charges

     Atom                 Charge (a.u.)
  ----------------------------------------
      1 S                    -0.101426
      2 C                     0.011128
      3 H                     0.196293
      4 C                    -0.346767
      5 H                     0.120128
      6 C                     0.349384
      7 H                     0.121203
      8 C                    -0.349652
      9 C                    -0.349254
     10 C                     0.346665
     11 H                     0.121393
     12 C                    -0.345502
     13 H                     0.120103
     14 C                     0.010540
     15 H                     0.196238
     16 S                    -0.100475
  ----------------------------------------
  Sum of atomic charges =     0.000000

 -----------------------------------------------------------------
                    Cartesian Multipole Moments
 -----------------------------------------------------------------
    Charge (ESU x 10^10)
                 0.0000
    Dipole Moment (Debye)
         X       0.0095      Y      -0.1740      Z      -0.0231
       Tot       0.1758
    Quadrupole Moments (Debye-Ang)
        XX     -62.3694     XY       0.6347     YY     -78.4554
        XZ       3.1923     YZ      -0.9711     ZZ     -67.1652
    Octopole Moments (Debye-Ang^2)
       XXX     130.4511    XXY     -11.7202    XYY      53.0523
       YYY     -24.6206    XXZ     125.2385    XYZ       3.2974
       YYZ     163.7625    XZZ      33.9722    YZZ       0.5374
       ZZZ     423.5929
    Hexadecapole Moments (Debye-Ang^3)
      XXXX   -1589.7608   XXXY      42.0605   XXYY    -354.5171
      XYYY      26.9311   YYYY    -137.3972   XXXZ    -604.0410
      XXYZ      25.9411   XYYZ    -255.1875   YYYZ     102.8313
      XXZZ    -675.4474   XYZZ     -19.9210   YYZZ    -574.4050
      XZZZ    -569.6305   YZZZ      45.1604   ZZZZ   -2867.4332
 -----------------------------------------------------------------
 Calculating analytic gradient of the SCF energy
 Gradient of SCF Energy
            1           2           3           4           5           6
    1   0.0000269  -0.0000313   0.0000247   0.0000381   0.0000084   0.0000057
    2   0.0000222   0.0000064   0.0001721  -0.0000306   0.0000424  -0.0014231
    3  -0.0000817  -0.0000269  -0.0000161   0.0000486   0.0000195   0.0000477
            7           8           9          10          11          12
    1  -0.0000044   0.0001230  -0.0001514   0.0001574  -0.0000896  -0.0000454
    2   0.0009503   0.0003013   0.0001663  -0.0013255   0.0008373  -0.0000064
    3  -0.0000188   0.0001070  -0.0000282  -0.0004252   0.0002486  -0.0000504
           13          14          15          16
    1  -0.0000134   0.0000020  -0.0000483  -0.0000024
    2   0.0000266   0.0000538   0.0001715   0.0000354
    3  -0.0000166   0.0000326   0.0000715   0.0000884
 Max gradient component =       1.423E-03
 RMS gradient           =       3.517E-04
 Gradient time:  CPU 1.85 s  wall 2.59 s
 Geometry Optimization Parameters
   NAtoms,    NIC,     NZ,  NCons,   NDum,   NFix, NCnnct, MaxDiis
       16     111       0       1       0       0       0       0

 Cartesian Hessian Update
 Hessian Updated using BFGS Update


** CONSTRAINED OPTIMIZATION IN DELOCALIZED INTERNAL COORDINATES **
   Searching for a Minimum

   Optimization Cycle:   2

                       Coordinates (Angstroms)
     ATOM                X               Y               Z
      1  S         0.0044444389    0.0778024988    0.0033302249
      2  C         1.7385056487    0.0183955107    0.0032019393
      3  H         2.2779179428    0.0150150865    0.9403434501
      4  C         2.2418967399   -0.0120078046   -1.2704811597
      5  H         3.3024666809   -0.0478075250   -1.4917419629
      6  C         1.2239869914   -0.0002872609   -2.2677481003
      7  H         1.4257336942   -0.0192183283   -3.3329352879
      8  C        -0.0544705507    0.0445941174   -1.7502763820
      9  C        -1.3258373565    0.0649313188   -2.4534894770
     10  C        -2.5828718637   -0.2587402318   -1.9848815852
     11  H        -2.7656604135   -0.5776340256   -0.9647264783
     12  C        -3.6081000401   -0.1248626644   -2.9655380485
     13  H        -4.6543378223   -0.3369938816   -2.7771164148
     14  C        -3.1310360813    0.2941048434   -4.1793163616
     15  H        -3.6812502296    0.4750048229   -5.0925277940
     16  S        -1.4152228590    0.5484008538   -4.1385621621
   Point Group: c1    Number of degrees of freedom:    42


   Energy is  -1104.840765378

              Constraints and their Current Values
                                        Value     Constraint
   Dihedral:        6   8   9  10      160.000      160.000
 Hessian Updated using BFGS Update

 36 Hessian modes will be used to form the next step
  Hessian Eigenvalues:
     0.028600    0.045000    0.045001    0.045003    0.045004    0.045012
     0.054633    0.159859    0.159947    0.159992    0.159996    0.160000
     0.160017    0.221282    0.221396    0.237837    0.238165    0.249999
     0.250012    0.294239    0.294633    0.312509    0.312631    0.354737
     0.354851    0.355125    0.355133    0.358228    0.358330    0.378708
     0.404848    0.404905    0.463581    0.464048    0.497930    0.498046

 Minimum Search - Taking Simple RFO Step
 Searching for Lamda that Minimizes Along All modes
 Value Taken    Lamda =  -0.00005402
 Step Taken.  Stepsize is  0.042779

                             Maximum     Tolerance    Cnvgd?
         Gradient           0.000781      0.000300      NO
         Displacement       0.029012      0.001200      NO
         Energy change     -0.000191      0.000001      NO


 New Cartesian Coordinates Obtained by Inverse Iteration

 Displacement from previous Coordinates is:  0.048729
 ----------------------------------------------------------------
             Standard Nuclear Orientation (Angstroms)
    I     Atom           X                Y                Z
 ----------------------------------------------------------------
    1      S       0.0047784282     0.0842275267     0.0041476822
    2      C       1.7385735953     0.0165657222     0.0030790447
    3      H       2.2780211525     0.0039756732     0.9401223825
    4      C       2.2413330856    -0.0104718575    -1.2709784874
    5      H       3.3014847838    -0.0535676286    -1.4928986426
    6      C       1.2231748191     0.0068893333    -2.2678123787
    7      H       1.4244141380    -0.0233426598    -3.3328354656
    8      C      -0.0549472301     0.0516568665    -1.7496112018
    9      C      -1.3262593999     0.0722248827    -2.4521479587
   10      C      -2.5829671499    -0.2516096956    -1.9828617700
   11      H      -2.7641046116    -0.5809596240    -0.9657452683
   12      C      -3.6076566221    -0.1236678854    -2.9647595168
   13      H      -4.6526387124    -0.3429978649    -2.7776699381
   14      C      -3.1307891760     0.2922030883    -4.1797254687
   15      H      -3.6799242796     0.4644627218    -5.0952670864
   16      S      -1.4163279007     0.5551087311    -4.1375015264
 ----------------------------------------------------------------
 Nuclear Repulsion Energy =   629.0256353523 hartrees
 There are       43 alpha and       43 beta electrons
 Applying Cartesian multipole field
    Component          Value
    ---------          -----
     (2,0,0)        1.00000E-11
     (0,2,0)        2.00000E-11
     (0,0,2)       -3.00000E-11
 Nucleus-field energy     =    -0.0000000516 hartrees
 Requested basis set is 6-31++G(d,p)
 There are 76 shells and 234 basis functions
 A cutoff of  1.0D-12 yielded   2529 shell pairs
 There are     24905 function pairs

 Q-Chem warning in module /project/projectdirs/jcesr/qchem/qc44/cnl_qc441/compile/cori/qc_src/libqints/qchem/aobasis.C, line 68:

 Using reconstructed effective core potential

 Smallest overlap matrix eigenvalue = 9.42E-07
 Linear dependence detected in AO basis
 Number of orthogonalized atomic orbitals = 233
 Maximum deviation from orthogonality = 6.206E-11
 Guess MOs from SCF MO coefficient file
 Reading MOs from coefficient file
 Reading MOs from coefficient file
 A restricted hybrid HF-DFT SCF calculation will be
 performed using Pulay DIIS extrapolation
 Exchange:     0.2000 Hartree-Fock + 0.0800 Slater + 0.7200 B88
 Correlation:  0.1900 VWN1RPA + 0.8100 LYP
 Using SG-1 standard quadrature grid
 SCF converges when DIIS error is below 1.0E-08
 Geometry optimization detected.  Setting ReadMinima to 0
 Setting SaveMinima to 0
 ---------------------------------------
  Cycle       Energy         DIIS Error
 ---------------------------------------
    1   -1104.8405382966      1.56E-04
    2   -1104.8407981758      1.07E-05
    3   -1104.8407972472      1.81E-05
    4   -1104.8407996582      3.66E-06
    5   -1104.8407997360      1.99E-06
    6   -1104.8407997620      5.21E-07
    7   -1104.8407997654      1.54E-07
    8   -1104.8407997665      4.34E-08
    9   -1104.8407997661      7.19E-09 Convergence criterion met
 ---------------------------------------
 SCF time:  CPU 4.88 s  wall 4.72 s
 SCF   energy in the final basis set = -1104.8407997661
 Total energy in the final basis set = -1104.8407997661
 
 --------------------------------------------------------------
 
                    Orbital Energies (a.u.)
 --------------------------------------------------------------
 
 Alpha MOs
 -- Occupied --
-88.920 -88.920 -10.239 -10.239 -10.225 -10.225 -10.205 -10.205
-10.203 -10.203  -7.979  -7.979  -5.944  -5.944  -5.940  -5.940
 -5.936  -5.936  -0.900  -0.878  -0.772  -0.749  -0.737  -0.706
 -0.604  -0.581  -0.552  -0.534  -0.527  -0.478  -0.420  -0.418
 -0.408  -0.405  -0.401  -0.378  -0.374  -0.358  -0.344  -0.281
 -0.264  -0.259  -0.213
 -- Virtual --
 -0.058  -0.006  -0.004  -0.002   0.007   0.009   0.017   0.022
  0.032   0.035   0.038   0.048   0.049   0.053   0.061   0.064
  0.074   0.084   0.085   0.096   0.098   0.102   0.107   0.109
  0.120   0.125   0.127   0.132   0.132   0.140   0.140   0.141
  0.147   0.157   0.161   0.165   0.169   0.173   0.181   0.186
  0.187   0.202   0.207   0.211   0.218   0.218   0.222   0.225
  0.252   0.255   0.256   0.265   0.266   0.279   0.284   0.300
  0.317   0.320   0.344   0.350   0.351   0.373   0.391   0.406
  0.454   0.465   0.513   0.516   0.542   0.551   0.566   0.585
  0.609   0.615   0.630   0.650   0.656   0.659   0.669   0.681
  0.700   0.718   0.727   0.727   0.741   0.748   0.775   0.785
  0.818   0.819   0.826   0.847   0.866   0.919   0.939   0.948
  0.953   0.954   0.960   0.968   0.982   0.993   0.994   1.018
  1.030   1.040   1.066   1.096   1.107   1.117   1.146   1.157
  1.169   1.178   1.206   1.252   1.260   1.318   1.340   1.346
  1.352   1.356   1.375   1.464   1.470   1.507   1.531   1.586
  1.678   1.692   1.731   1.801   1.862   1.872   1.885   1.916
  1.922   1.938   1.962   2.007   2.048   2.069   2.085   2.117
  2.167   2.178   2.181   2.225   2.243   2.254   2.336   2.362
  2.366   2.418   2.452   2.456   2.466   2.492   2.508   2.526
  2.533   2.565   2.585   2.608   2.666   2.691   2.719   2.748
  2.858   2.869   2.925   2.934   3.145   3.205   3.267   3.274
  3.399   3.427   3.721   3.742   3.973   3.980   4.239   4.295
  4.307   4.319   4.410   4.533   4.658   4.715
 --------------------------------------------------------------
 
          Ground-State Mulliken Net Atomic Charges

     Atom                 Charge (a.u.)
  ----------------------------------------
      1 S                    -0.103181
      2 C                     0.013098
      3 H                     0.196343
      4 C                    -0.353119
      5 H                     0.120014
      6 C                     0.363545
      7 H                     0.121951
      8 C                    -0.358708
      9 C                    -0.357038
     10 C                     0.360029
     11 H                     0.122111
     12 C                    -0.351504
     13 H                     0.120011
     14 C                     0.012175
     15 H                     0.196278
     16 S                    -0.102005
  ----------------------------------------
  Sum of atomic charges =     0.000000

 -----------------------------------------------------------------
                    Cartesian Multipole Moments
 -----------------------------------------------------------------
    Charge (ESU x 10^10)
                 0.0000
    Dipole Moment (Debye)
         X       0.0117      Y      -0.2136      Z      -0.0285
       Tot       0.2158
    Quadrupole Moments (Debye-Ang)
        XX     -62.4045     XY       0.6576     YY     -78.4462
        XZ       3.2020     YZ      -0.8878     ZZ     -67.1321
    Octopole Moments (Debye-Ang^2)
       XXX     130.6507    XXY     -12.4717    XYY      53.0638
       YYY     -25.5759    XXZ     125.2181    XYZ       3.0657
       YYZ     163.7302    XZZ      33.8950    YZZ      -0.1535
       ZZZ     423.2412
    Hexadecapole Moments (Debye-Ang^3)
      XXXX   -1590.7329   XXXY      43.5707   XXYY    -354.5503
      XYYY      27.6593   YYYY    -137.9242   XXXZ    -604.2876
      XXYZ      27.7811   XYYZ    -255.2978   YYYZ     104.8455
      XXZZ    -675.0678   XYZZ     -18.7465   YYZZ    -574.4685
      XZZZ    -568.8754   YZZZ      48.7010   ZZZZ   -2864.7564
 -----------------------------------------------------------------
 Calculating analytic gradient of the SCF energy
 Gradient of SCF Energy
            1           2           3           4           5           6
    1   0.0000164  -0.0000292  -0.0000061   0.0000015  -0.0000111  -0.0000308
    2   0.0001820  -0.0001773  -0.0000080   0.0002735  -0.0000726  -0.0005180
    3   0.0000082  -0.0000155   0.0000014  -0.0000156   0.0000024   0.0000098
            7           8           9          10          11          12
    1   0.0000331   0.0000385  -0.0000233   0.0000830  -0.0000726  -0.0000216
    2   0.0004480  -0.0001121  -0.0001932  -0.0004595   0.0003640   0.0002495
    3  -0.0000160   0.0000214  -0.0000633  -0.0001313   0.0001158   0.0000755
           13          14          15          16
    1   0.0000191   0.0000294   0.0000022  -0.0000283
    2  -0.0000871  -0.0001340   0.0000192   0.0002256
    3  -0.0000292  -0.0000128   0.0000009   0.0000483
 Max gradient component =       5.180E-04
 RMS gradient           =       1.589E-04
 Gradient time:  CPU 2.10 s  wall 2.07 s
 Geometry Optimization Parameters
   NAtoms,    NIC,     NZ,  NCons,   NDum,   NFix, NCnnct, MaxDiis
       16     111       0       1       0       0       0       0

 Cartesian Hessian Update
 Hessian Updated using BFGS Update


** CONSTRAINED OPTIMIZATION IN DELOCALIZED INTERNAL COORDINATES **
   Searching for a Minimum

   Optimization Cycle:   3

                       Coordinates (Angstroms)
     ATOM                X               Y               Z
      1  S         0.0047784282    0.0842275267    0.0041476822
      2  C         1.7385735953    0.0165657222    0.0030790447
      3  H         2.2780211525    0.0039756732    0.9401223825
      4  C         2.2413330856   -0.0104718575   -1.2709784874
      5  H         3.3014847838   -0.0535676286   -1.4928986426
      6  C         1.2231748191    0.0068893333   -2.2678123787
      7  H         1.4244141380   -0.0233426598   -3.3328354656
      8  C        -0.0549472301    0.0516568665   -1.7496112018
      9  C        -1.3262593999    0.0722248827   -2.4521479587
     10  C        -2.5829671499   -0.2516096956   -1.9828617700
     11  H        -2.7641046116   -0.5809596240   -0.9657452683
     12  C        -3.6076566221   -0.1236678854   -2.9647595168
     13  H        -4.6526387124   -0.3429978649   -2.7776699381
     14  C        -3.1307891760    0.2922030883   -4.1797254687
     15  H        -3.6799242796    0.4644627218   -5.0952670864
     16  S        -1.4163279007    0.5551087311   -4.1375015264
   Point Group: c1    Number of degrees of freedom:    42


   Energy is  -1104.840799766

              Constraints and their Current Values
                                        Value     Constraint
   Dihedral:        6   8   9  10      160.000      160.000
 Hessian Updated using BFGS Update

 36 Hessian modes will be used to form the next step
  Hessian Eigenvalues:
     0.019648    0.045000    0.045003    0.045004    0.045012    0.045922
     0.056389    0.159946    0.159991    0.159995    0.159999    0.160008
     0.160118    0.221283    0.221434    0.237837    0.238518    0.250000
     0.250017    0.294274    0.294655    0.312498    0.312633    0.354738
     0.354853    0.355128    0.355136    0.358229    0.358330    0.378904
     0.404875    0.405059    0.463580    0.464135    0.497932    0.498040

 Minimum Search - Taking Simple RFO Step
 Searching for Lamda that Minimizes Along All modes
 Value Taken    Lamda =  -0.00001231
 Step Taken.  Stepsize is  0.023120

                             Maximum     Tolerance    Cnvgd?
         Gradient           0.000383      0.000300      NO
         Displacement       0.013413      0.001200      NO
         Energy change     -0.000034      0.000001      NO


 New Cartesian Coordinates Obtained by Inverse Iteration

 Displacement from previous Coordinates is:  0.019167
 ----------------------------------------------------------------
             Standard Nuclear Orientation (Angstroms)
    I     Atom           X                Y                Z
 ----------------------------------------------------------------
    1      S       0.0049083600     0.0855652844     0.0043537308
    2      C       1.7387919084     0.0184221318     0.0031968543
    3      H       2.2782796131     0.0046043178     0.9402017942
    4      C       2.2413544528    -0.0096755527    -1.2709076421
    5      H       3.3014235895    -0.0544954350    -1.4929487109
    6      C       1.2230760038     0.0082064806    -2.2676591551
    7      H       1.4239388849    -0.0297904133    -3.3324862428
    8      C      -0.0550562833     0.0528623510    -1.7494313736
    9      C      -1.3263339736     0.0735894588    -2.4518973503
   10      C      -2.5830650090    -0.2503439662    -1.9826730309
   11      H      -2.7630624457    -0.5868498669    -0.9677224638
   12      C      -3.6077615998    -0.1229902354    -2.9646846979
   13      H      -4.6524752323    -0.3439463477    -2.7779481272
   14      C      -3.1311362718     0.2938957878    -4.1793960260
   15      H      -3.6801324880     0.4651833057    -5.0951998013
   16      S      -1.4165845889     0.5564600293    -4.1372633574
 ----------------------------------------------------------------
 Nuclear Repulsion Energy =   629.0134312098 hartrees
 There are       43 alpha and       43 beta electrons
 Applying Cartesian multipole field
    Component          Value
    ---------          -----
     (2,0,0)        1.00000E-11
     (0,2,0)        2.00000E-11
     (0,0,2)       -3.00000E-11
 Nucleus-field energy     =    -0.0000000516 hartrees
 Requested basis set is 6-31++G(d,p)
 There are 76 shells and 234 basis functions
 A cutoff of  1.0D-12 yielded   2529 shell pairs
 There are     24905 function pairs

 Q-Chem warning in module /project/projectdirs/jcesr/qchem/qc44/cnl_qc441/compile/cori/qc_src/libqints/qchem/aobasis.C, line 68:

 Using reconstructed effective core potential

 Smallest overlap matrix eigenvalue = 9.42E-07
 Linear dependence detected in AO basis
 Number of orthogonalized atomic orbitals = 233
 Maximum deviation from orthogonality = 4.698E-11
 Guess MOs from SCF MO coefficient file
 Reading MOs from coefficient file
 Reading MOs from coefficient file
 A restricted hybrid HF-DFT SCF calculation will be
 performed using Pulay DIIS extrapolation
 Exchange:     0.2000 Hartree-Fock + 0.0800 Slater + 0.7200 B88
 Correlation:  0.1900 VWN1RPA + 0.8100 LYP
 Using SG-1 standard quadrature grid
 SCF converges when DIIS error is below 1.0E-08
 Geometry optimization detected.  Setting ReadMinima to 0
 Setting SaveMinima to 0
 ---------------------------------------
  Cycle       Energy         DIIS Error
 ---------------------------------------
    1   -1104.8406507606      3.28E-05
    2   -1104.8408070979      3.14E-06
    3   -1104.8408071543      3.30E-06
    4   -1104.8408072152      1.60E-06
    5   -1104.8408072321      4.99E-07
    6   -1104.8408072345      1.80E-07
    7   -1104.8408072344      4.98E-08
    8   -1104.8408072335      1.09E-08
    9   -1104.8408072329      5.51E-09 Convergence criterion met
 ---------------------------------------
 SCF time:  CPU 4.88 s  wall 4.60 s
 SCF   energy in the final basis set = -1104.8408072329
 Total energy in the final basis set = -1104.8408072329
 
 --------------------------------------------------------------
 
                    Orbital Energies (a.u.)
 --------------------------------------------------------------
 
 Alpha MOs
 -- Occupied --
-88.920 -88.920 -10.239 -10.239 -10.225 -10.225 -10.205 -10.205
-10.203 -10.203  -7.979  -7.979  -5.944  -5.944  -5.940  -5.940
 -5.936  -5.936  -0.900  -0.878  -0.772  -0.749  -0.737  -0.706
 -0.604  -0.581  -0.552  -0.534  -0.527  -0.478  -0.420  -0.418
 -0.408  -0.405  -0.401  -0.378  -0.374  -0.358  -0.344  -0.281
 -0.264  -0.259  -0.213
 -- Virtual --
 -0.058  -0.006  -0.004  -0.002   0.007   0.009   0.017   0.022
  0.032   0.035   0.038   0.048   0.049   0.053   0.061   0.064
  0.074   0.084   0.085   0.096   0.098   0.102   0.107   0.109
  0.120   0.125   0.127   0.132   0.132   0.140   0.141   0.141
  0.147   0.157   0.161   0.165   0.169   0.173   0.181   0.186
  0.187   0.202   0.207   0.211   0.218   0.218   0.222   0.225
  0.252   0.254   0.256   0.265   0.266   0.279   0.284   0.300
  0.317   0.320   0.344   0.350   0.351   0.373   0.391   0.406
  0.454   0.465   0.513   0.516   0.542   0.550   0.566   0.585
  0.609   0.614   0.630   0.650   0.656   0.659   0.669   0.681
  0.700   0.718   0.726   0.727   0.741   0.749   0.775   0.785
  0.818   0.819   0.826   0.847   0.866   0.920   0.939   0.947
  0.953   0.954   0.960   0.967   0.982   0.993   0.994   1.018
  1.030   1.041   1.067   1.096   1.107   1.117   1.146   1.157
  1.169   1.178   1.207   1.251   1.260   1.317   1.339   1.347
  1.352   1.356   1.375   1.466   1.468   1.509   1.531   1.585
  1.679   1.692   1.731   1.801   1.862   1.871   1.885   1.916
  1.922   1.938   1.962   2.007   2.047   2.069   2.085   2.117
  2.166   2.178   2.181   2.225   2.243   2.254   2.335   2.362
  2.366   2.418   2.452   2.456   2.466   2.492   2.507   2.527
  2.533   2.565   2.585   2.608   2.666   2.691   2.719   2.748
  2.858   2.869   2.925   2.935   3.145   3.205   3.267   3.274
  3.399   3.427   3.721   3.742   3.973   3.980   4.239   4.295
  4.307   4.319   4.410   4.533   4.658   4.715
 --------------------------------------------------------------
 
          Ground-State Mulliken Net Atomic Charges

     Atom                 Charge (a.u.)
  ----------------------------------------
      1 S                    -0.104503
      2 C                     0.014688
      3 H                     0.196441
      4 C                    -0.356050
      5 H                     0.119964
      6 C                     0.371348
      7 H                     0.122365
      8 C                    -0.364503
      9 C                    -0.362062
     10 C                     0.367267
     11 H                     0.122510
     12 C                    -0.354139
     13 H                     0.119970
     14 C                     0.013527
     15 H                     0.196370
     16 S                    -0.103193
  ----------------------------------------
  Sum of atomic charges =     0.000000

 -----------------------------------------------------------------
                    Cartesian Multipole Moments
 -----------------------------------------------------------------
    Charge (ESU x 10^10)
                 0.0000
    Dipole Moment (Debye)
         X       0.0125      Y      -0.2300      Z      -0.0308
       Tot       0.2324
    Quadrupole Moments (Debye-Ang)
        XX     -62.4135     XY       0.6659     YY     -78.4386
        XZ       3.2110     YZ      -0.8515     ZZ     -67.1258
    Octopole Moments (Debye-Ang^2)
       XXX     130.7006    XXY     -12.6715    XYY      53.0459
       YYY     -25.8595    XXZ     125.1949    XYZ       3.0661
       YYZ     163.7116    XZZ      33.8681    YZZ      -0.3605
       ZZZ     423.1764
    Hexadecapole Moments (Debye-Ang^3)
      XXXX   -1591.1218   XXXY      43.9423   XXYY    -354.5409
      XYYY      27.8696   YYYY    -138.1126   XXXZ    -604.2900
      XXYZ      28.1795   XYYZ    -255.2950   YYYZ     105.4163
      XXZZ    -674.9712   XYZZ     -18.7173   YYZZ    -574.4456
      XZZZ    -568.7978   YZZZ      49.6535   ZZZZ   -2864.2049
 -----------------------------------------------------------------
 Calculating analytic gradient of the SCF energy
 Gradient of SCF Energy
            1           2           3           4           5           6
    1   0.0000160   0.0000218  -0.0000037   0.0000101  -0.0000034  -0.0000247
    2   0.0000266  -0.0000592  -0.0000490   0.0002148  -0.0001042  -0.0000012
    3  -0.0000012   0.0000034   0.0000019   0.0000092   0.0000023  -0.0000004
            7           8           9          10          11          12
    1   0.0000193  -0.0000363   0.0000598   0.0000199  -0.0000272  -0.0000288
    2   0.0001364  -0.0001652  -0.0001914   0.0000093   0.0000808   0.0001946
    3   0.0000051  -0.0000045  -0.0000475   0.0000061   0.0000150   0.0000382
           13          14          15          16
    1   0.0000165  -0.0000224   0.0000069  -0.0000237
    2  -0.0001165  -0.0000278  -0.0000138   0.0000660
    3  -0.0000363  -0.0000060  -0.0000068   0.0000216
 Max gradient component =       2.148E-04
 RMS gradient           =       6.856E-05
 Gradient time:  CPU 2.06 s  wall 2.05 s
 Geometry Optimization Parameters
   NAtoms,    NIC,     NZ,  NCons,   NDum,   NFix, NCnnct, MaxDiis
       16     111       0       1       0       0       0       0

 Cartesian Hessian Update
 Hessian Updated using BFGS Update


** CONSTRAINED OPTIMIZATION IN DELOCALIZED INTERNAL COORDINATES **
   Searching for a Minimum

   Optimization Cycle:   4

                       Coordinates (Angstroms)
     ATOM                X               Y               Z
      1  S         0.0049083600    0.0855652844    0.0043537308
      2  C         1.7387919084    0.0184221318    0.0031968543
      3  H         2.2782796131    0.0046043178    0.9402017942
      4  C         2.2413544528   -0.0096755527   -1.2709076421
      5  H         3.3014235895   -0.0544954350   -1.4929487109
      6  C         1.2230760038    0.0082064806   -2.2676591551
      7  H         1.4239388849   -0.0297904133   -3.3324862428
      8  C        -0.0550562833    0.0528623510   -1.7494313736
      9  C        -1.3263339736    0.0735894588   -2.4518973503
     10  C        -2.5830650090   -0.2503439662   -1.9826730309
     11  H        -2.7630624457   -0.5868498669   -0.9677224638
     12  C        -3.6077615998   -0.1229902354   -2.9646846979
     13  H        -4.6524752323   -0.3439463477   -2.7779481272
     14  C        -3.1311362718    0.2938957878   -4.1793960260
     15  H        -3.6801324880    0.4651833057   -5.0951998013
     16  S        -1.4165845889    0.5564600293   -4.1372633574
   Point Group: c1    Number of degrees of freedom:    42


   Energy is  -1104.840807233

              Constraints and their Current Values
                                        Value     Constraint
   Dihedral:        6   8   9  10      160.000      160.000
 Hessian Updated using BFGS Update

 39 Hessian modes will be used to form the next step
  Hessian Eigenvalues:
     0.016656    0.045000    0.045000    0.045001    0.045002    0.045004
     0.045012    0.045061    0.046530    0.051162    0.159946    0.159963
     0.159991    0.159995    0.160000    0.160049    0.221283    0.221436
     0.237837    0.239704    0.250000    0.250037    0.294277    0.294673
     0.312507    0.312634    0.354754    0.354873    0.355128    0.355143
     0.358229    0.358330    0.378901    0.404879    0.405363    0.463582
     0.464213    0.497932    0.498040

 Minimum Search - Taking Simple RFO Step
 Searching for Lamda that Minimizes Along All modes
 Value Taken    Lamda =  -0.00000204
 Step Taken.  Stepsize is  0.008954

                             Maximum     Tolerance    Cnvgd?
         Gradient           0.000185      0.000300     YES
         Displacement       0.004549      0.001200      NO
         Energy change     -0.000007      0.000001      NO


 New Cartesian Coordinates Obtained by Inverse Iteration

 Displacement from previous Coordinates is:  0.015034
 ----------------------------------------------------------------
             Standard Nuclear Orientation (Angstroms)
    I     Atom           X                Y                Z
 ----------------------------------------------------------------
    1      S       0.0046753960     0.0854888732     0.0042484555
    2      C       1.7386190310     0.0199282739     0.0031766250
    3      H       2.2780914412     0.0077038273     0.9402119859
    4      C       2.2412992676    -0.0095077337    -1.2708668426
    5      H       3.3014375546    -0.0531539403    -1.4928086749
    6      C       1.2231058895     0.0071615465    -2.2676886011
    7      H       1.4238360877    -0.0337286987    -3.3324429291
    8      C      -0.0550427781     0.0517678601    -1.7495115175
    9      C      -1.3262369225     0.0725743424    -2.4520690208
   10      C      -2.5829797117    -0.2514144950    -1.9829344180
   11      H      -2.7625588668    -0.5905639435    -0.9687797544
   12      C      -3.6077235169    -0.1228437223    -2.9646972387
   13      H      -4.6526435827    -0.3426267910    -2.7777472169
   14      C      -3.1311103603     0.2953105263    -4.1789998575
   15      H      -3.6802792468     0.4682484595    -5.0943893079
   16      S      -1.4163247620     0.5563529455    -4.1371672869
 ----------------------------------------------------------------
 Nuclear Repulsion Energy =   629.0228200668 hartrees
 There are       43 alpha and       43 beta electrons
 Applying Cartesian multipole field
    Component          Value
    ---------          -----
     (2,0,0)        1.00000E-11
     (0,2,0)        2.00000E-11
     (0,0,2)       -3.00000E-11
 Nucleus-field energy     =    -0.0000000516 hartrees
 Requested basis set is 6-31++G(d,p)
 There are 76 shells and 234 basis functions
 A cutoff of  1.0D-12 yielded   2529 shell pairs
 There are     24905 function pairs

 Q-Chem warning in module /project/projectdirs/jcesr/qchem/qc44/cnl_qc441/compile/cori/qc_src/libqints/qchem/aobasis.C, line 68:

 Using reconstructed effective core potential

 Smallest overlap matrix eigenvalue = 9.43E-07
 Linear dependence detected in AO basis
 Number of orthogonalized atomic orbitals = 233
 Maximum deviation from orthogonality = 7.074E-11
 Guess MOs from SCF MO coefficient file
 Reading MOs from coefficient file
 Reading MOs from coefficient file
 A restricted hybrid HF-DFT SCF calculation will be
 performed using Pulay DIIS extrapolation
 Exchange:     0.2000 Hartree-Fock + 0.0800 Slater + 0.7200 B88
 Correlation:  0.1900 VWN1RPA + 0.8100 LYP
 Using SG-1 standard quadrature grid
 SCF converges when DIIS error is below 1.0E-08
 Geometry optimization detected.  Setting ReadMinima to 0
 Setting SaveMinima to 0
 ---------------------------------------
  Cycle       Energy         DIIS Error
 ---------------------------------------
    1   -1104.8410130981      3.78E-05
    2   -1104.8408084439      3.01E-06
    3   -1104.8408083115      5.62E-06
    4   -1104.8408085523      9.21E-07
    5   -1104.8408085570      3.98E-07
    6   -1104.8408085573      1.52E-07
    7   -1104.8408085568      4.56E-08
    8   -1104.8408085570      1.30E-08
    9   -1104.8408085558      4.03E-09 Convergence criterion met
 ---------------------------------------
 SCF time:  CPU 4.93 s  wall 4.93 s
 SCF   energy in the final basis set = -1104.8408085558
 Total energy in the final basis set = -1104.8408085558
 
 --------------------------------------------------------------
 
                    Orbital Energies (a.u.)
 --------------------------------------------------------------
 
 Alpha MOs
 -- Occupied --
-88.920 -88.920 -10.239 -10.239 -10.225 -10.225 -10.205 -10.205
-10.203 -10.203  -7.979  -7.979  -5.944  -5.944  -5.940  -5.940
 -5.936  -5.936  -0.900  -0.878  -0.772  -0.749  -0.737  -0.706
 -0.604  -0.581  -0.552  -0.534  -0.527  -0.478  -0.420  -0.418
 -0.408  -0.405  -0.401  -0.378  -0.374  -0.358  -0.344  -0.281
 -0.264  -0.259  -0.213
 -- Virtual --
 -0.058  -0.006  -0.004  -0.002   0.007   0.009   0.017   0.022
  0.032   0.035   0.038   0.048   0.049   0.053   0.061   0.064
  0.074   0.084   0.085   0.096   0.098   0.102   0.107   0.109
  0.120   0.125   0.127   0.132   0.132   0.140   0.141   0.141
  0.147   0.157   0.161   0.165   0.169   0.173   0.181   0.186
  0.187   0.202   0.207   0.211   0.218   0.218   0.222   0.225
  0.252   0.254   0.257   0.265   0.266   0.279   0.284   0.300
  0.317   0.320   0.344   0.351   0.351   0.373   0.391   0.406
  0.454   0.465   0.513   0.517   0.542   0.550   0.566   0.585
  0.609   0.614   0.630   0.649   0.656   0.659   0.669   0.681
  0.700   0.718   0.726   0.727   0.741   0.749   0.774   0.785
  0.818   0.819   0.826   0.847   0.866   0.920   0.939   0.947
  0.953   0.955   0.960   0.967   0.982   0.993   0.994   1.018
  1.030   1.041   1.067   1.096   1.106   1.117   1.146   1.157
  1.169   1.178   1.207   1.250   1.260   1.317   1.340   1.347
  1.352   1.356   1.374   1.467   1.467   1.510   1.531   1.584
  1.679   1.692   1.731   1.802   1.862   1.871   1.885   1.916
  1.922   1.938   1.962   2.007   2.048   2.070   2.085   2.117
  2.166   2.178   2.181   2.225   2.244   2.254   2.335   2.362
  2.366   2.417   2.452   2.456   2.466   2.492   2.507   2.527
  2.533   2.565   2.585   2.608   2.666   2.691   2.719   2.748
  2.858   2.869   2.925   2.935   3.145   3.205   3.267   3.274
  3.400   3.427   3.721   3.742   3.973   3.980   4.239   4.295
  4.307   4.319   4.410   4.533   4.658   4.715
 --------------------------------------------------------------
 
          Ground-State Mulliken Net Atomic Charges

     Atom                 Charge (a.u.)
  ----------------------------------------
      1 S                    -0.104732
      2 C                     0.015051
      3 H                     0.196460
      4 C                    -0.356203
      5 H                     0.119942
      6 C                     0.372690
      7 H                     0.122480
      8 C                    -0.366003
      9 C                    -0.363246
     10 C                     0.368330
     11 H                     0.122620
     12 C                    -0.354142
     13 H                     0.119950
     14 C                     0.013779
     15 H                     0.196384
     16 S                    -0.103360
  ----------------------------------------
  Sum of atomic charges =     0.000000

 -----------------------------------------------------------------
                    Cartesian Multipole Moments
 -----------------------------------------------------------------
    Charge (ESU x 10^10)
                 0.0000
    Dipole Moment (Debye)
         X       0.0125      Y      -0.2299      Z      -0.0308
       Tot       0.2323
    Quadrupole Moments (Debye-Ang)
        XX     -62.4152     XY       0.6651     YY     -78.4341
        XZ       3.2098     YZ      -0.8509     ZZ     -67.1300
    Octopole Moments (Debye-Ang^2)
       XXX     130.6931    XXY     -12.6135    XYY      53.0308
       YYY     -25.8430    XXZ     125.2005    XYZ       3.1309
       YYZ     163.7011    XZZ      33.8912    YZZ      -0.3247
       ZZZ     423.2177
    Hexadecapole Moments (Debye-Ang^3)
      XXXX   -1590.9434   XXXY      43.8103   XXYY    -354.4901
      XYYY      27.8490   YYYY    -138.1647   XXXZ    -604.2310
      XXYZ      27.9722   XYYZ    -255.2325   YYYZ     105.3546
      XXZZ    -675.0345   XYZZ     -19.0147   YYZZ    -574.3739
      XZZZ    -568.9436   YZZZ      49.4203   ZZZZ   -2864.3659
 -----------------------------------------------------------------
 Calculating analytic gradient of the SCF energy
 Gradient of SCF Energy
            1           2           3           4           5           6
    1  -0.0000125   0.0000047  -0.0000048  -0.0000003  -0.0000029  -0.0000011
    2  -0.0000521  -0.0000009  -0.0000355   0.0001105  -0.0000661   0.0001427
    3   0.0000176  -0.0000057   0.0000012  -0.0000073  -0.0000029  -0.0000033
            7           8           9          10          11          12
    1   0.0000093  -0.0000271   0.0000444  -0.0000156  -0.0000079  -0.0000105
    2   0.0000396  -0.0001458  -0.0001446   0.0001271  -0.0000084   0.0000930
    3  -0.0000002   0.0000124  -0.0000536   0.0000387  -0.0000032   0.0000321
           13          14          15          16
    1   0.0000132  -0.0000061   0.0000060   0.0000111
    2  -0.0000800   0.0000246   0.0000021  -0.0000064
    3  -0.0000204   0.0000129  -0.0000013  -0.0000170
 Max gradient component =       1.458E-04
 RMS gradient           =       5.149E-05
 Gradient time:  CPU 2.09 s  wall 2.06 s
 Geometry Optimization Parameters
   NAtoms,    NIC,     NZ,  NCons,   NDum,   NFix, NCnnct, MaxDiis
       16     111       0       1       0       0       0       0

 Cartesian Hessian Update
 Hessian Updated using BFGS Update


** CONSTRAINED OPTIMIZATION IN DELOCALIZED INTERNAL COORDINATES **
   Searching for a Minimum

   Optimization Cycle:   5

                       Coordinates (Angstroms)
     ATOM                X               Y               Z
      1  S         0.0046753960    0.0854888732    0.0042484555
      2  C         1.7386190310    0.0199282739    0.0031766250
      3  H         2.2780914412    0.0077038273    0.9402119859
      4  C         2.2412992676   -0.0095077337   -1.2708668426
      5  H         3.3014375546   -0.0531539403   -1.4928086749
      6  C         1.2231058895    0.0071615465   -2.2676886011
      7  H         1.4238360877   -0.0337286987   -3.3324429291
      8  C        -0.0550427781    0.0517678601   -1.7495115175
      9  C        -1.3262369225    0.0725743424   -2.4520690208
     10  C        -2.5829797117   -0.2514144950   -1.9829344180
     11  H        -2.7625588668   -0.5905639435   -0.9687797544
     12  C        -3.6077235169   -0.1228437223   -2.9646972387
     13  H        -4.6526435827   -0.3426267910   -2.7777472169
     14  C        -3.1311103603    0.2953105263   -4.1789998575
     15  H        -3.6802792468    0.4682484595   -5.0943893079
     16  S        -1.4163247620    0.5563529455   -4.1371672869
   Point Group: c1    Number of degrees of freedom:    42


   Energy is  -1104.840808556

              Constraints and their Current Values
                                        Value     Constraint
   Dihedral:        6   8   9  10      160.000      160.000
 Hessian Updated using BFGS Update

 38 Hessian modes will be used to form the next step
  Hessian Eigenvalues:
     0.014408    0.032479    0.045000    0.045000    0.045004    0.045006
     0.045012    0.045342    0.057232    0.159646    0.159946    0.159991
     0.160000    0.160001    0.160126    0.221283    0.221515    0.237837
     0.242686    0.250001    0.250006    0.294220    0.294613    0.312548
     0.312667    0.354765    0.354896    0.355128    0.355142    0.358231
     0.358332    0.379569    0.404880    0.406448    0.463583    0.464460
     0.497932    0.498242

 Minimum Search - Taking Simple RFO Step
 Searching for Lamda that Minimizes Along All modes
 Value Taken    Lamda =   0.00000000
 Step Taken.  Stepsize is  0.005583

                             Maximum     Tolerance    Cnvgd?
         Gradient           0.000066      0.000300     YES
         Displacement       0.003175      0.001200      NO
         Energy change     -0.000001      0.000001      NO


 New Cartesian Coordinates Obtained by Inverse Iteration

 Displacement from previous Coordinates is:  0.011555
 ----------------------------------------------------------------
             Standard Nuclear Orientation (Angstroms)
    I     Atom           X                Y                Z
 ----------------------------------------------------------------
    1      S       0.0046456120     0.0855797398     0.0040988171
    2      C       1.7386100673     0.0208510734     0.0032309878
    3      H       2.2780753566     0.0102643564     0.9402937589
    4      C       2.2413718851    -0.0095699374    -1.2707554077
    5      H       3.3015924691    -0.0517524779    -1.4925813811
    6      C       1.2232220131     0.0059442754    -2.2676656406
    7      H       1.4239171836    -0.0362163388    -3.3323757657
    8      C      -0.0549792469     0.0505290780    -1.7496150788
    9      C      -1.3261609017     0.0713882233    -2.4522775156
   10      C      -2.5829531174    -0.2526103691    -1.9832845679
   11      H      -2.7623706323    -0.5929004886    -0.9694849027
   12      C      -3.6077870617    -0.1228959192    -2.9648287613
   13      H      -4.6529552918    -0.3412638997    -2.7776133045
   14      C      -3.1312020534     0.2961904477    -4.1788201716
   15      H      -3.6805655251     0.4707669026    -5.0937859941
   16      S      -1.4162958365     0.5563926640    -4.1370006721
 ----------------------------------------------------------------
 Nuclear Repulsion Energy =   629.0216853554 hartrees
 There are       43 alpha and       43 beta electrons
 Applying Cartesian multipole field
    Component          Value
    ---------          -----
     (2,0,0)        1.00000E-11
     (0,2,0)        2.00000E-11
     (0,0,2)       -3.00000E-11
 Nucleus-field energy     =    -0.0000000516 hartrees
 Requested basis set is 6-31++G(d,p)
 There are 76 shells and 234 basis functions
 A cutoff of  1.0D-12 yielded   2529 shell pairs
 There are     24905 function pairs

 Q-Chem warning in module /project/projectdirs/jcesr/qchem/qc44/cnl_qc441/compile/cori/qc_src/libqints/qchem/aobasis.C, line 68:

 Using reconstructed effective core potential

 Smallest overlap matrix eigenvalue = 9.44E-07
 Linear dependence detected in AO basis
 Number of orthogonalized atomic orbitals = 233
 Maximum deviation from orthogonality = 1.336E-10
 Guess MOs from SCF MO coefficient file
 Reading MOs from coefficient file
 Reading MOs from coefficient file
 A restricted hybrid HF-DFT SCF calculation will be
 performed using Pulay DIIS extrapolation
 Exchange:     0.2000 Hartree-Fock + 0.0800 Slater + 0.7200 B88
 Correlation:  0.1900 VWN1RPA + 0.8100 LYP
 Using SG-1 standard quadrature grid
 SCF converges when DIIS error is below 1.0E-08
 Geometry optimization detected.  Setting ReadMinima to 0
 Setting SaveMinima to 0
 ---------------------------------------
  Cycle       Energy         DIIS Error
 ---------------------------------------
    1   -1104.8409910063      3.23E-05
    2   -1104.8408088911      2.34E-06
    3   -1104.8408088026      4.54E-06
    4   -1104.8408089594      6.33E-07
    5   -1104.8408089627      2.40E-07
    6   -1104.8408089612      9.60E-08
    7   -1104.8408089616      3.03E-08
    8   -1104.8408089617      7.40E-09 Convergence criterion met
 ---------------------------------------
 SCF time:  CPU 4.40 s  wall 4.09 s
 SCF   energy in the final basis set = -1104.8408089617
 Total energy in the final basis set = -1104.8408089617
 
 --------------------------------------------------------------
 
                    Orbital Energies (a.u.)
 --------------------------------------------------------------
 
 Alpha MOs
 -- Occupied --
-88.920 -88.920 -10.239 -10.239 -10.225 -10.225 -10.205 -10.205
-10.203 -10.203  -7.979  -7.979  -5.944  -5.944  -5.940  -5.940
 -5.936  -5.936  -0.900  -0.878  -0.772  -0.749  -0.737  -0.706
 -0.604  -0.581  -0.552  -0.534  -0.527  -0.478  -0.420  -0.418
 -0.408  -0.405  -0.401  -0.378  -0.374  -0.358  -0.344  -0.281
 -0.264  -0.259  -0.213
 -- Virtual --
 -0.058  -0.006  -0.004  -0.002   0.007   0.009   0.017   0.022
  0.032   0.035   0.038   0.048   0.049   0.053   0.061   0.064
  0.074   0.084   0.085   0.096   0.098   0.102   0.107   0.109
  0.120   0.125   0.127   0.132   0.132   0.140   0.141   0.141
  0.147   0.157   0.161   0.165   0.169   0.173   0.181   0.186
  0.187   0.202   0.207   0.211   0.218   0.218   0.222   0.225
  0.252   0.254   0.257   0.265   0.266   0.279   0.284   0.300
  0.317   0.320   0.344   0.351   0.351   0.373   0.391   0.406
  0.454   0.465   0.513   0.517   0.542   0.550   0.566   0.585
  0.609   0.614   0.630   0.649   0.656   0.659   0.669   0.681
  0.700   0.718   0.726   0.727   0.741   0.749   0.774   0.785
  0.818   0.819   0.826   0.847   0.866   0.920   0.939   0.947
  0.953   0.955   0.960   0.967   0.982   0.993   0.994   1.018
  1.030   1.041   1.067   1.096   1.106   1.117   1.146   1.157
  1.169   1.178   1.207   1.250   1.260   1.317   1.340   1.347
  1.352   1.356   1.374   1.466   1.467   1.510   1.531   1.584
  1.679   1.692   1.731   1.802   1.862   1.871   1.885   1.916
  1.922   1.938   1.962   2.007   2.048   2.069   2.085   2.116
  2.166   2.178   2.180   2.225   2.244   2.254   2.335   2.362
  2.366   2.417   2.453   2.456   2.466   2.492   2.507   2.527
  2.533   2.565   2.585   2.608   2.666   2.691   2.719   2.748
  2.858   2.869   2.925   2.935   3.145   3.205   3.267   3.274
  3.400   3.427   3.721   3.742   3.973   3.980   4.239   4.295
  4.306   4.319   4.410   4.533   4.658   4.715
 --------------------------------------------------------------
 
          Ground-State Mulliken Net Atomic Charges

     Atom                 Charge (a.u.)
  ----------------------------------------
      1 S                    -0.104621
      2 C                     0.015160
      3 H                     0.196466
      4 C                    -0.355824
      5 H                     0.119935
      6 C                     0.372133
      7 H                     0.122517
      8 C                    -0.366108
      9 C                    -0.363170
     10 C                     0.367598
     11 H                     0.122652
     12 C                    -0.353673
     13 H                     0.119945
     14 C                     0.013821
     15 H                     0.196386
     16 S                    -0.103214
  ----------------------------------------
  Sum of atomic charges =     0.000000

 -----------------------------------------------------------------
                    Cartesian Multipole Moments
 -----------------------------------------------------------------
    Charge (ESU x 10^10)
                 0.0000
    Dipole Moment (Debye)
         X       0.0122      Y      -0.2264      Z      -0.0303
       Tot       0.2287
    Quadrupole Moments (Debye-Ang)
        XX     -62.4120     XY       0.6624     YY     -78.4314
        XZ       3.2105     YZ      -0.8574     ZZ     -67.1362
    Octopole Moments (Debye-Ang^2)
       XXX     130.6719    XXY     -12.5292    XYY      53.0211
       YYY     -25.7984    XXZ     125.1977    XYZ       3.1901
       YYZ     163.6932    XZZ      33.9033    YZZ      -0.2600
       ZZZ     423.2721
    Hexadecapole Moments (Debye-Ang^3)
      XXXX   -1590.8413   XXXY      43.6397   XXYY    -354.4876
      XYYY      27.8143   YYYY    -138.2161   XXXZ    -604.1874
      XXYZ      27.7186   XYYZ    -255.2026   YYYZ     105.2344
      XXZZ    -675.0685   XYZZ     -19.2859   YYZZ    -574.3095
      XZZZ    -569.0893   YZZZ      49.0731   ZZZZ   -2864.6312
 -----------------------------------------------------------------
 Calculating analytic gradient of the SCF energy
 Gradient of SCF Energy
            1           2           3           4           5           6
    1   0.0000000   0.0000083  -0.0000000   0.0000006  -0.0000008   0.0000035
    2  -0.0000606   0.0000015  -0.0000189   0.0000282  -0.0000152   0.0001914
    3  -0.0000014   0.0000024   0.0000016   0.0000055   0.0000006  -0.0000029
            7           8           9          10          11          12
    1  -0.0000010  -0.0000265   0.0000419  -0.0000228   0.0000050  -0.0000036
    2   0.0000111  -0.0001497  -0.0001320   0.0001646  -0.0000315   0.0000193
    3   0.0000008   0.0000258  -0.0000632   0.0000473  -0.0000105  -0.0000005
           13          14          15          16
    1   0.0000055  -0.0000097  -0.0000016   0.0000013
    2  -0.0000306   0.0000259   0.0000193  -0.0000229
    3  -0.0000104   0.0000036   0.0000033  -0.0000020
 Max gradient component =       1.914E-04
 RMS gradient           =       5.063E-05
 Gradient time:  CPU 2.12 s  wall 2.10 s
 Geometry Optimization Parameters
   NAtoms,    NIC,     NZ,  NCons,   NDum,   NFix, NCnnct, MaxDiis
       16     111       0       1       0       0       0       0

 Cartesian Hessian Update
 Hessian Updated using BFGS Update


** CONSTRAINED OPTIMIZATION IN DELOCALIZED INTERNAL COORDINATES **
   Searching for a Minimum

   Optimization Cycle:   6

                       Coordinates (Angstroms)
     ATOM                X               Y               Z
      1  S         0.0046456120    0.0855797398    0.0040988171
      2  C         1.7386100673    0.0208510734    0.0032309878
      3  H         2.2780753566    0.0102643564    0.9402937589
      4  C         2.2413718851   -0.0095699374   -1.2707554077
      5  H         3.3015924691   -0.0517524779   -1.4925813811
      6  C         1.2232220131    0.0059442754   -2.2676656406
      7  H         1.4239171836   -0.0362163388   -3.3323757657
      8  C        -0.0549792469    0.0505290780   -1.7496150788
      9  C        -1.3261609017    0.0713882233   -2.4522775156
     10  C        -2.5829531174   -0.2526103691   -1.9832845679
     11  H        -2.7623706323   -0.5929004886   -0.9694849027
     12  C        -3.6077870617   -0.1228959192   -2.9648287613
     13  H        -4.6529552918   -0.3412638997   -2.7776133045
     14  C        -3.1312020534    0.2961904477   -4.1788201716
     15  H        -3.6805655251    0.4707669026   -5.0937859941
     16  S        -1.4162958365    0.5563926640   -4.1370006721
   Point Group: c1    Number of degrees of freedom:    42


   Energy is  -1104.840808962

              Constraints and their Current Values
                                        Value     Constraint
   Dihedral:        6   8   9  10      160.000      160.000
 Hessian Updated using BFGS Update

 41 Hessian modes will be used to form the next step
  Hessian Eigenvalues:
     0.013542    0.025436    0.045000    0.045000    0.045000    0.045000
     0.045002    0.045004    0.045011    0.045071    0.045924    0.057420
     0.159934    0.159946    0.159994    0.160000    0.160005    0.160132
     0.221283    0.221612    0.237837    0.245034    0.249986    0.250007
     0.294243    0.294606    0.312531    0.312660    0.354766    0.354902
     0.355128    0.355143    0.358240    0.358342    0.379944    0.404880
     0.407570    0.463584    0.464524    0.497933    0.498374

 Minimum Search - Taking Simple RFO Step
 Searching for Lamda that Minimizes Along All modes
 Value Taken    Lamda =   0.00000000
 Step Taken.  Stepsize is  0.002366

                             Maximum     Tolerance    Cnvgd?
         Gradient           0.000051      0.000300     YES
         Displacement       0.001311      0.001200      NO
         Energy change     -0.000000      0.000001     YES

 Final energy is   -1104.84080896166     


 ******************************
 **  OPTIMIZATION CONVERGED  **
 ******************************

                       Coordinates (Angstroms)
     ATOM                X               Y               Z
      1  S         0.0046456120    0.0855797398    0.0040988171
      2  C         1.7386100673    0.0208510734    0.0032309878
      3  H         2.2780753566    0.0102643564    0.9402937589
      4  C         2.2413718851   -0.0095699374   -1.2707554077
      5  H         3.3015924691   -0.0517524779   -1.4925813811
      6  C         1.2232220131    0.0059442754   -2.2676656406
      7  H         1.4239171836   -0.0362163388   -3.3323757657
      8  C        -0.0549792469    0.0505290780   -1.7496150788
      9  C        -1.3261609017    0.0713882233   -2.4522775156
     10  C        -2.5829531174   -0.2526103691   -1.9832845679
     11  H        -2.7623706323   -0.5929004886   -0.9694849027
     12  C        -3.6077870617   -0.1228959192   -2.9648287613
     13  H        -4.6529552918   -0.3412638997   -2.7776133045
     14  C        -3.1312020534    0.2961904477   -4.1788201716
     15  H        -3.6805655251    0.4707669026   -5.0937859941
     16  S        -1.4162958365    0.5563926640   -4.1370006721

Z-matrix Print:
$molecule
0 1
S 
C  1 1.735172
H  2 1.081305 1 119.899907
C  2 1.369940 1 111.594385 3 -179.940381 0
H  4 1.083999 2 123.374744 1 -179.963311 0
C  4 1.425026 2 112.837668 1 -0.582788 0
H  6 1.084280 4 123.660918 2 -178.549828 0
C  6 1.379914 4 113.548831 2 0.104354 0
C  8 1.452609 6 129.010453 4 -179.685394 0
C  9 1.380020 8 128.990982 6 160.000000 0
H  10 1.084333 9 122.827154 8 -0.814034 0
C  10 1.424970 9 113.547781 8 -179.582849 0
H  12 1.084025 10 123.787787 9 179.546694 0
C  12 1.369869 10 112.834650 9 0.130048 0
H  14 1.081406 12 128.496089 10 179.578519 0
S  14 1.735038 12 111.616280 10 -0.604476 0
$end

 
 --------------------------------------------------------------
 
                    Orbital Energies (a.u.)
 --------------------------------------------------------------
 
 Alpha MOs
 -- Occupied --
-88.920 -88.920 -10.239 -10.239 -10.225 -10.225 -10.205 -10.205
-10.203 -10.203  -7.979  -7.979  -5.944  -5.944  -5.940  -5.940
 -5.936  -5.936  -0.900  -0.878  -0.772  -0.749  -0.737  -0.706
 -0.604  -0.581  -0.552  -0.534  -0.527  -0.478  -0.420  -0.418
 -0.408  -0.405  -0.401  -0.378  -0.374  -0.358  -0.344  -0.281
 -0.264  -0.259  -0.213
 -- Virtual --
 -0.058  -0.006  -0.004  -0.002   0.007   0.009   0.017   0.022
  0.032   0.035   0.038   0.048   0.049   0.053   0.061   0.064
  0.074   0.084   0.085   0.096   0.098   0.102   0.107   0.109
  0.120   0.125   0.127   0.132   0.132   0.140   0.141   0.141
  0.147   0.157   0.161   0.165   0.169   0.173   0.181   0.186
  0.187   0.202   0.207   0.211   0.218   0.218   0.222   0.225
  0.252   0.254   0.257   0.265   0.266   0.279   0.284   0.300
  0.317   0.320   0.344   0.351   0.351   0.373   0.391   0.406
  0.454   0.465   0.513   0.517   0.542   0.550   0.566   0.585
  0.609   0.614   0.630   0.649   0.656   0.659   0.669   0.681
  0.700   0.718   0.726   0.727   0.741   0.749   0.774   0.785
  0.818   0.819   0.826   0.847   0.866   0.920   0.939   0.947
  0.953   0.955   0.960   0.967   0.982   0.993   0.994   1.018
  1.030   1.041   1.067   1.096   1.106   1.117   1.146   1.157
  1.169   1.178   1.207   1.250   1.260   1.317   1.340   1.347
  1.352   1.356   1.374   1.466   1.467   1.510   1.531   1.584
  1.679   1.692   1.731   1.802   1.862   1.871   1.885   1.916
  1.922   1.938   1.962   2.007   2.048   2.069   2.085   2.116
  2.166   2.178   2.180   2.225   2.244   2.254   2.335   2.362
  2.366   2.417   2.453   2.456   2.466   2.492   2.507   2.527
  2.533   2.565   2.585   2.608   2.666   2.691   2.719   2.748
  2.858   2.869   2.925   2.935   3.145   3.205   3.267   3.274
  3.400   3.427   3.721   3.742   3.973   3.980   4.239   4.295
  4.306   4.319   4.410   4.533   4.658   4.715
 --------------------------------------------------------------
 
          Ground-State Mulliken Net Atomic Charges

     Atom                 Charge (a.u.)
  ----------------------------------------
      1 S                    -0.104621
      2 C                     0.015160
      3 H                     0.196466
      4 C                    -0.355824
      5 H                     0.119935
      6 C                     0.372133
      7 H                     0.122517
      8 C                    -0.366108
      9 C                    -0.363170
     10 C                     0.367598
     11 H                     0.122652
     12 C                    -0.353673
     13 H                     0.119945
     14 C                     0.013821
     15 H                     0.196386
     16 S                    -0.103214
  ----------------------------------------
  Sum of atomic charges =     0.000000

 -----------------------------------------------------------------
                    Cartesian Multipole Moments
 -----------------------------------------------------------------
    Charge (ESU x 10^10)
                 0.0000
    Dipole Moment (Debye)
         X       0.0122      Y      -0.2264      Z      -0.0303
       Tot       0.2287
    Quadrupole Moments (Debye-Ang)
        XX     -62.4120     XY       0.6624     YY     -78.4314
        XZ       3.2105     YZ      -0.8574     ZZ     -67.1362
    Octopole Moments (Debye-Ang^2)
       XXX     130.6719    XXY     -12.5292    XYY      53.0211
       YYY     -25.7984    XXZ     125.1977    XYZ       3.1901
       YYZ     163.6932    XZZ      33.9033    YZZ      -0.2600
       ZZZ     423.2721
    Hexadecapole Moments (Debye-Ang^3)
      XXXX   -1590.8413   XXXY      43.6397   XXYY    -354.4876
      XYYY      27.8143   YYYY    -138.2161   XXXZ    -604.1874
      XXYZ      27.7186   XYYZ    -255.2026   YYYZ     105.2344
      XXZZ    -675.0685   XYZZ     -19.2859   YYZZ    -574.3095
      XZZZ    -569.0893   YZZZ      49.0731   ZZZZ   -2864.6312
 -----------------------------------------------------------------
Archival summary:
1\1\nid00468\OPT\ProcedureUnspecified\BasisUnspecified\286\bwood\WedMay3102:25:382017WedMay3102:25:382017\0\\#,OPT,ProcedureUnspecified,BasisUnspecified,\\0,1\S\C,1,1.73517\H,2,1.08131,1,119.9\C,2,1.36994,1,111.594,3,-179.94,0\H,4,1.084,2,123.375,1,-179.963,0\C,4,1.42503,2,112.838,1,-0.582788,0\H,6,1.08428,4,123.661,2,-178.55,0\C,6,1.37991,4,113.549,2,0.104354,0\C,8,1.45261,6,129.01,4,-179.685,0\C,9,1.38002,8,128.991,6,160,0\H,10,1.08433,9,122.827,8,-0.814034,0\C,10,1.42497,9,113.548,8,-179.583,0\H,12,1.08403,10,123.788,9,179.547,0\C,12,1.36987,10,112.835,9,0.130048,0\H,14,1.08141,12,128.496,10,179.579,0\S,14,1.73504,12,111.616,10,-0.604476,0\\\@

 Total job time:  48.77s(wall), 47.60s(cpu) 
 Wed May 31 02:25:38 2017

        *************************************************************
        *                                                           *
        *  Thank you very much for using Q-Chem.  Have a nice day.  *
        *                                                           *
        *************************************************************


0 sent ACK to 0 
now end server 0 ... 
