srun -N 1 --ntasks-per-node 16 --cpus-per-task 4 --cpu_bind=cores --nodelist nid00477 /global/project/projectdirs/jcesr/qchem/qc44/cnl_qc441/dist/exe/qcprog.cori.haswell.exe .pt_n2_neutral_-60.0.in.49036.qcin.1 /global/cscratch1/sd/bwood/qchem/nx/qchem49036/
Process 1 of 16 is on nid00477 - thread support 0
Process 3 of 16 is on nid00477 - thread support 0
Process 4 of 16 is on nid00477 - thread support 0
Process 5 of 16 is on nid00477 - thread support 0
Process 6 of 16 is on nid00477 - thread support 0
Process 0 of 16 is on nid00477 - thread support 0
initial socket setup ...start
Process 2 of 16 is on nid00477 - thread support 0
Process 15 of 16 is on nid00477 - thread support 0
initial socket setup ...done 
now start server 0 ... 
nid00477 10.128.1
Q-Chem Developer Version! Running on 10.128.1.*
                  Welcome to Q-Chem
     A Quantum Leap Into The Future Of Chemistry


 Q-Chem 4.4, Q-Chem, Inc., Pleasanton, CA (2016)

 Y. Shao,  Z. Gan,  E. Epifanovsky,  A. T. B. Gilbert,  M. Wormit,  
 J. Kussmann,  A. W. Lange,  A. Behn,  J. Deng,  X. Feng,  D. Ghosh,  
 M. Goldey,  P. R. Horn,  L. D. Jacobson,  I. Kaliman,  F. Rob,  
 R. Z. Khaliullin,  T. Kus,  A. Landau,  J. Liu,  E. I. Proynov,  Y. M. Rhee,  
 R. M. Richard,  M. A. Rohrdanz,  R. P. Steele,  E. J. Sundstrom,  
 H. L. Woodcock III,  P. M. Zimmerman,  D. Zuev,  B. Albrecht,  E. Alguire,  
 B. Austin,  S. A. Baeppler,  G. J. O. Beran,  Y. A. Bernard,  
 E. J. Berquist,  K. Brandhorst,  K. B. Bravaya,  S. T. Brown,  D. Casanova,  
 C.-M. Chang,  Y. Chen,  S. H. Chien,  K. D. Closser,  M. P. Coons,  
 D. L. Crittenden,  S. Dasgupta,  M. Diedenhofen,  R. A. DiStasio Jr.,  
 H. Do,  A. D. Dutoi,  R. G. Edgar,  P.-T. Fang,  S. Fatehi,  Q. Feng,  
 L. Fusti-Molnar,  A. Ghysels,  A. Golubeva-Zadorozhnaya,  J. Gomes,  
 A. Gunina,  M. W. D. Hanson-Heine,  P. H. P. Harbach,  A. W. Hauser,  
 J. E. Herr,  E. G. Hohenstein,  Z. C. Holden,  K. Hui,  T.-C. Jagau,  H. Ji,  
 B. Kaduk,  K. Khistyaev,  Jaehoon Kim,  Jihan Kim,  R. A. King,  
 P. Klunzinger,  K. Koh,  D. Kosenkov,  T. Kowalczyk,  C. M. Krauter,  
 A. Kunitsa,  K. U. Lao,  A. Laurent,  K. V. Lawler,  J. Lee,  D. Lefrancois,  
 S. Lehtola,  S. V. Levchenko,  C. Y. Lin,  Y.-S. Lin,  F. Liu,  E. Livshits,  
 R. C. Lochan,  A. Luenser,  P. Manohar,  S. F. Manzer,  S.-P. Mao,  Y. Mao,  
 N. Mardirossian,  A. V. Marenich,  L. A. Martinez-Martinez,  S. A. Maurer,  
 N. J. Mayhall,  J.-M. Mewes,  A. F. Morrison,  K. Nanda,  T. S. Nguyen-Beck,  
 C. M. Oana,  R. Olivares-Amaya,  D. P. O'Neill,  J. A. Parkhill,  
 T. M. Perrine,  R. Peverati,  P. A. Pieniazek,  F. Plasser,  A. Prociuk,  
 D. R. Rehn,  E. Rosta,  N. J. Russ,  N. Sergueev,  S. M. Sharada,  
 S. Sharma,  D. W. Small,  A. Sodt,  T. Stauch,  T. Stein,  D. Stuck,  
 Y.-C. Su,  A. J. W. Thom,  T. Tsuchimochi,  L. Vogt,  O. Vydrov,  T. Wang,  
 M. A. Watson,  J. Wenzel,  A. White,  C. F. Williams,  V. Vanovschi,  
 K. Yao,  S. Yeganeh,  S. R. Yost,  Z.-Q. You,  I. Y. Zhang,  X. Zhang,  
 Y. Zhao,  B. R. Brooks,  G. K. L. Chan,  D. M. Chipman,  C. J. Cramer,  
 W. A. Goddard III,  M. S. Gordon,  W. J. Hehre,  A. Klamt,  
 H. F. Schaefer III,  M. W. Schmidt,  C. D. Sherrill,  D. G. Truhlar,  
 A. Warshel,  X. Xu,  A. Aspuru-Guzik,  R. Baer,  A. T. Bell,  N. A. Besley,  
 J.-D. Chai,  A. Dreuw,  B. D. Dunietz,  T. R. Furlani,  S. R. Gwaltney,  
 C.-P. Hsu,  Y. Jung,  J. Kong,  D. S. Lambrecht,  W. Liang,  C. Ochsenfeld,  
 V. A. Rassolov,  L. V. Slipchenko,  J. E. Subotnik,  T. Van Voorhis,  
 J. M. Herbert,  A. I. Krylov,  P. M. W. Gill,  M. Head-Gordon

 Contributors to earlier versions of Q-Chem not listed above: 
 R. D. Adamson,  J. Baker,  E. F. C. Byrd,  A. K. Chakraborty,  C.-L. Cheng,  
 H. Dachsel,  R. J. Doerksen,  G. Hawkins,  A. Heyden,  S. Hirata,  
 G. Kedziora,  F. J. Keil,  C. Kelley,  P. P. Korambath,  W. Kurlancheek,  
 A. M. Lee,  M. S. Lee,  D. Liotard,  I. Lotan,  P. E. Maslen,  N. Nair,  
 D. Neuhauser,  R. Olson,  B. Peters,  J. Ritchie,  N. E. Schultz,  
 N. Shenvi,  A. C. Simmonett,  K. S. Thanthiriwatte,  Q. Wu,  W. Zhang

 Please cite Q-Chem as follows:
 Y. Shao et al., Mol. Phys. 113, 184-215 (2015)
 DOI: 10.1080/00268976.2014.952696

 Q-Chem 4.4.2 for Intel X86 EM64T Linux

 Parts of Q-Chem use Armadillo 5.200.1 (Boston Tea Smuggler).
 http://arma.sourceforge.net/

 Q-Chem begins on Wed May 31 02:24:50 2017  

Host: nid00447
0

     Scratch files written to /global/cscratch1/sd/bwood/qchem/nx/qchem49036.0//
 Parallel job on  16  processors

Checking the input file for inconsistencies... 	...done.

--------------------------------------------------------------
User input:
--------------------------------------------------------------
$molecule
 0  1
 S           0.00238887        0.06077275        0.00183269
 C           1.73707619        0.03315849        0.00323229
 H           2.27612737        0.05289032        0.94042557
 C           2.24169204       -0.01546201       -1.26965798
 H           3.30285780       -0.04005365       -1.48972496
 C           1.22479222       -0.01612968       -2.26811464
 H           1.42674790       -0.02650987       -3.33334501
 C          -0.05393771        0.02880388       -1.75170966
 C          -1.32450815        0.04889988       -2.45636342
 C          -1.79883960        0.97274763       -3.36496313
 H          -1.22187262        1.83472752       -3.68106098
 C          -3.09682063        0.66350552       -3.86546218
 H          -3.62334704        1.27107184       -4.59259885
 C          -3.60757264       -0.49396988       -3.33961309
 H          -4.55889298       -0.96461282       -3.54689572
 S          -2.51254250       -1.21860328       -2.20588000
$end


$rem
         jobtype = opt
        exchange = b3lyp
           basis = 6-31++g**
  max_scf_cycles = 150
      mem_static = 775
       mem_total = 7750
      sym_ignore = true
        symmetry = false
          thresh = 12
$end


$opt
CONSTRAINT
tors 6 8 9 10 -60.0
ENDCONSTRAINT
$end

--------------------------------------------------------------
 ----------------------------------------------------------------
             Standard Nuclear Orientation (Angstroms)
    I     Atom           X                Y                Z
 ----------------------------------------------------------------
    1      S       0.0023888700     0.0607727500     0.0018326900
    2      C       1.7370761900     0.0331584900     0.0032322900
    3      H       2.2761273700     0.0528903200     0.9404255700
    4      C       2.2416920400    -0.0154620100    -1.2696579800
    5      H       3.3028578000    -0.0400536500    -1.4897249600
    6      C       1.2247922200    -0.0161296800    -2.2681146400
    7      H       1.4267479000    -0.0265098700    -3.3333450100
    8      C      -0.0539377100     0.0288038800    -1.7517096600
    9      C      -1.3245081500     0.0488998800    -2.4563634200
   10      C      -1.7988396000     0.9727476300    -3.3649631300
   11      H      -1.2218726200     1.8347275200    -3.6810609800
   12      C      -3.0968206300     0.6635055200    -3.8654621800
   13      H      -3.6233470400     1.2710718400    -4.5925988500
   14      C      -3.6075726400    -0.4939698800    -3.3396130900
   15      H      -4.5588929800    -0.9646128200    -3.5468957200
   16      S      -2.5125425000    -1.2186032800    -2.2058800000
 ----------------------------------------------------------------
 Nuclear Repulsion Energy =   630.1914764864 hartrees
 There are       43 alpha and       43 beta electrons
 Requested basis set is 6-31++G(d,p)
 There are 76 shells and 234 basis functions

 Total QAlloc Memory Limit   7750 MB
 Mega-Array Size       758 MB
 MEM_STATIC part       775 MB
 A cutoff of  1.0D-12 yielded   2523 shell pairs
 There are     24905 function pairs

 Q-Chem warning in module /project/projectdirs/jcesr/qchem/qc44/cnl_qc441/compile/cori/qc_src/libqints/qchem/aobasis.C, line 68:

 Using reconstructed effective core potential

 
 -------------------------------------------------------
 OpenMP Integral Computing Module                       
 Release: version 1.0, May 2013, Q-Chem Inc. Pittsburgh 
 -------------------------------------------------------
 Integral Job Info:
 Integral job number is                      11
 Integral operator is                         1
 short-range coefficients                     0
 long-range coefficients              100000000
 Omega coefficients                           0
 if combine SR and LR in K                    0
 Integral screening is                        0
 Integral computing path is                   2
 max size of driver memory is            800000
 size of driver memory is                593474
 size of scratch memory is             15166112
 max col of scratch BK array               1296
 max len of scratch array in speh3          155
 max len of scratch index in speh4           18
 max int batch size is                      520
 min int batch size is                       52
 fixed nKL is                                52
 max L of basis functions is                  2
 order of int derivative is                   0
 number of shells is                         76
 number of basis is                         234
 number of cartesian basis is               234
 number of contracted shell pairs          2523
 number of primitive shell pairs           8223
 maxK2 (contraction) of shell pair           36
 max number of K2 of shell pair               1
 max number of CS2 of shell pair            260
 max number of PS2 of shell pair           1500
 mem total for path MDJ                   51992
 -------------------------------------------------------
 Smallest overlap matrix eigenvalue = 1.10E-06

 Scale SEOQF with 1.000000e-01/1.000000e-01/1.000000e-01

 Standard Electronic Orientation quadrupole field applied
 Nucleus-field energy     =    -0.0000000329 hartrees
 Guess from superposition of atomic densities
 Warning:  Energy on first SCF cycle will be non-variational
 A restricted hybrid HF-DFT SCF calculation will be
 performed using Pulay DIIS extrapolation
 Exchange:     0.2000 Hartree-Fock + 0.0800 Slater + 0.7200 B88
 Correlation:  0.1900 VWN1RPA + 0.8100 LYP
 Using SG-1 standard quadrature grid
 SCF converges when DIIS error is below 1.0E-08
 ---------------------------------------
  Cycle       Energy         DIIS Error
 ---------------------------------------
    1   -1107.1921087520      4.41E-02
    2   -1104.6584176093      4.84E-03
    3   -1104.3553574071      7.73E-03
    4   -1104.8251366537      1.26E-03
    5   -1104.8353975695      6.15E-04
    6   -1104.8376262334      2.63E-04
    7   -1104.8381310003      8.96E-05
    8   -1104.8381881284      1.71E-05
    9   -1104.8381902542      1.97E-06
   10   -1104.8381902837      8.12E-07
   11   -1104.8381902888      4.22E-07
   12   -1104.8381902891      8.70E-08
   13   -1104.8381902896      3.56E-08
   14   -1104.8381902895      8.95E-09 Convergence criterion met
 ---------------------------------------
 SCF time:  CPU 7.80 s  wall 7.27 s
 SCF   energy in the final basis set = -1104.8381902895
 Total energy in the final basis set = -1104.8381902895
 
 --------------------------------------------------------------
 
                    Orbital Energies (a.u.)
 --------------------------------------------------------------
 
 Alpha MOs
 -- Occupied --
-88.919 -88.919 -10.236 -10.236 -10.225 -10.224 -10.204 -10.204
-10.203 -10.203  -7.978  -7.978  -5.942  -5.942  -5.939  -5.939
 -5.936  -5.936  -0.899  -0.877  -0.770  -0.745  -0.739  -0.705
 -0.603  -0.572  -0.560  -0.534  -0.524  -0.477  -0.419  -0.415
 -0.412  -0.405  -0.396  -0.374  -0.374  -0.353  -0.348  -0.263
 -0.262  -0.258  -0.226
 -- Virtual --
 -0.045  -0.023  -0.006  -0.002   0.005   0.015   0.018   0.026
  0.028   0.035   0.036   0.043   0.046   0.047   0.061   0.066
  0.071   0.073   0.089   0.098   0.102   0.103   0.107   0.116
  0.116   0.119   0.122   0.132   0.132   0.134   0.139   0.145
  0.148   0.149   0.158   0.161   0.165   0.174   0.177   0.182
  0.185   0.189   0.198   0.200   0.212   0.220   0.227   0.230
  0.236   0.248   0.262   0.262   0.271   0.277   0.299   0.307
  0.311   0.317   0.318   0.332   0.354   0.366   0.372   0.397
  0.433   0.460   0.471   0.506   0.524   0.524   0.552   0.569
  0.574   0.599   0.612   0.639   0.655   0.656   0.671   0.672
  0.697   0.699   0.723   0.727   0.738   0.754   0.757   0.767
  0.782   0.800   0.809   0.827   0.844   0.895   0.904   0.943
  0.954   0.956   0.959   0.969   0.969   0.990   0.991   1.013
  1.017   1.034   1.049   1.057   1.084   1.098   1.099   1.107
  1.129   1.181   1.200   1.222   1.237   1.280   1.331   1.346
  1.352   1.356   1.359   1.391   1.439   1.466   1.506   1.535
  1.582   1.692   1.692   1.790   1.794   1.869   1.888   1.888
  1.911   1.925   1.932   1.962   2.017   2.027   2.069   2.070
  2.137   2.163   2.179   2.218   2.218   2.250   2.252   2.312
  2.365   2.369   2.436   2.446   2.462   2.469   2.492   2.510
  2.515   2.540   2.584   2.588   2.618   2.642   2.697   2.708
  2.765   2.799   2.871   2.885   2.948   3.152   3.191   3.271
  3.273   3.404   3.427   3.719   3.744   3.959   3.985   4.273
  4.313   4.320   4.330   4.425   4.536   4.658   4.716
 --------------------------------------------------------------
 
          Ground-State Mulliken Net Atomic Charges

     Atom                 Charge (a.u.)
  ----------------------------------------
      1 S                     0.018591
      2 C                    -0.038861
      3 H                     0.188602
      4 C                    -0.421160
      5 H                     0.116352
      6 C                     0.323531
      7 H                     0.141419
      8 C                    -0.331659
      9 C                    -0.326000
     10 C                     0.324356
     11 H                     0.141520
     12 C                    -0.420858
     13 H                     0.116374
     14 C                    -0.038758
     15 H                     0.188573
     16 S                     0.017977
  ----------------------------------------
  Sum of atomic charges =    -0.000000

 -----------------------------------------------------------------
                    Cartesian Multipole Moments
 -----------------------------------------------------------------
    Charge (ESU x 10^10)
                -0.0000
    Dipole Moment (Debye)
         X       0.4015      Y       0.4391      Z      -0.7141
       Tot       0.9295
    Quadrupole Moments (Debye-Ang)
        XX     -64.1273     XY       0.7202     YY     -74.9385
        XZ       4.3608     YZ      -2.9508     ZZ     -66.3737
    Octopole Moments (Debye-Ang^2)
       XXX     159.9616    XXY      -2.1338    XYY      52.1846
       YYY      23.6170    XXZ     105.6994    XYZ       2.0437
       YYZ     134.7797    XZZ      44.8178    YZZ      23.6272
       ZZZ     392.9362
    Hexadecapole Moments (Debye-Ang^3)
      XXXX   -1786.1992   XXXY     -27.7667   XXYY    -375.8195
      XYYY     -79.9993   YYYY    -288.9588   XXXZ    -585.2962
      XXYZ      10.9535   XYYZ    -222.0313   YYYZ     -30.8950
      XXZZ    -594.9705   XYZZ     -52.8450   YYZZ    -434.7434
      XZZZ    -653.4532   YZZZ     -98.0999   ZZZZ   -2371.6233
 -----------------------------------------------------------------
 Calculating analytic gradient of the SCF energy
 Gradient of SCF Energy
            1           2           3           4           5           6
    1  -0.0018055   0.0013798  -0.0002966  -0.0006320  -0.0000803   0.0022302
    2  -0.0005399   0.0014136   0.0006683  -0.0020760   0.0001143  -0.0031298
    3  -0.0005787  -0.0005417  -0.0000169  -0.0006540   0.0000096   0.0005284
            7           8           9          10          11          12
    1   0.0009352  -0.0066543   0.0063233  -0.0032028   0.0000123   0.0001981
    2   0.0016228   0.0012439  -0.0019391   0.0022573  -0.0005219   0.0014065
    3   0.0000839  -0.0020412   0.0032096   0.0009717  -0.0018374   0.0018011
           13          14          15          16
    1   0.0000897   0.0000213   0.0004614   0.0010201
    2  -0.0001084   0.0000822  -0.0004663  -0.0000274
    3  -0.0000072  -0.0021363  -0.0003053   0.0015145
 Max gradient component =       6.654E-03
 RMS gradient           =       1.882E-03
 Gradient time:  CPU 2.07 s  wall 2.10 s
 Geometry Optimization Parameters
   NAtoms,    NIC,     NZ,  NCons,   NDum,   NFix, NCnnct, MaxDiis
       16     111       0       1       0       0       0       0


** CONSTRAINED OPTIMIZATION IN DELOCALIZED INTERNAL COORDINATES **
   Searching for a Minimum

   Optimization Cycle:   1

                       Coordinates (Angstroms)
     ATOM                X               Y               Z
      1  S         0.0023888700    0.0607727500    0.0018326900
      2  C         1.7370761900    0.0331584900    0.0032322900
      3  H         2.2761273700    0.0528903200    0.9404255700
      4  C         2.2416920400   -0.0154620100   -1.2696579800
      5  H         3.3028578000   -0.0400536500   -1.4897249600
      6  C         1.2247922200   -0.0161296800   -2.2681146400
      7  H         1.4267479000   -0.0265098700   -3.3333450100
      8  C        -0.0539377100    0.0288038800   -1.7517096600
      9  C        -1.3245081500    0.0488998800   -2.4563634200
     10  C        -1.7988396000    0.9727476300   -3.3649631300
     11  H        -1.2218726200    1.8347275200   -3.6810609800
     12  C        -3.0968206300    0.6635055200   -3.8654621800
     13  H        -3.6233470400    1.2710718400   -4.5925988500
     14  C        -3.6075726400   -0.4939698800   -3.3396130900
     15  H        -4.5588929800   -0.9646128200   -3.5468957200
     16  S        -2.5125425000   -1.2186032800   -2.2058800000
   Point Group: c1    Number of degrees of freedom:    42


   Energy is  -1104.838190290

              Constraints and their Current Values
                                        Value     Constraint
   Dihedral:        6   8   9  10      -60.000      -60.000

 Attempting to Generate Delocalized Internal Coordinates

 41 Hessian modes will be used to form the next step
  Hessian Eigenvalues:
     0.045000    0.045000    0.045000    0.045000    0.045000    0.045000
     0.045002    0.045002    0.045003    0.045004    0.045011    0.045012
     0.159943    0.159949    0.159991    0.159992    0.160000    0.160000
     0.221282    0.221282    0.237835    0.237839    0.250000    0.250000
     0.294264    0.294663    0.312518    0.312618    0.354736    0.354850
     0.355125    0.355132    0.358226    0.358329    0.378510    0.404854
     0.404909    0.463547    0.463616    0.497922    0.497945

 Minimum Search - Taking Simple RFO Step
 Searching for Lamda that Minimizes Along All modes
 Value Taken    Lamda =  -0.00055017
 Step Taken.  Stepsize is  0.085310

                             Maximum     Tolerance    Cnvgd?
         Gradient           0.004226      0.000300      NO
         Displacement       0.063384      0.001200      NO
         Energy change     *********      0.000001      NO


 New Cartesian Coordinates Obtained by Inverse Iteration

 Displacement from previous Coordinates is:  0.116648
 ----------------------------------------------------------------
             Standard Nuclear Orientation (Angstroms)
    I     Atom           X                Y                Z
 ----------------------------------------------------------------
    1      S       0.0104911721     0.0645853362     0.0118208754
    2      C       1.7434693167     0.0292509690     0.0061301924
    3      H       2.2881801200     0.0336919516     0.9405023731
    4      C       2.2422911366     0.0013220241    -1.2700183238
    5      H       3.3024848318    -0.0240580655    -1.4952074230
    6      C       1.2194787728    -0.0042260102    -2.2644212596
    7      H       1.4098746351    -0.0265958019    -3.3314738907
    8      C      -0.0543753350     0.0330403489    -1.7428914318
    9      C      -1.3285719286     0.0399081489    -2.4580654748
   10      C      -1.7929107243     0.9612273679    -3.3700398054
   11      H      -1.2120014692     1.8261689996    -3.6697795526
   12      C      -3.0903981586     0.6551321648    -3.8780663844
   13      H      -3.6133893594     1.2665827791    -4.6047289023
   14      C      -3.6150701627    -0.4908716295    -3.3401340653
   15      H      -4.5743784856    -0.9487052990    -3.5402587426
   16      S      -2.5218258418    -1.2252166441    -2.2132672547
 ----------------------------------------------------------------
 Nuclear Repulsion Energy =   629.5018541159 hartrees
 There are       43 alpha and       43 beta electrons
 Applying Cartesian multipole field
    Component          Value
    ---------          -----
     (2,0,0)        1.00000E-11
     (0,2,0)        2.00000E-11
     (0,0,2)       -3.00000E-11
 Nucleus-field energy     =    -0.0000000330 hartrees
 Requested basis set is 6-31++G(d,p)
 There are 76 shells and 234 basis functions
 A cutoff of  1.0D-12 yielded   2527 shell pairs
 There are     24941 function pairs

 Q-Chem warning in module /project/projectdirs/jcesr/qchem/qc44/cnl_qc441/compile/cori/qc_src/libqints/qchem/aobasis.C, line 68:

 Using reconstructed effective core potential

 Smallest overlap matrix eigenvalue = 1.18E-06
 Guess MOs from SCF MO coefficient file
 Reading MOs from coefficient file
 Reading MOs from coefficient file
 A restricted hybrid HF-DFT SCF calculation will be
 performed using Pulay DIIS extrapolation
 Exchange:     0.2000 Hartree-Fock + 0.0800 Slater + 0.7200 B88
 Correlation:  0.1900 VWN1RPA + 0.8100 LYP
 Using SG-1 standard quadrature grid
 SCF converges when DIIS error is below 1.0E-08
 Geometry optimization detected.  Setting ReadMinima to 0
 Setting SaveMinima to 0
 ---------------------------------------
  Cycle       Energy         DIIS Error
 ---------------------------------------
    1   -1104.8384300760      7.20E-04
    2   -1104.8384128748      1.16E-04
    3   -1104.8380266789      2.55E-04
    4   -1104.8385227986      2.51E-05
    5   -1104.8385269919      9.30E-06
    6   -1104.8385276109      2.63E-06
    7   -1104.8385276542      1.49E-06
    8   -1104.8385276721      3.08E-07
    9   -1104.8385276733      5.04E-08
   10   -1104.8385276715      2.23E-08
   11   -1104.8385276721      6.28E-09 Convergence criterion met
 ---------------------------------------
 SCF time:  CPU 6.12 s  wall 5.73 s
 SCF   energy in the final basis set = -1104.8385276721
 Total energy in the final basis set = -1104.8385276721
 
 --------------------------------------------------------------
 
                    Orbital Energies (a.u.)
 --------------------------------------------------------------
 
 Alpha MOs
 -- Occupied --
-88.919 -88.919 -10.237 -10.236 -10.225 -10.225 -10.204 -10.204
-10.203 -10.203  -7.978  -7.978  -5.943  -5.943  -5.939  -5.939
 -5.936  -5.936  -0.898  -0.877  -0.769  -0.745  -0.739  -0.705
 -0.602  -0.572  -0.560  -0.534  -0.524  -0.477  -0.419  -0.415
 -0.411  -0.405  -0.395  -0.375  -0.374  -0.353  -0.348  -0.263
 -0.262  -0.258  -0.226
 -- Virtual --
 -0.045  -0.021  -0.006  -0.002   0.005   0.015   0.018   0.026
  0.028   0.034   0.036   0.043   0.046   0.047   0.061   0.066
  0.071   0.073   0.089   0.098   0.102   0.102   0.107   0.116
  0.116   0.119   0.122   0.132   0.132   0.134   0.139   0.145
  0.147   0.149   0.157   0.161   0.165   0.174   0.177   0.182
  0.184   0.189   0.198   0.200   0.212   0.220   0.226   0.231
  0.236   0.247   0.262   0.262   0.272   0.276   0.298   0.306
  0.311   0.316   0.319   0.331   0.355   0.366   0.372   0.396
  0.434   0.460   0.472   0.503   0.524   0.525   0.552   0.571
  0.574   0.600   0.610   0.640   0.653   0.655   0.671   0.671
  0.696   0.700   0.723   0.727   0.737   0.754   0.757   0.764
  0.782   0.800   0.808   0.826   0.844   0.896   0.903   0.945
  0.954   0.957   0.958   0.969   0.970   0.991   0.992   1.013
  1.017   1.034   1.049   1.056   1.083   1.098   1.099   1.108
  1.128   1.181   1.199   1.222   1.237   1.281   1.329   1.348
  1.353   1.358   1.360   1.389   1.442   1.461   1.503   1.534
  1.578   1.691   1.693   1.787   1.788   1.873   1.885   1.887
  1.911   1.926   1.932   1.962   2.017   2.024   2.067   2.073
  2.136   2.164   2.181   2.216   2.219   2.247   2.250   2.313
  2.365   2.370   2.434   2.447   2.462   2.467   2.491   2.512
  2.514   2.539   2.583   2.588   2.616   2.642   2.694   2.709
  2.765   2.799   2.870   2.883   2.944   3.151   3.190   3.269
  3.272   3.404   3.425   3.719   3.744   3.958   3.983   4.273
  4.312   4.322   4.329   4.423   4.535   4.657   4.714
 --------------------------------------------------------------
 
          Ground-State Mulliken Net Atomic Charges

     Atom                 Charge (a.u.)
  ----------------------------------------
      1 S                     0.021586
      2 C                    -0.037071
      3 H                     0.188938
      4 C                    -0.428871
      5 H                     0.116280
      6 C                     0.326605
      7 H                     0.142631
      8 C                    -0.334231
      9 C                    -0.326871
     10 C                     0.326777
     11 H                     0.142724
     12 C                    -0.427519
     13 H                     0.116351
     14 C                    -0.037427
     15 H                     0.188859
     16 S                     0.021240
  ----------------------------------------
  Sum of atomic charges =     0.000000

 -----------------------------------------------------------------
                    Cartesian Multipole Moments
 -----------------------------------------------------------------
    Charge (ESU x 10^10)
                 0.0000
    Dipole Moment (Debye)
         X       0.3947      Y       0.4309      Z      -0.7022
       Tot       0.9136
    Quadrupole Moments (Debye-Ang)
        XX     -64.0527     XY       0.6370     YY     -74.9663
        XZ       4.3705     YZ      -2.9797     ZZ     -66.4879
    Octopole Moments (Debye-Ang^2)
       XXX     159.2554    XXY      -2.0605    XYY      52.3449
       YYY      23.6565    XXZ     105.7615    XYZ       2.1135
       YYZ     134.9224    XZZ      45.0613    YZZ      23.6293
       ZZZ     393.5693
    Hexadecapole Moments (Debye-Ang^3)
      XXXX   -1785.5357   XXXY     -30.8148   XXYY    -377.2395
      XYYY     -83.2169   YYYY    -288.7761   XXXZ    -586.1827
      XXYZ       9.9540   XYYZ    -223.6188   YYYZ     -31.9297
      XXZZ    -597.4320   XYZZ     -54.5251   YYZZ    -436.4493
      XZZZ    -657.3809   YZZZ     -99.4111   ZZZZ   -2380.5071
 -----------------------------------------------------------------
 Calculating analytic gradient of the SCF energy
 Gradient of SCF Energy
            1           2           3           4           5           6
    1   0.0000311   0.0006365  -0.0000856  -0.0005211  -0.0000034   0.0000779
    2   0.0005393   0.0000139   0.0001413  -0.0001573   0.0000109  -0.0028935
    3  -0.0000001   0.0004197   0.0000879  -0.0000873   0.0000031   0.0004498
            7           8           9          10          11          12
    1   0.0002262  -0.0007603   0.0017538  -0.0016045   0.0002812   0.0003649
    2   0.0010220   0.0019671  -0.0008813   0.0012978  -0.0004833  -0.0000297
    3   0.0000069  -0.0006467  -0.0010450   0.0021300  -0.0008986   0.0004113
           13          14          15          16
    1   0.0000068  -0.0006408   0.0000588   0.0001785
    2   0.0000082  -0.0000563  -0.0001591  -0.0003400
    3  -0.0000198  -0.0003863  -0.0000373  -0.0003876
 Max gradient component =       2.893E-03
 RMS gradient           =       8.141E-04
 Gradient time:  CPU 2.08 s  wall 2.06 s
 Geometry Optimization Parameters
   NAtoms,    NIC,     NZ,  NCons,   NDum,   NFix, NCnnct, MaxDiis
       16     111       0       1       0       0       0       0

 Cartesian Hessian Update
 Hessian Updated using BFGS Update


** CONSTRAINED OPTIMIZATION IN DELOCALIZED INTERNAL COORDINATES **
   Searching for a Minimum

   Optimization Cycle:   2

                       Coordinates (Angstroms)
     ATOM                X               Y               Z
      1  S         0.0104911721    0.0645853362    0.0118208754
      2  C         1.7434693167    0.0292509690    0.0061301924
      3  H         2.2881801200    0.0336919516    0.9405023731
      4  C         2.2422911366    0.0013220241   -1.2700183238
      5  H         3.3024848318   -0.0240580655   -1.4952074230
      6  C         1.2194787728   -0.0042260102   -2.2644212596
      7  H         1.4098746351   -0.0265958019   -3.3314738907
      8  C        -0.0543753350    0.0330403489   -1.7428914318
      9  C        -1.3285719286    0.0399081489   -2.4580654748
     10  C        -1.7929107243    0.9612273679   -3.3700398054
     11  H        -1.2120014692    1.8261689996   -3.6697795526
     12  C        -3.0903981586    0.6551321648   -3.8780663844
     13  H        -3.6133893594    1.2665827791   -4.6047289023
     14  C        -3.6150701627   -0.4908716295   -3.3401340653
     15  H        -4.5743784856   -0.9487052990   -3.5402587426
     16  S        -2.5218258418   -1.2252166441   -2.2132672547
   Point Group: c1    Number of degrees of freedom:    42


   Energy is  -1104.838527672

              Constraints and their Current Values
                                        Value     Constraint
   Dihedral:        6   8   9  10      -60.000      -60.000
 Hessian Updated using BFGS Update

 35 Hessian modes will be used to form the next step
  Hessian Eigenvalues:
     0.031880    0.045000    0.045001    0.045007    0.045012    0.050461
     0.157322    0.159947    0.159991    0.159992    0.160000    0.160078
     0.218571    0.221289    0.227190    0.237848    0.245772    0.250033
     0.294399    0.296787    0.312570    0.313390    0.354739    0.354850
     0.355126    0.355140    0.358238    0.358348    0.391728    0.404878
     0.408437    0.463581    0.469794    0.497931    0.499301

 Minimum Search - Taking Simple RFO Step
 Searching for Lamda that Minimizes Along All modes
 Value Taken    Lamda =  -0.00011440
 Step Taken.  Stepsize is  0.053556

                             Maximum     Tolerance    Cnvgd?
         Gradient           0.001663      0.000300      NO
         Displacement       0.033353      0.001200      NO
         Energy change     -0.000337      0.000001      NO


 New Cartesian Coordinates Obtained by Inverse Iteration

 Displacement from previous Coordinates is:  0.064412
 ----------------------------------------------------------------
             Standard Nuclear Orientation (Angstroms)
    I     Atom           X                Y                Z
 ----------------------------------------------------------------
    1      S       0.0110644471     0.0602041917     0.0169520747
    2      C       1.7437662092     0.0305435418     0.0041145604
    3      H       2.2920058561     0.0288716538     0.9363942693
    4      C       2.2409806530     0.0102364881    -1.2728748581
    5      H       3.3006393279    -0.0157231643    -1.5005984277
    6      C       1.2145802532     0.0020793051    -2.2637427858
    7      H       1.3980636931    -0.0324573902    -3.3316366734
    8      C      -0.0567497296     0.0346549147    -1.7371828156
    9      C      -1.3301371122     0.0333800073    -2.4570105099
   10      C      -1.7874366252     0.9549661541    -3.3714102184
   11      H      -1.2064818770     1.8243788269    -3.6576654930
   12      C      -3.0841288979     0.6519220691    -3.8839095379
   13      H      -3.6053440721     1.2655714617    -4.6099947998
   14      C      -3.6136812877    -0.4897489626    -3.3414570501
   15      H      -4.5764279753    -0.9410643745    -3.5397763746
   16      S      -2.5273643426    -1.2265780826    -2.2101004300
 ----------------------------------------------------------------
 Nuclear Repulsion Energy =   629.4730493360 hartrees
 There are       43 alpha and       43 beta electrons
 Applying Cartesian multipole field
    Component          Value
    ---------          -----
     (2,0,0)        1.00000E-11
     (0,2,0)        2.00000E-11
     (0,0,2)       -3.00000E-11
 Nucleus-field energy     =    -0.0000000330 hartrees
 Requested basis set is 6-31++G(d,p)
 There are 76 shells and 234 basis functions
 A cutoff of  1.0D-12 yielded   2527 shell pairs
 There are     24941 function pairs

 Q-Chem warning in module /project/projectdirs/jcesr/qchem/qc44/cnl_qc441/compile/cori/qc_src/libqints/qchem/aobasis.C, line 68:

 Using reconstructed effective core potential

 Smallest overlap matrix eigenvalue = 1.20E-06
 Guess MOs from SCF MO coefficient file
 Reading MOs from coefficient file
 Reading MOs from coefficient file
 A restricted hybrid HF-DFT SCF calculation will be
 performed using Pulay DIIS extrapolation
 Exchange:     0.2000 Hartree-Fock + 0.0800 Slater + 0.7200 B88
 Correlation:  0.1900 VWN1RPA + 0.8100 LYP
 Using SG-1 standard quadrature grid
 SCF converges when DIIS error is below 1.0E-08
 Geometry optimization detected.  Setting ReadMinima to 0
 Setting SaveMinima to 0
 ---------------------------------------
  Cycle       Energy         DIIS Error
 ---------------------------------------
    1   -1104.8373924682      3.71E-04
    2   -1104.8385570783      6.93E-05
    3   -1104.8383977131      1.62E-04
    4   -1104.8385962743      7.33E-06
    5   -1104.8385965829      4.04E-06
    6   -1104.8385966920      1.36E-06
    7   -1104.8385967064      6.18E-07
    8   -1104.8385967072      9.10E-08
    9   -1104.8385967074      2.22E-08
   10   -1104.8385967079      1.11E-08
   11   -1104.8385967080      2.86E-09 Convergence criterion met
 ---------------------------------------
 SCF time:  CPU 6.21 s  wall 5.72 s
 SCF   energy in the final basis set = -1104.8385967080
 Total energy in the final basis set = -1104.8385967080
 
 --------------------------------------------------------------
 
                    Orbital Energies (a.u.)
 --------------------------------------------------------------
 
 Alpha MOs
 -- Occupied --
-88.919 -88.919 -10.237 -10.236 -10.225 -10.225 -10.204 -10.204
-10.203 -10.203  -7.979  -7.979  -5.943  -5.943  -5.939  -5.939
 -5.936  -5.936  -0.898  -0.877  -0.769  -0.745  -0.739  -0.705
 -0.601  -0.572  -0.560  -0.534  -0.524  -0.477  -0.419  -0.415
 -0.411  -0.405  -0.395  -0.375  -0.374  -0.353  -0.349  -0.263
 -0.262  -0.258  -0.226
 -- Virtual --
 -0.045  -0.021  -0.006  -0.002   0.005   0.015   0.018   0.026
  0.027   0.034   0.036   0.043   0.046   0.047   0.061   0.066
  0.071   0.073   0.089   0.097   0.102   0.102   0.107   0.116
  0.116   0.119   0.123   0.132   0.132   0.134   0.139   0.145
  0.147   0.148   0.156   0.161   0.165   0.174   0.177   0.182
  0.184   0.189   0.198   0.199   0.212   0.220   0.226   0.231
  0.236   0.247   0.262   0.263   0.272   0.275   0.298   0.306
  0.311   0.316   0.320   0.331   0.355   0.366   0.372   0.396
  0.435   0.460   0.473   0.502   0.525   0.525   0.552   0.571
  0.574   0.600   0.609   0.639   0.653   0.655   0.671   0.671
  0.696   0.700   0.723   0.727   0.737   0.753   0.756   0.763
  0.783   0.800   0.808   0.826   0.844   0.896   0.904   0.946
  0.955   0.957   0.958   0.968   0.970   0.991   0.993   1.012
  1.017   1.035   1.047   1.055   1.083   1.098   1.098   1.108
  1.129   1.182   1.200   1.222   1.237   1.282   1.326   1.348
  1.354   1.360   1.362   1.389   1.445   1.460   1.499   1.535
  1.576   1.691   1.692   1.785   1.786   1.875   1.885   1.888
  1.911   1.927   1.933   1.963   2.018   2.022   2.066   2.075
  2.135   2.165   2.182   2.216   2.220   2.246   2.251   2.314
  2.366   2.370   2.433   2.448   2.458   2.471   2.491   2.513
  2.514   2.537   2.583   2.588   2.616   2.641   2.693   2.709
  2.766   2.800   2.870   2.883   2.941   3.151   3.190   3.269
  3.271   3.404   3.425   3.719   3.744   3.958   3.983   4.274
  4.313   4.322   4.329   4.423   4.535   4.658   4.713
 --------------------------------------------------------------
 
          Ground-State Mulliken Net Atomic Charges

     Atom                 Charge (a.u.)
  ----------------------------------------
      1 S                     0.024702
      2 C                    -0.042109
      3 H                     0.188505
      4 C                    -0.427338
      5 H                     0.116436
      6 C                     0.319639
      7 H                     0.143213
      8 C                    -0.327620
      9 C                    -0.319521
     10 C                     0.319533
     11 H                     0.143315
     12 C                    -0.425811
     13 H                     0.116501
     14 C                    -0.042340
     15 H                     0.188443
     16 S                     0.024452
  ----------------------------------------
  Sum of atomic charges =     0.000000

 -----------------------------------------------------------------
                    Cartesian Multipole Moments
 -----------------------------------------------------------------
    Charge (ESU x 10^10)
                 0.0000
    Dipole Moment (Debye)
         X       0.3859      Y       0.4216      Z      -0.6865
       Tot       0.8933
    Quadrupole Moments (Debye-Ang)
        XX     -64.0454     XY       0.5786     YY     -74.9583
        XZ       4.3358     YZ      -2.9879     ZZ     -66.6009
    Octopole Moments (Debye-Ang^2)
       XXX     159.3072    XXY      -1.9132    XYY      52.4245
       YYY      23.8580    XXZ     105.8106    XYZ       2.2804
       YYZ     134.8894    XZZ      45.2717    YZZ      23.6268
       ZZZ     393.8760
    Hexadecapole Moments (Debye-Ang^3)
      XXXX   -1784.0714   XXXY     -32.7946   XXYY    -377.2737
      XYYY     -85.0058   YYYY    -288.2613   XXXZ    -586.4978
      XXYZ       9.2832   XYYZ    -223.8612   YYYZ     -32.2781
      XXZZ    -598.1610   XYZZ     -55.7691   YYZZ    -436.7238
      XZZZ    -658.1181   YZZZ     -99.4364   ZZZZ   -2383.2121
 -----------------------------------------------------------------
 Calculating analytic gradient of the SCF energy
 Gradient of SCF Energy
            1           2           3           4           5           6
    1  -0.0000493  -0.0002380  -0.0000300   0.0000080   0.0000382  -0.0003067
    2   0.0003726  -0.0000589  -0.0000671   0.0003911  -0.0001391  -0.0024058
    3   0.0004336  -0.0000560  -0.0000219  -0.0000869  -0.0000638   0.0003180
            7           8           9          10          11          12
    1   0.0000129   0.0007617   0.0003232  -0.0009773   0.0001975   0.0001804
    2   0.0004099   0.0027782  -0.0015222   0.0009758  -0.0002129  -0.0001602
    3  -0.0000249   0.0004610  -0.0024408   0.0019992  -0.0002987  -0.0003157
           13          14          15          16
    1  -0.0000276   0.0001735   0.0000032  -0.0000698
    2   0.0001466  -0.0000307   0.0000501  -0.0005275
    3   0.0000567   0.0001750   0.0000537  -0.0001883
 Max gradient component =       2.778E-03
 RMS gradient           =       7.942E-04
 Gradient time:  CPU 2.06 s  wall 2.08 s
 Geometry Optimization Parameters
   NAtoms,    NIC,     NZ,  NCons,   NDum,   NFix, NCnnct, MaxDiis
       16     111       0       1       0       0       0       0

 Cartesian Hessian Update
 Hessian Updated using BFGS Update


** CONSTRAINED OPTIMIZATION IN DELOCALIZED INTERNAL COORDINATES **
   Searching for a Minimum

   Optimization Cycle:   3

                       Coordinates (Angstroms)
     ATOM                X               Y               Z
      1  S         0.0110644471    0.0602041917    0.0169520747
      2  C         1.7437662092    0.0305435418    0.0041145604
      3  H         2.2920058561    0.0288716538    0.9363942693
      4  C         2.2409806530    0.0102364881   -1.2728748581
      5  H         3.3006393279   -0.0157231643   -1.5005984277
      6  C         1.2145802532    0.0020793051   -2.2637427858
      7  H         1.3980636931   -0.0324573902   -3.3316366734
      8  C        -0.0567497296    0.0346549147   -1.7371828156
      9  C        -1.3301371122    0.0333800073   -2.4570105099
     10  C        -1.7874366252    0.9549661541   -3.3714102184
     11  H        -1.2064818770    1.8243788269   -3.6576654930
     12  C        -3.0841288979    0.6519220691   -3.8839095379
     13  H        -3.6053440721    1.2655714617   -4.6099947998
     14  C        -3.6136812877   -0.4897489626   -3.3414570501
     15  H        -4.5764279753   -0.9410643745   -3.5397763746
     16  S        -2.5273643426   -1.2265780826   -2.2101004300
   Point Group: c1    Number of degrees of freedom:    42


   Energy is  -1104.838596708

              Constraints and their Current Values
                                        Value     Constraint
   Dihedral:        6   8   9  10      -60.000      -60.000
 Hessian Updated using BFGS Update

 36 Hessian modes will be used to form the next step
  Hessian Eigenvalues:
     0.022309    0.045000    0.045001    0.045006    0.045012    0.045825
     0.050033    0.158206    0.159948    0.159992    0.160000    0.160074
     0.160419    0.221283    0.223943    0.227210    0.237844    0.250018
     0.259900    0.294335    0.295588    0.312575    0.313396    0.354742
     0.354851    0.355130    0.355190    0.358258    0.358473    0.396491
     0.404898    0.409155    0.463584    0.476119    0.497937    0.500488

 Minimum Search - Taking Simple RFO Step
 Searching for Lamda that Minimizes Along All modes
 Value Taken    Lamda =  -0.00002233
 Step Taken.  Stepsize is  0.027873

                             Maximum     Tolerance    Cnvgd?
         Gradient           0.000535      0.000300      NO
         Displacement       0.017165      0.001200      NO
         Energy change     -0.000069      0.000001      NO


 New Cartesian Coordinates Obtained by Inverse Iteration

 Displacement from previous Coordinates is:  0.022396
 ----------------------------------------------------------------
             Standard Nuclear Orientation (Angstroms)
    I     Atom           X                Y                Z
 ----------------------------------------------------------------
    1      S       0.0117877223     0.0558760552     0.0173305062
    2      C       1.7446189490     0.0304162582     0.0040530315
    3      H       2.2936057552     0.0274424691     0.9359746755
    4      C       2.2409570814     0.0126732284    -1.2732046393
    5      H       3.3005080234    -0.0121890176    -1.5010916021
    6      C       1.2136800298     0.0052416137    -2.2636814342
    7      H       1.3956528870    -0.0348076398    -3.3315981852
    8      C      -0.0576396501     0.0357493068    -1.7361329502
    9      C      -1.3297142335     0.0310876278    -2.4572933048
   10      C      -1.7854834088     0.9525423776    -3.3731032513
   11      H      -1.2058515480     1.8244452792    -3.6542852744
   12      C      -3.0828825210     0.6509360195    -3.8855389540
   13      H      -3.6034574826     1.2642927968    -4.6121874695
   14      C      -3.6143990008    -0.4890990146    -3.3418377984
   15      H      -4.5779986691    -0.9389257009    -3.5397709872
   16      S      -2.5300354143    -1.2244450194    -2.2075314327
 ----------------------------------------------------------------
 Nuclear Repulsion Energy =   629.4941362202 hartrees
 There are       43 alpha and       43 beta electrons
 Applying Cartesian multipole field
    Component          Value
    ---------          -----
     (2,0,0)        1.00000E-11
     (0,2,0)        2.00000E-11
     (0,0,2)       -3.00000E-11
 Nucleus-field energy     =    -0.0000000330 hartrees
 Requested basis set is 6-31++G(d,p)
 There are 76 shells and 234 basis functions
 A cutoff of  1.0D-12 yielded   2527 shell pairs
 There are     24941 function pairs

 Q-Chem warning in module /project/projectdirs/jcesr/qchem/qc44/cnl_qc441/compile/cori/qc_src/libqints/qchem/aobasis.C, line 68:

 Using reconstructed effective core potential

 Smallest overlap matrix eigenvalue = 1.21E-06
 Guess MOs from SCF MO coefficient file
 Reading MOs from coefficient file
 Reading MOs from coefficient file
 A restricted hybrid HF-DFT SCF calculation will be
 performed using Pulay DIIS extrapolation
 Exchange:     0.2000 Hartree-Fock + 0.0800 Slater + 0.7200 B88
 Correlation:  0.1900 VWN1RPA + 0.8100 LYP
 Using SG-1 standard quadrature grid
 SCF converges when DIIS error is below 1.0E-08
 Geometry optimization detected.  Setting ReadMinima to 0
 Setting SaveMinima to 0
 ---------------------------------------
  Cycle       Energy         DIIS Error
 ---------------------------------------
    1   -1104.8369859896      1.58E-04
    2   -1104.8386067518      1.92E-05
    3   -1104.8385967793      4.13E-05
    4   -1104.8386101896      5.10E-06
    5   -1104.8386103726      1.50E-06
    6   -1104.8386103832      9.59E-07
    7   -1104.8386103911      1.95E-07
    8   -1104.8386103887      6.22E-08
    9   -1104.8386103881      1.53E-08
   10   -1104.8386103877      3.52E-09 Convergence criterion met
 ---------------------------------------
 SCF time:  CPU 5.58 s  wall 5.18 s
 SCF   energy in the final basis set = -1104.8386103877
 Total energy in the final basis set = -1104.8386103877
 
 --------------------------------------------------------------
 
                    Orbital Energies (a.u.)
 --------------------------------------------------------------
 
 Alpha MOs
 -- Occupied --
-88.919 -88.919 -10.237 -10.236 -10.225 -10.225 -10.204 -10.204
-10.203 -10.203  -7.979  -7.979  -5.943  -5.943  -5.939  -5.939
 -5.936  -5.936  -0.899  -0.878  -0.769  -0.745  -0.739  -0.705
 -0.601  -0.572  -0.560  -0.534  -0.524  -0.477  -0.419  -0.415
 -0.411  -0.405  -0.395  -0.375  -0.374  -0.353  -0.349  -0.263
 -0.263  -0.258  -0.226
 -- Virtual --
 -0.045  -0.021  -0.006  -0.002   0.005   0.015   0.018   0.026
  0.027   0.034   0.036   0.043   0.046   0.047   0.061   0.066
  0.071   0.073   0.090   0.097   0.102   0.102   0.107   0.116
  0.116   0.119   0.123   0.132   0.132   0.134   0.139   0.145
  0.147   0.148   0.156   0.161   0.165   0.174   0.177   0.182
  0.185   0.189   0.198   0.199   0.212   0.220   0.226   0.231
  0.236   0.248   0.262   0.263   0.272   0.275   0.298   0.306
  0.311   0.316   0.320   0.331   0.355   0.366   0.372   0.396
  0.435   0.460   0.472   0.502   0.525   0.525   0.552   0.571
  0.574   0.600   0.609   0.638   0.653   0.655   0.670   0.671
  0.697   0.700   0.723   0.727   0.737   0.753   0.756   0.763
  0.783   0.800   0.808   0.826   0.844   0.896   0.903   0.946
  0.955   0.956   0.959   0.968   0.970   0.991   0.994   1.013
  1.017   1.035   1.047   1.054   1.083   1.098   1.099   1.108
  1.129   1.181   1.199   1.221   1.237   1.283   1.326   1.348
  1.354   1.362   1.362   1.390   1.446   1.460   1.497   1.536
  1.575   1.691   1.692   1.783   1.786   1.875   1.884   1.888
  1.911   1.928   1.933   1.963   2.017   2.022   2.065   2.076
  2.134   2.165   2.182   2.216   2.220   2.246   2.252   2.315
  2.366   2.370   2.433   2.447   2.457   2.473   2.491   2.513
  2.514   2.536   2.583   2.588   2.617   2.641   2.693   2.709
  2.766   2.800   2.870   2.883   2.940   3.151   3.190   3.269
  3.271   3.403   3.425   3.719   3.744   3.958   3.983   4.274
  4.312   4.322   4.329   4.423   4.535   4.658   4.713
 --------------------------------------------------------------
 
          Ground-State Mulliken Net Atomic Charges

     Atom                 Charge (a.u.)
  ----------------------------------------
      1 S                     0.024256
      2 C                    -0.043058
      3 H                     0.188516
      4 C                    -0.427010
      5 H                     0.116523
      6 C                     0.315161
      7 H                     0.143313
      8 C                    -0.322569
      9 C                    -0.313780
     10 C                     0.314667
     11 H                     0.143410
     12 C                    -0.425239
     13 H                     0.116587
     14 C                    -0.043377
     15 H                     0.188453
     16 S                     0.024149
  ----------------------------------------
  Sum of atomic charges =    -0.000000

 -----------------------------------------------------------------
                    Cartesian Multipole Moments
 -----------------------------------------------------------------
    Charge (ESU x 10^10)
                -0.0000
    Dipole Moment (Debye)
         X       0.3822      Y       0.4182      Z      -0.6804
       Tot       0.8854
    Quadrupole Moments (Debye-Ang)
        XX     -64.0210     XY       0.5642     YY     -74.9652
        XZ       4.3480     YZ      -2.9850     ZZ     -66.6402
    Octopole Moments (Debye-Ang^2)
       XXX     159.2362    XXY      -1.8775    XYY      52.4673
       YYY      23.9564    XXZ     105.7673    XYZ       2.3253
       YYZ     134.9049    XZZ      45.2606    YZZ      23.5784
       ZZZ     393.9958
    Hexadecapole Moments (Debye-Ang^3)
      XXXX   -1783.9910   XXXY     -33.0067   XXYY    -377.4083
      XYYY     -85.4283   YYYY    -287.6222   XXXZ    -586.1670
      XXYZ       9.2861   XYYZ    -224.0040   YYYZ     -32.0706
      XXZZ    -598.1789   XYZZ     -56.0250   YYZZ    -436.7658
      XZZZ    -658.0258   YZZZ     -98.8628   ZZZZ   -2383.9615
 -----------------------------------------------------------------
 Calculating analytic gradient of the SCF energy
 Gradient of SCF Energy
            1           2           3           4           5           6
    1   0.0001292  -0.0001363   0.0000481   0.0001885  -0.0000155  -0.0003324
    2   0.0000914   0.0000792  -0.0000854   0.0003066  -0.0001588  -0.0020387
    3   0.0000484  -0.0000123   0.0000057   0.0001718   0.0000153   0.0000553
            7           8           9          10          11          12
    1  -0.0000652   0.0001300   0.0007588  -0.0006476   0.0000951  -0.0001190
    2   0.0000938   0.0032298  -0.0022158   0.0009562  -0.0000700  -0.0002191
    3  -0.0000100   0.0006756  -0.0023023   0.0016966  -0.0000196  -0.0003215
           13          14          15          16
    1  -0.0000548   0.0001435  -0.0000669  -0.0000557
    2   0.0000790  -0.0000883   0.0000721  -0.0000321
    3   0.0001212   0.0000135   0.0000176  -0.0001554
 Max gradient component =       3.230E-03
 RMS gradient           =       7.998E-04
 Gradient time:  CPU 2.12 s  wall 2.07 s
 Geometry Optimization Parameters
   NAtoms,    NIC,     NZ,  NCons,   NDum,   NFix, NCnnct, MaxDiis
       16     111       0       1       0       0       0       0

 Cartesian Hessian Update
 Hessian Updated using BFGS Update


** CONSTRAINED OPTIMIZATION IN DELOCALIZED INTERNAL COORDINATES **
   Searching for a Minimum

   Optimization Cycle:   4

                       Coordinates (Angstroms)
     ATOM                X               Y               Z
      1  S         0.0117877223    0.0558760552    0.0173305062
      2  C         1.7446189490    0.0304162582    0.0040530315
      3  H         2.2936057552    0.0274424691    0.9359746755
      4  C         2.2409570814    0.0126732284   -1.2732046393
      5  H         3.3005080234   -0.0121890176   -1.5010916021
      6  C         1.2136800298    0.0052416137   -2.2636814342
      7  H         1.3956528870   -0.0348076398   -3.3315981852
      8  C        -0.0576396501    0.0357493068   -1.7361329502
      9  C        -1.3297142335    0.0310876278   -2.4572933048
     10  C        -1.7854834088    0.9525423776   -3.3731032513
     11  H        -1.2058515480    1.8244452792   -3.6542852744
     12  C        -3.0828825210    0.6509360195   -3.8855389540
     13  H        -3.6034574826    1.2642927968   -4.6121874695
     14  C        -3.6143990008   -0.4890990146   -3.3418377984
     15  H        -4.5779986691   -0.9389257009   -3.5397709872
     16  S        -2.5300354143   -1.2244450194   -2.2075314327
   Point Group: c1    Number of degrees of freedom:    42


   Energy is  -1104.838610388

              Constraints and their Current Values
                                        Value     Constraint
   Dihedral:        6   8   9  10      -60.000      -60.000
 Hessian Updated using BFGS Update

 40 Hessian modes will be used to form the next step
  Hessian Eigenvalues:
     0.016848    0.044735    0.045000    0.045000    0.045000    0.045001
     0.045002    0.045004    0.045012    0.045063    0.050890    0.159666
     0.159942    0.159991    0.159999    0.160027    0.160841    0.221282
     0.224043    0.233604    0.237835    0.249999    0.264846    0.294237
     0.294700    0.312573    0.313787    0.354741    0.354851    0.355130
     0.355400    0.358268    0.358747    0.383322    0.404881    0.423496
     0.463571    0.463594    0.497931    0.499665

 Minimum Search - Taking Simple RFO Step
 Searching for Lamda that Minimizes Along All modes
 Value Taken    Lamda =  -0.00000587
 Step Taken.  Stepsize is  0.014784

                             Maximum     Tolerance    Cnvgd?
         Gradient           0.000394      0.000300      NO
         Displacement       0.010189      0.001200      NO
         Energy change     -0.000014      0.000001      NO


 New Cartesian Coordinates Obtained by Inverse Iteration

 Displacement from previous Coordinates is:  0.015276
 ----------------------------------------------------------------
             Standard Nuclear Orientation (Angstroms)
    I     Atom           X                Y                Z
 ----------------------------------------------------------------
    1      S       0.0108343657     0.0530616079     0.0164944432
    2      C       1.7438085249     0.0285976255     0.0039137358
    3      H       2.2921636333     0.0255123483     0.9361642749
    4      C       2.2406756006     0.0129102231    -1.2731984475
    5      H       3.3003912410    -0.0098246560    -1.5005785072
    6      C       1.2141233771     0.0071831217    -2.2640764685
    7      H       1.3968227842    -0.0339149837    -3.3318227138
    8      C      -0.0576879880     0.0367197931    -1.7367441290
    9      C      -1.3287551737     0.0305928015    -2.4582568932
   10      C      -1.7846064737     0.9517520258    -3.3748585648
   11      H      -1.2059688282     1.8244243126    -3.6556861916
   12      C      -3.0826049851     0.6507708654    -3.8853989412
   13      H      -3.6027437958     1.2628206760    -4.6134741626
   14      C      -3.6146971814    -0.4881963363    -3.3399368441
   15      H      -4.5782291001    -0.9383288485    -3.5373045414
   16      S      -2.5301774809    -1.2228439362    -2.2051351189
 ----------------------------------------------------------------
 Nuclear Repulsion Energy =   629.5766641755 hartrees
 There are       43 alpha and       43 beta electrons
 Applying Cartesian multipole field
    Component          Value
    ---------          -----
     (2,0,0)        1.00000E-11
     (0,2,0)        2.00000E-11
     (0,0,2)       -3.00000E-11
 Nucleus-field energy     =    -0.0000000330 hartrees
 Requested basis set is 6-31++G(d,p)
 There are 76 shells and 234 basis functions
 A cutoff of  1.0D-12 yielded   2527 shell pairs
 There are     24941 function pairs

 Q-Chem warning in module /project/projectdirs/jcesr/qchem/qc44/cnl_qc441/compile/cori/qc_src/libqints/qchem/aobasis.C, line 68:

 Using reconstructed effective core potential

 Smallest overlap matrix eigenvalue = 1.21E-06
 Guess MOs from SCF MO coefficient file
 Reading MOs from coefficient file
 Reading MOs from coefficient file
 A restricted hybrid HF-DFT SCF calculation will be
 performed using Pulay DIIS extrapolation
 Exchange:     0.2000 Hartree-Fock + 0.0800 Slater + 0.7200 B88
 Correlation:  0.1900 VWN1RPA + 0.8100 LYP
 Using SG-1 standard quadrature grid
 SCF converges when DIIS error is below 1.0E-08
 Geometry optimization detected.  Setting ReadMinima to 0
 Setting SaveMinima to 0
 ---------------------------------------
  Cycle       Energy         DIIS Error
 ---------------------------------------
    1   -1104.8376964925      8.53E-05
    2   -1104.8386130107      1.13E-05
    3   -1104.8386113715      1.89E-05
    4   -1104.8386141912      2.99E-06
    5   -1104.8386142532      7.23E-07
    6   -1104.8386142559      5.12E-07
    7   -1104.8386142570      1.84E-07
    8   -1104.8386142560      6.38E-08
    9   -1104.8386142555      8.10E-09 Convergence criterion met
 ---------------------------------------
 SCF time:  CPU 5.08 s  wall 5.02 s
 SCF   energy in the final basis set = -1104.8386142555
 Total energy in the final basis set = -1104.8386142555
 
 --------------------------------------------------------------
 
                    Orbital Energies (a.u.)
 --------------------------------------------------------------
 
 Alpha MOs
 -- Occupied --
-88.919 -88.919 -10.237 -10.236 -10.225 -10.225 -10.204 -10.204
-10.203 -10.203  -7.979  -7.979  -5.943  -5.943  -5.939  -5.939
 -5.936  -5.936  -0.899  -0.878  -0.769  -0.745  -0.739  -0.705
 -0.601  -0.572  -0.560  -0.534  -0.524  -0.477  -0.419  -0.415
 -0.412  -0.404  -0.395  -0.375  -0.374  -0.353  -0.349  -0.263
 -0.263  -0.258  -0.226
 -- Virtual --
 -0.045  -0.021  -0.006  -0.002   0.005   0.015   0.018   0.026
  0.027   0.034   0.036   0.043   0.046   0.047   0.061   0.066
  0.071   0.073   0.090   0.097   0.102   0.102   0.106   0.116
  0.116   0.119   0.123   0.132   0.132   0.134   0.140   0.145
  0.147   0.149   0.156   0.161   0.165   0.175   0.177   0.182
  0.185   0.189   0.198   0.199   0.212   0.220   0.226   0.231
  0.236   0.248   0.262   0.263   0.272   0.275   0.298   0.306
  0.312   0.316   0.319   0.331   0.355   0.366   0.372   0.396
  0.435   0.460   0.472   0.503   0.525   0.525   0.553   0.570
  0.574   0.600   0.609   0.638   0.654   0.655   0.670   0.671
  0.697   0.700   0.723   0.727   0.737   0.753   0.756   0.763
  0.783   0.800   0.808   0.826   0.844   0.896   0.903   0.946
  0.955   0.956   0.960   0.968   0.971   0.991   0.994   1.013
  1.017   1.036   1.047   1.054   1.083   1.098   1.099   1.108
  1.129   1.181   1.199   1.221   1.237   1.284   1.326   1.348
  1.353   1.362   1.362   1.391   1.446   1.460   1.496   1.536
  1.575   1.691   1.692   1.782   1.787   1.876   1.885   1.888
  1.911   1.928   1.934   1.963   2.017   2.022   2.065   2.076
  2.134   2.164   2.182   2.215   2.220   2.246   2.252   2.315
  2.366   2.370   2.434   2.447   2.456   2.473   2.491   2.513
  2.514   2.536   2.583   2.588   2.617   2.640   2.693   2.709
  2.767   2.800   2.870   2.883   2.940   3.151   3.190   3.269
  3.271   3.403   3.425   3.719   3.744   3.958   3.983   4.274
  4.312   4.322   4.329   4.423   4.535   4.658   4.713
 --------------------------------------------------------------
 
          Ground-State Mulliken Net Atomic Charges

     Atom                 Charge (a.u.)
  ----------------------------------------
      1 S                     0.023372
      2 C                    -0.043645
      3 H                     0.188507
      4 C                    -0.427246
      5 H                     0.116542
      6 C                     0.314850
      7 H                     0.143301
      8 C                    -0.320684
      9 C                    -0.311459
     10 C                     0.313993
     11 H                     0.143388
     12 C                    -0.425302
     13 H                     0.116606
     14 C                    -0.044001
     15 H                     0.188450
     16 S                     0.023327
  ----------------------------------------
  Sum of atomic charges =     0.000000

 -----------------------------------------------------------------
                    Cartesian Multipole Moments
 -----------------------------------------------------------------
    Charge (ESU x 10^10)
                -0.0000
    Dipole Moment (Debye)
         X       0.3810      Y       0.4174      Z      -0.6784
       Tot       0.8829
    Quadrupole Moments (Debye-Ang)
        XX     -64.0250     XY       0.5716     YY     -74.9670
        XZ       4.3419     YZ      -2.9885     ZZ     -66.6427
    Octopole Moments (Debye-Ang^2)
       XXX     159.2677    XXY      -1.8659    XYY      52.4868
       YYY      23.9973    XXZ     105.7834    XYZ       2.3195
       YYZ     134.9071    XZZ      45.2813    YZZ      23.5912
       ZZZ     393.9455
    Hexadecapole Moments (Debye-Ang^3)
      XXXX   -1783.8785   XXXY     -32.6915   XXYY    -377.3584
      XYYY     -85.3012   YYYY    -287.1971   XXXZ    -586.0087
      XXYZ       9.3746   XYYZ    -223.9435   YYYZ     -31.6690
      XXZZ    -598.1934   XYZZ     -56.0305   YYZZ    -436.6428
      XZZZ    -657.5905   YZZZ     -98.5294   ZZZZ   -2383.0939
 -----------------------------------------------------------------
 Calculating analytic gradient of the SCF energy
 Gradient of SCF Energy
            1           2           3           4           5           6
    1   0.0000114  -0.0000777   0.0000174   0.0000744  -0.0000137  -0.0000542
    2   0.0000071   0.0000823  -0.0000559   0.0001439  -0.0000992  -0.0018850
    3  -0.0000119  -0.0000320  -0.0000024   0.0000528   0.0000114  -0.0000250
            7           8           9          10          11          12
    1  -0.0000211  -0.0003914   0.0011231  -0.0007121   0.0000094  -0.0000194
    2  -0.0000212   0.0034233  -0.0026180   0.0010394   0.0000119  -0.0000833
    3  -0.0000033   0.0007741  -0.0020721   0.0013954   0.0000327  -0.0001488
           13          14          15          16
    1  -0.0000315   0.0001106  -0.0000299   0.0000047
    2   0.0000481  -0.0000521   0.0000471   0.0000116
    3   0.0000767  -0.0000318   0.0000133  -0.0000290
 Max gradient component =       3.423E-03
 RMS gradient           =       8.176E-04
 Gradient time:  CPU 2.06 s  wall 2.06 s
 Geometry Optimization Parameters
   NAtoms,    NIC,     NZ,  NCons,   NDum,   NFix, NCnnct, MaxDiis
       16     111       0       1       0       0       0       0

 Cartesian Hessian Update
 Hessian Updated using BFGS Update


** CONSTRAINED OPTIMIZATION IN DELOCALIZED INTERNAL COORDINATES **
   Searching for a Minimum

   Optimization Cycle:   5

                       Coordinates (Angstroms)
     ATOM                X               Y               Z
      1  S         0.0108343657    0.0530616079    0.0164944432
      2  C         1.7438085249    0.0285976255    0.0039137358
      3  H         2.2921636333    0.0255123483    0.9361642749
      4  C         2.2406756006    0.0129102231   -1.2731984475
      5  H         3.3003912410   -0.0098246560   -1.5005785072
      6  C         1.2141233771    0.0071831217   -2.2640764685
      7  H         1.3968227842   -0.0339149837   -3.3318227138
      8  C        -0.0576879880    0.0367197931   -1.7367441290
      9  C        -1.3287551737    0.0305928015   -2.4582568932
     10  C        -1.7846064737    0.9517520258   -3.3748585648
     11  H        -1.2059688282    1.8244243126   -3.6556861916
     12  C        -3.0826049851    0.6507708654   -3.8853989412
     13  H        -3.6027437958    1.2628206760   -4.6134741626
     14  C        -3.6146971814   -0.4881963363   -3.3399368441
     15  H        -4.5782291001   -0.9383288485   -3.5373045414
     16  S        -2.5301774809   -1.2228439362   -2.2051351189
   Point Group: c1    Number of degrees of freedom:    42


   Energy is  -1104.838614256

              Constraints and their Current Values
                                        Value     Constraint
   Dihedral:        6   8   9  10      -60.000      -60.000
 Hessian Updated using BFGS Update

 40 Hessian modes will be used to form the next step
  Hessian Eigenvalues:
     0.013205    0.036582    0.045000    0.045000    0.045000    0.045002
     0.045004    0.045007    0.045012    0.045380    0.051470    0.157095
     0.159944    0.159991    0.159999    0.160036    0.160440    0.221273
     0.222406    0.228959    0.237849    0.250017    0.266164    0.294394
     0.296591    0.312572    0.313939    0.354736    0.354846    0.355130
     0.355366    0.358268    0.358730    0.398735    0.404884    0.427752
     0.463586    0.472806    0.497932    0.504248

 Minimum Search - Taking Simple RFO Step
 Searching for Lamda that Minimizes Along All modes
 Value Taken    Lamda =  -0.00000229
 Step Taken.  Stepsize is  0.010578

                             Maximum     Tolerance    Cnvgd?
         Gradient           0.000182      0.000300     YES
         Displacement       0.005916      0.001200      NO
         Energy change     -0.000004      0.000001      NO


 New Cartesian Coordinates Obtained by Inverse Iteration

 Displacement from previous Coordinates is:  0.016448
 ----------------------------------------------------------------
             Standard Nuclear Orientation (Angstroms)
    I     Atom           X                Y                Z
 ----------------------------------------------------------------
    1      S       0.0102708176     0.0508802792     0.0155153527
    2      C       1.7433335085     0.0263562086     0.0042025232
    3      H       2.2908747338     0.0233222807     0.9369097497
    4      C       2.2408532276     0.0126204882    -1.2726889816
    5      H       3.3007628011    -0.0079187859    -1.4994721744
    6      C       1.2150733310     0.0086154867    -2.2641939617
    7      H       1.3988020839    -0.0316072906    -3.3317870814
    8      C      -0.0572508208     0.0376312485    -1.7377410542
    9      C      -1.3279219171     0.0307824225    -2.4595231354
   10      C      -1.7844834303     0.9513404106    -3.3765636525
   11      H      -1.2062013525     1.8238309015    -3.6586527366
   12      C      -3.0831805089     0.6506958226    -3.8851481510
   13      H      -3.6029413393     1.2612816452    -4.6147537798
   14      C      -3.6155925221    -0.4872813507    -3.3378929060
   15      H      -4.5789235533    -0.9380547136    -3.5346719634
   16      S      -2.5301265393    -1.2212584135    -2.2034371175
 ----------------------------------------------------------------
 Nuclear Repulsion Energy =   629.6148571792 hartrees
 There are       43 alpha and       43 beta electrons
 Applying Cartesian multipole field
    Component          Value
    ---------          -----
     (2,0,0)        1.00000E-11
     (0,2,0)        2.00000E-11
     (0,0,2)       -3.00000E-11
 Nucleus-field energy     =    -0.0000000330 hartrees
 Requested basis set is 6-31++G(d,p)
 There are 76 shells and 234 basis functions
 A cutoff of  1.0D-12 yielded   2527 shell pairs
 There are     24941 function pairs

 Q-Chem warning in module /project/projectdirs/jcesr/qchem/qc44/cnl_qc441/compile/cori/qc_src/libqints/qchem/aobasis.C, line 68:

 Using reconstructed effective core potential

 Smallest overlap matrix eigenvalue = 1.21E-06
 Guess MOs from SCF MO coefficient file
 Reading MOs from coefficient file
 Reading MOs from coefficient file
 A restricted hybrid HF-DFT SCF calculation will be
 performed using Pulay DIIS extrapolation
 Exchange:     0.2000 Hartree-Fock + 0.0800 Slater + 0.7200 B88
 Correlation:  0.1900 VWN1RPA + 0.8100 LYP
 Using SG-1 standard quadrature grid
 SCF converges when DIIS error is below 1.0E-08
 Geometry optimization detected.  Setting ReadMinima to 0
 Setting SaveMinima to 0
 ---------------------------------------
  Cycle       Energy         DIIS Error
 ---------------------------------------
    1   -1104.8379857743      6.65E-05
    2   -1104.8386143376      1.24E-05
    3   -1104.8386111677      2.39E-05
    4   -1104.8386156249      3.45E-06
    5   -1104.8386157069      1.15E-06
    6   -1104.8386157146      5.06E-07
    7   -1104.8386157181      1.38E-07
    8   -1104.8386157170      4.01E-08
    9   -1104.8386157167      6.19E-09 Convergence criterion met
 ---------------------------------------
 SCF time:  CPU 5.06 s  wall 4.74 s
 SCF   energy in the final basis set = -1104.8386157167
 Total energy in the final basis set = -1104.8386157167
 
 --------------------------------------------------------------
 
                    Orbital Energies (a.u.)
 --------------------------------------------------------------
 
 Alpha MOs
 -- Occupied --
-88.919 -88.919 -10.237 -10.236 -10.225 -10.225 -10.204 -10.204
-10.203 -10.203  -7.979  -7.979  -5.943  -5.943  -5.939  -5.939
 -5.936  -5.936  -0.899  -0.878  -0.769  -0.745  -0.739  -0.705
 -0.601  -0.572  -0.560  -0.534  -0.524  -0.477  -0.419  -0.415
 -0.412  -0.404  -0.395  -0.375  -0.374  -0.353  -0.349  -0.263
 -0.263  -0.258  -0.226
 -- Virtual --
 -0.045  -0.021  -0.006  -0.002   0.005   0.015   0.018   0.026
  0.027   0.034   0.036   0.043   0.046   0.047   0.061   0.066
  0.071   0.073   0.090   0.097   0.102   0.102   0.106   0.116
  0.116   0.119   0.123   0.132   0.132   0.134   0.140   0.145
  0.147   0.149   0.156   0.161   0.166   0.175   0.177   0.182
  0.185   0.189   0.198   0.199   0.212   0.220   0.226   0.231
  0.236   0.247   0.262   0.263   0.272   0.275   0.298   0.307
  0.312   0.316   0.319   0.331   0.355   0.366   0.372   0.396
  0.435   0.460   0.472   0.503   0.525   0.525   0.553   0.570
  0.574   0.600   0.609   0.637   0.654   0.655   0.670   0.671
  0.697   0.700   0.723   0.727   0.737   0.753   0.756   0.763
  0.784   0.800   0.808   0.826   0.844   0.896   0.903   0.946
  0.955   0.956   0.960   0.968   0.971   0.991   0.994   1.013
  1.017   1.036   1.047   1.054   1.083   1.098   1.099   1.108
  1.129   1.181   1.199   1.221   1.237   1.284   1.326   1.348
  1.353   1.362   1.362   1.391   1.446   1.460   1.495   1.537
  1.575   1.690   1.693   1.782   1.787   1.876   1.885   1.888
  1.911   1.928   1.934   1.963   2.017   2.022   2.065   2.076
  2.135   2.164   2.182   2.215   2.220   2.246   2.252   2.315
  2.366   2.370   2.434   2.447   2.457   2.473   2.491   2.513
  2.514   2.536   2.583   2.588   2.618   2.640   2.693   2.709
  2.767   2.800   2.870   2.883   2.940   3.151   3.190   3.269
  3.271   3.404   3.425   3.719   3.744   3.957   3.984   4.274
  4.312   4.322   4.329   4.423   4.535   4.658   4.713
 --------------------------------------------------------------
 
          Ground-State Mulliken Net Atomic Charges

     Atom                 Charge (a.u.)
  ----------------------------------------
      1 S                     0.022195
      2 C                    -0.043555
      3 H                     0.188575
      4 C                    -0.427654
      5 H                     0.116551
      6 C                     0.315279
      7 H                     0.143246
      8 C                    -0.319746
      9 C                    -0.310188
     10 C                     0.314172
     11 H                     0.143325
     12 C                    -0.425570
     13 H                     0.116617
     14 C                    -0.043949
     15 H                     0.188520
     16 S                     0.022180
  ----------------------------------------
  Sum of atomic charges =    -0.000000

 -----------------------------------------------------------------
                    Cartesian Multipole Moments
 -----------------------------------------------------------------
    Charge (ESU x 10^10)
                -0.0000
    Dipole Moment (Debye)
         X       0.3813      Y       0.4178      Z      -0.6788
       Tot       0.8836
    Quadrupole Moments (Debye-Ang)
        XX     -64.0252     XY       0.5844     YY     -74.9731
        XZ       4.3416     YZ      -2.9945     ZZ     -66.6302
    Octopole Moments (Debye-Ang^2)
       XXX     159.2726    XXY      -1.8668    XYY      52.5072
       YYY      24.0107    XXZ     105.7859    XYZ       2.2916
       YYZ     134.9215    XZZ      45.2741    YZZ      23.6172
       ZZZ     393.8426
    Hexadecapole Moments (Debye-Ang^3)
      XXXX   -1784.1486   XXXY     -32.2333   XXYY    -377.4089
      XYYY     -85.0428   YYYY    -286.8275   XXXZ    -585.8901
      XXYZ       9.4993   XYYZ    -223.9465   YYYZ     -31.2357
      XXZZ    -598.2159   XYZZ     -55.9319   YYZZ    -436.5592
      XZZZ    -657.2122   YZZZ     -98.2929   ZZZZ   -2382.0739
 -----------------------------------------------------------------
 Calculating analytic gradient of the SCF energy
 Gradient of SCF Energy
            1           2           3           4           5           6
    1  -0.0000075   0.0000209  -0.0000036  -0.0000222  -0.0000011   0.0000546
    2  -0.0000101   0.0000369  -0.0000203   0.0000090  -0.0000263  -0.0018511
    3  -0.0000669   0.0000107   0.0000013  -0.0000079   0.0000127   0.0000120
            7           8           9          10          11          12
    1   0.0000021  -0.0005939   0.0013181  -0.0007975  -0.0000254   0.0000348
    2  -0.0000464   0.0035392  -0.0027540   0.0010354   0.0000273   0.0000019
    3   0.0000099   0.0007618  -0.0020323   0.0013103   0.0000368   0.0000010
           13          14          15          16
    1  -0.0000112  -0.0000015  -0.0000033   0.0000367
    2   0.0000121  -0.0000171   0.0000140   0.0000496
    3   0.0000160  -0.0000539   0.0000011  -0.0000126
 Max gradient component =       3.539E-03
 RMS gradient           =       8.390E-04
 Gradient time:  CPU 2.06 s  wall 2.07 s
 Geometry Optimization Parameters
   NAtoms,    NIC,     NZ,  NCons,   NDum,   NFix, NCnnct, MaxDiis
       16     111       0       1       0       0       0       0

 Cartesian Hessian Update
 Hessian Updated using BFGS Update


** CONSTRAINED OPTIMIZATION IN DELOCALIZED INTERNAL COORDINATES **
   Searching for a Minimum

   Optimization Cycle:   6

                       Coordinates (Angstroms)
     ATOM                X               Y               Z
      1  S         0.0102708176    0.0508802792    0.0155153527
      2  C         1.7433335085    0.0263562086    0.0042025232
      3  H         2.2908747338    0.0233222807    0.9369097497
      4  C         2.2408532276    0.0126204882   -1.2726889816
      5  H         3.3007628011   -0.0079187859   -1.4994721744
      6  C         1.2150733310    0.0086154867   -2.2641939617
      7  H         1.3988020839   -0.0316072906   -3.3317870814
      8  C        -0.0572508208    0.0376312485   -1.7377410542
      9  C        -1.3279219171    0.0307824225   -2.4595231354
     10  C        -1.7844834303    0.9513404106   -3.3765636525
     11  H        -1.2062013525    1.8238309015   -3.6586527366
     12  C        -3.0831805089    0.6506958226   -3.8851481510
     13  H        -3.6029413393    1.2612816452   -4.6147537798
     14  C        -3.6155925221   -0.4872813507   -3.3378929060
     15  H        -4.5789235533   -0.9380547136   -3.5346719634
     16  S        -2.5301265393   -1.2212584135   -2.2034371175
   Point Group: c1    Number of degrees of freedom:    42


   Energy is  -1104.838615717

              Constraints and their Current Values
                                        Value     Constraint
   Dihedral:        6   8   9  10      -60.000      -60.000
 Hessian Updated using BFGS Update

 39 Hessian modes will be used to form the next step
  Hessian Eigenvalues:
     0.011499    0.029273    0.045000    0.045000    0.045000    0.045002
     0.045004    0.045037    0.046270    0.050207    0.158394    0.159957
     0.159995    0.160001    0.160046    0.160459    0.221280    0.221856
     0.225505    0.237851    0.250037    0.273424    0.294365    0.296378
     0.312573    0.313948    0.354770    0.354937    0.355130    0.355375
     0.358267    0.358722    0.398073    0.404903    0.428730    0.463588
     0.478686    0.497937    0.510272

 Minimum Search - Taking Simple RFO Step
 Searching for Lamda that Minimizes Along All modes
 Value Taken    Lamda =   0.00000000
 Step Taken.  Stepsize is  0.005342

                             Maximum     Tolerance    Cnvgd?
         Gradient           0.000095      0.000300     YES
         Displacement       0.003909      0.001200      NO
         Energy change     -0.000001      0.000001      NO


 New Cartesian Coordinates Obtained by Inverse Iteration

 Displacement from previous Coordinates is:  0.010449
 ----------------------------------------------------------------
             Standard Nuclear Orientation (Angstroms)
    I     Atom           X                Y                Z
 ----------------------------------------------------------------
    1      S       0.0099254769     0.0497684147     0.0150861287
    2      C       1.7429895274     0.0249779592     0.0043909718
    3      H       2.2901140938     0.0217599605     0.9373390668
    4      C       2.2409819618     0.0125111182    -1.2723383248
    5      H       3.3009842303    -0.0069251189    -1.4988043058
    6      C       1.2155984993     0.0094175865    -2.2642248671
    7      H       1.3998413830    -0.0296076183    -3.3317835155
    8      C      -0.0569013520     0.0381973302    -1.7383069662
    9      C      -1.3275172714     0.0309997383    -2.4603129172
   10      C      -1.7844554834     0.9511299890    -3.3775224008
   11      H      -1.2060006361     1.8231285276    -3.6608080840
   12      C      -3.0835529192     0.6505713784    -3.8850826986
   13      H      -3.6031353682     1.2603768392    -4.6154754077
   14      C      -3.6160793572    -0.4867789479    -3.3366119839
   15      H      -4.5793784606    -0.9378074167    -3.5329453829
   16      S      -2.5300658044    -1.2204831001    -2.2024983826
 ----------------------------------------------------------------
 Nuclear Repulsion Energy =   629.6272263897 hartrees
 There are       43 alpha and       43 beta electrons
 Applying Cartesian multipole field
    Component          Value
    ---------          -----
     (2,0,0)        1.00000E-11
     (0,2,0)        2.00000E-11
     (0,0,2)       -3.00000E-11
 Nucleus-field energy     =    -0.0000000330 hartrees
 Requested basis set is 6-31++G(d,p)
 There are 76 shells and 234 basis functions
 A cutoff of  1.0D-12 yielded   2527 shell pairs
 There are     24941 function pairs

 Q-Chem warning in module /project/projectdirs/jcesr/qchem/qc44/cnl_qc441/compile/cori/qc_src/libqints/qchem/aobasis.C, line 68:

 Using reconstructed effective core potential

 Smallest overlap matrix eigenvalue = 1.22E-06
 Guess MOs from SCF MO coefficient file
 Reading MOs from coefficient file
 Reading MOs from coefficient file
 A restricted hybrid HF-DFT SCF calculation will be
 performed using Pulay DIIS extrapolation
 Exchange:     0.2000 Hartree-Fock + 0.0800 Slater + 0.7200 B88
 Correlation:  0.1900 VWN1RPA + 0.8100 LYP
 Using SG-1 standard quadrature grid
 SCF converges when DIIS error is below 1.0E-08
 Geometry optimization detected.  Setting ReadMinima to 0
 Setting SaveMinima to 0
 ---------------------------------------
  Cycle       Energy         DIIS Error
 ---------------------------------------
    1   -1104.8383296290      3.89E-05
    2   -1104.8386156649      6.98E-06
    3   -1104.8386146034      1.37E-05
    4   -1104.8386160754      1.87E-06
    5   -1104.8386160989      6.84E-07
    6   -1104.8386161013      2.76E-07
    7   -1104.8386161037      8.59E-08
    8   -1104.8386161031      2.05E-08
    9   -1104.8386161024      3.22E-09 Convergence criterion met
 ---------------------------------------
 SCF time:  CPU 5.01 s  wall 5.51 s
 SCF   energy in the final basis set = -1104.8386161024
 Total energy in the final basis set = -1104.8386161024
 
 --------------------------------------------------------------
 
                    Orbital Energies (a.u.)
 --------------------------------------------------------------
 
 Alpha MOs
 -- Occupied --
-88.919 -88.919 -10.237 -10.236 -10.225 -10.225 -10.204 -10.204
-10.203 -10.203  -7.979  -7.979  -5.943  -5.943  -5.939  -5.939
 -5.936  -5.936  -0.899  -0.878  -0.769  -0.745  -0.739  -0.705
 -0.601  -0.572  -0.560  -0.534  -0.524  -0.477  -0.419  -0.415
 -0.412  -0.404  -0.395  -0.375  -0.374  -0.353  -0.349  -0.263
 -0.263  -0.258  -0.226
 -- Virtual --
 -0.045  -0.021  -0.006  -0.002   0.005   0.015   0.018   0.026
  0.027   0.034   0.036   0.043   0.046   0.047   0.061   0.066
  0.071   0.073   0.090   0.097   0.102   0.102   0.106   0.116
  0.116   0.119   0.123   0.132   0.132   0.134   0.140   0.145
  0.147   0.149   0.156   0.161   0.166   0.175   0.177   0.182
  0.185   0.189   0.198   0.199   0.212   0.220   0.225   0.231
  0.236   0.247   0.262   0.263   0.272   0.275   0.298   0.307
  0.312   0.316   0.319   0.331   0.355   0.366   0.372   0.396
  0.435   0.460   0.472   0.503   0.525   0.525   0.553   0.570
  0.574   0.600   0.609   0.637   0.654   0.655   0.670   0.671
  0.697   0.700   0.723   0.727   0.737   0.753   0.756   0.763
  0.784   0.800   0.808   0.826   0.844   0.896   0.904   0.946
  0.955   0.956   0.960   0.968   0.971   0.991   0.993   1.013
  1.016   1.036   1.047   1.054   1.083   1.098   1.099   1.108
  1.129   1.181   1.199   1.221   1.238   1.284   1.326   1.348
  1.353   1.361   1.362   1.391   1.446   1.460   1.496   1.537
  1.575   1.690   1.693   1.781   1.787   1.876   1.885   1.889
  1.910   1.928   1.934   1.963   2.017   2.022   2.066   2.076
  2.135   2.164   2.182   2.215   2.221   2.245   2.252   2.315
  2.366   2.370   2.434   2.447   2.457   2.473   2.491   2.513
  2.514   2.536   2.583   2.588   2.618   2.640   2.693   2.709
  2.767   2.800   2.870   2.883   2.941   3.151   3.190   3.269
  3.271   3.404   3.425   3.719   3.744   3.957   3.984   4.274
  4.312   4.322   4.329   4.423   4.535   4.658   4.713
 --------------------------------------------------------------
 
          Ground-State Mulliken Net Atomic Charges

     Atom                 Charge (a.u.)
  ----------------------------------------
      1 S                     0.021565
      2 C                    -0.043456
      3 H                     0.188614
      4 C                    -0.427959
      5 H                     0.116544
      6 C                     0.315735
      7 H                     0.143231
      8 C                    -0.319417
      9 C                    -0.309752
     10 C                     0.314550
     11 H                     0.143307
     12 C                    -0.425815
     13 H                     0.116612
     14 C                    -0.043866
     15 H                     0.188558
     16 S                     0.021551
  ----------------------------------------
  Sum of atomic charges =     0.000000

 -----------------------------------------------------------------
                    Cartesian Multipole Moments
 -----------------------------------------------------------------
    Charge (ESU x 10^10)
                -0.0000
    Dipole Moment (Debye)
         X       0.3817      Y       0.4182      Z      -0.6794
       Tot       0.8844
    Quadrupole Moments (Debye-Ang)
        XX     -64.0263     XY       0.5919     YY     -74.9774
        XZ       4.3394     YZ      -3.0007     ZZ     -66.6206
    Octopole Moments (Debye-Ang^2)
       XXX     159.2765    XXY      -1.8673    XYY      52.5209
       YYY      24.0128    XXZ     105.7913    XYZ       2.2729
       YYZ     134.9300    XZZ      45.2792    YZZ      23.6457
       ZZZ     393.7664
    Hexadecapole Moments (Debye-Ang^3)
      XXXX   -1784.2943   XXXY     -32.0038   XXYY    -377.4428
      XYYY     -84.8972   YYYY    -286.6399   XXXZ    -585.8495
      XXYZ       9.5527   XYYZ    -223.9563   YYYZ     -30.9819
      XXZZ    -598.2675   XYZZ     -55.8809   YYZZ    -436.5195
      XZZZ    -657.0431   YZZZ     -98.2309   ZZZZ   -2381.4420
 -----------------------------------------------------------------
 Calculating analytic gradient of the SCF energy
 Gradient of SCF Energy
            1           2           3           4           5           6
    1  -0.0000137   0.0000223  -0.0000121  -0.0000374   0.0000012   0.0000348
    2   0.0000019  -0.0000025  -0.0000055  -0.0000336   0.0000094  -0.0018861
    3  -0.0000285   0.0000181   0.0000045  -0.0000292   0.0000068   0.0000536
            7           8           9          10          11          12
    1   0.0000074  -0.0005174   0.0013096  -0.0008282  -0.0000172   0.0000381
    2  -0.0000302   0.0036016  -0.0027409   0.0010176   0.0000223   0.0000343
    3   0.0000054   0.0007439  -0.0021401   0.0013564   0.0000216   0.0000373
           13          14          15          16
    1   0.0000062  -0.0000235   0.0000068   0.0000233
    2  -0.0000016   0.0000013  -0.0000008   0.0000127
    3  -0.0000128  -0.0000230  -0.0000043  -0.0000097
 Max gradient component =       3.602E-03
 RMS gradient           =       8.507E-04
 Gradient time:  CPU 2.05 s  wall 2.05 s
 Geometry Optimization Parameters
   NAtoms,    NIC,     NZ,  NCons,   NDum,   NFix, NCnnct, MaxDiis
       16     111       0       1       0       0       0       0

 Cartesian Hessian Update
 Hessian Updated using BFGS Update


** CONSTRAINED OPTIMIZATION IN DELOCALIZED INTERNAL COORDINATES **
   Searching for a Minimum

   Optimization Cycle:   7

                       Coordinates (Angstroms)
     ATOM                X               Y               Z
      1  S         0.0099254769    0.0497684147    0.0150861287
      2  C         1.7429895274    0.0249779592    0.0043909718
      3  H         2.2901140938    0.0217599605    0.9373390668
      4  C         2.2409819618    0.0125111182   -1.2723383248
      5  H         3.3009842303   -0.0069251189   -1.4988043058
      6  C         1.2155984993    0.0094175865   -2.2642248671
      7  H         1.3998413830   -0.0296076183   -3.3317835155
      8  C        -0.0569013520    0.0381973302   -1.7383069662
      9  C        -1.3275172714    0.0309997383   -2.4603129172
     10  C        -1.7844554834    0.9511299890   -3.3775224008
     11  H        -1.2060006361    1.8231285276   -3.6608080840
     12  C        -3.0835529192    0.6505713784   -3.8850826986
     13  H        -3.6031353682    1.2603768392   -4.6154754077
     14  C        -3.6160793572   -0.4867789479   -3.3366119839
     15  H        -4.5793784606   -0.9378074167   -3.5329453829
     16  S        -2.5300658044   -1.2204831001   -2.2024983826
   Point Group: c1    Number of degrees of freedom:    42


   Energy is  -1104.838616102

              Constraints and their Current Values
                                        Value     Constraint
   Dihedral:        6   8   9  10      -60.000      -60.000
 Hessian Updated using BFGS Update

 41 Hessian modes will be used to form the next step
  Hessian Eigenvalues:
     0.010954    0.024082    0.044963    0.045000    0.045000    0.045000
     0.045001    0.045002    0.045004    0.045012    0.045577    0.050487
     0.159220    0.159922    0.159986    0.159999    0.160029    0.160548
     0.221282    0.223988    0.226046    0.237838    0.249983    0.270638
     0.293019    0.294485    0.312573    0.313957    0.354765    0.354907
     0.355130    0.355389    0.358268    0.358729    0.392585    0.404881
     0.428185    0.463588    0.466488    0.497933    0.501695

 Minimum Search - Taking Simple RFO Step
 Searching for Lamda that Minimizes Along All modes
 Value Taken    Lamda =   0.00000000
 Step Taken.  Stepsize is  0.002443

                             Maximum     Tolerance    Cnvgd?
         Gradient           0.000065      0.000300     YES
         Displacement       0.002081      0.001200      NO
         Energy change     -0.000000      0.000001     YES

 Final energy is   -1104.83861610240     


 ******************************
 **  OPTIMIZATION CONVERGED  **
 ******************************

                       Coordinates (Angstroms)
     ATOM                X               Y               Z
      1  S         0.0099254769    0.0497684147    0.0150861287
      2  C         1.7429895274    0.0249779592    0.0043909718
      3  H         2.2901140938    0.0217599605    0.9373390668
      4  C         2.2409819618    0.0125111182   -1.2723383248
      5  H         3.3009842303   -0.0069251189   -1.4988043058
      6  C         1.2155984993    0.0094175865   -2.2642248671
      7  H         1.3998413830   -0.0296076183   -3.3317835155
      8  C        -0.0569013520    0.0381973302   -1.7383069662
      9  C        -1.3275172714    0.0309997383   -2.4603129172
     10  C        -1.7844554834    0.9511299890   -3.3775224008
     11  H        -1.2060006361    1.8231285276   -3.6608080840
     12  C        -3.0835529192    0.6505713784   -3.8850826986
     13  H        -3.6031353682    1.2603768392   -4.6154754077
     14  C        -3.6160793572   -0.4867789479   -3.3366119839
     15  H        -4.5793784606   -0.9378074167   -3.5329453829
     16  S        -2.5300658044   -1.2204831001   -2.2024983826

Z-matrix Print:
$molecule
0 1
S 
C  1 1.733274
H  2 1.081549 1 120.035061
C  2 1.370471 1 111.666766 3 -179.958385 0
H  4 1.084098 2 123.371742 1 -179.787960 0
C  4 1.426625 2 112.740429 1 -0.591017 0
H  6 1.084043 4 124.236872 2 -178.101945 0
C  6 1.377198 4 113.487919 2 0.846548 0
C  8 1.461441 6 127.920495 4 -179.365057 0
C  9 1.377209 8 127.893617 6 -59.999999 0
H  10 1.084086 9 122.303238 8 -0.327669 0
C  10 1.426747 9 113.470738 8 -179.299192 0
H  12 1.084114 10 123.887899 9 -179.918675 0
C  12 1.370391 10 112.723459 9 0.880619 0
H  14 1.081628 12 128.280669 10 179.515529 0
S  14 1.733194 12 111.699244 10 -0.648655 0
$end

 
 --------------------------------------------------------------
 
                    Orbital Energies (a.u.)
 --------------------------------------------------------------
 
 Alpha MOs
 -- Occupied --
-88.919 -88.919 -10.237 -10.236 -10.225 -10.225 -10.204 -10.204
-10.203 -10.203  -7.979  -7.979  -5.943  -5.943  -5.939  -5.939
 -5.936  -5.936  -0.899  -0.878  -0.769  -0.745  -0.739  -0.705
 -0.601  -0.572  -0.560  -0.534  -0.524  -0.477  -0.419  -0.415
 -0.412  -0.404  -0.395  -0.375  -0.374  -0.353  -0.349  -0.263
 -0.263  -0.258  -0.226
 -- Virtual --
 -0.045  -0.021  -0.006  -0.002   0.005   0.015   0.018   0.026
  0.027   0.034   0.036   0.043   0.046   0.047   0.061   0.066
  0.071   0.073   0.090   0.097   0.102   0.102   0.106   0.116
  0.116   0.119   0.123   0.132   0.132   0.134   0.140   0.145
  0.147   0.149   0.156   0.161   0.166   0.175   0.177   0.182
  0.185   0.189   0.198   0.199   0.212   0.220   0.225   0.231
  0.236   0.247   0.262   0.263   0.272   0.275   0.298   0.307
  0.312   0.316   0.319   0.331   0.355   0.366   0.372   0.396
  0.435   0.460   0.472   0.503   0.525   0.525   0.553   0.570
  0.574   0.600   0.609   0.637   0.654   0.655   0.670   0.671
  0.697   0.700   0.723   0.727   0.737   0.753   0.756   0.763
  0.784   0.800   0.808   0.826   0.844   0.896   0.904   0.946
  0.955   0.956   0.960   0.968   0.971   0.991   0.993   1.013
  1.016   1.036   1.047   1.054   1.083   1.098   1.099   1.108
  1.129   1.181   1.199   1.221   1.238   1.284   1.326   1.348
  1.353   1.361   1.362   1.391   1.446   1.460   1.496   1.537
  1.575   1.690   1.693   1.781   1.787   1.876   1.885   1.889
  1.910   1.928   1.934   1.963   2.017   2.022   2.066   2.076
  2.135   2.164   2.182   2.215   2.221   2.245   2.252   2.315
  2.366   2.370   2.434   2.447   2.457   2.473   2.491   2.513
  2.514   2.536   2.583   2.588   2.618   2.640   2.693   2.709
  2.767   2.800   2.870   2.883   2.941   3.151   3.190   3.269
  3.271   3.404   3.425   3.719   3.744   3.957   3.984   4.274
  4.312   4.322   4.329   4.423   4.535   4.658   4.713
 --------------------------------------------------------------
 
          Ground-State Mulliken Net Atomic Charges

     Atom                 Charge (a.u.)
  ----------------------------------------
      1 S                     0.021565
      2 C                    -0.043456
      3 H                     0.188614
      4 C                    -0.427959
      5 H                     0.116544
      6 C                     0.315735
      7 H                     0.143231
      8 C                    -0.319417
      9 C                    -0.309752
     10 C                     0.314550
     11 H                     0.143307
     12 C                    -0.425815
     13 H                     0.116612
     14 C                    -0.043866
     15 H                     0.188558
     16 S                     0.021551
  ----------------------------------------
  Sum of atomic charges =     0.000000

 -----------------------------------------------------------------
                    Cartesian Multipole Moments
 -----------------------------------------------------------------
    Charge (ESU x 10^10)
                -0.0000
    Dipole Moment (Debye)
         X       0.3817      Y       0.4182      Z      -0.6794
       Tot       0.8844
    Quadrupole Moments (Debye-Ang)
        XX     -64.0263     XY       0.5919     YY     -74.9774
        XZ       4.3394     YZ      -3.0007     ZZ     -66.6206
    Octopole Moments (Debye-Ang^2)
       XXX     159.2765    XXY      -1.8673    XYY      52.5209
       YYY      24.0128    XXZ     105.7913    XYZ       2.2729
       YYZ     134.9300    XZZ      45.2792    YZZ      23.6457
       ZZZ     393.7664
    Hexadecapole Moments (Debye-Ang^3)
      XXXX   -1784.2943   XXXY     -32.0038   XXYY    -377.4428
      XYYY     -84.8972   YYYY    -286.6399   XXXZ    -585.8495
      XXYZ       9.5527   XYYZ    -223.9563   YYYZ     -30.9819
      XXZZ    -598.2675   XYZZ     -55.8809   YYZZ    -436.5195
      XZZZ    -657.0431   YZZZ     -98.2309   ZZZZ   -2381.4420
 -----------------------------------------------------------------
Archival summary:
1\1\nid00477\OPT\ProcedureUnspecified\BasisUnspecified\286\bwood\WedMay3102:25:482017WedMay3102:25:482017\0\\#,OPT,ProcedureUnspecified,BasisUnspecified,\\0,1\S\C,1,1.73327\H,2,1.08155,1,120.035\C,2,1.37047,1,111.667,3,-179.958,0\H,4,1.0841,2,123.372,1,-179.788,0\C,4,1.42663,2,112.74,1,-0.591017,0\H,6,1.08404,4,124.237,2,-178.102,0\C,6,1.3772,4,113.488,2,0.846548,0\C,8,1.46144,6,127.92,4,-179.365,0\C,9,1.37721,8,127.894,6,-60,0\H,10,1.08409,9,122.303,8,-0.327669,0\C,10,1.42675,9,113.471,8,-179.299,0\H,12,1.08411,10,123.888,9,-179.919,0\C,12,1.37039,10,112.723,9,0.880619,0\H,14,1.08163,12,128.281,10,179.516,0\S,14,1.73319,12,111.699,10,-0.648655,0\\\@

 Total job time:  57.93s(wall), 56.86s(cpu) 
 Wed May 31 02:25:48 2017

        *************************************************************
        *                                                           *
        *  Thank you very much for using Q-Chem.  Have a nice day.  *
        *                                                           *
        *************************************************************


0 sent ACK to 0 
now end server 0 ... 
