srun -N 1 --ntasks-per-node 16 --cpus-per-task 4 --cpu_bind=cores --nodelist nid00456 /global/project/projectdirs/jcesr/qchem/qc44/cnl_qc441/dist/exe/qcprog.cori.haswell.exe .pt_n2_neutral_130.0.in.48975.qcin.1 /global/cscratch1/sd/bwood/qchem/nx/qchem48975/
Process 1 of 16 is on nid00456 - thread support 0
Process 2 of 16 is on nid00456 - thread support 0
Process 3 of 16 is on nid00456 - thread support 0
Process 4 of 16 is on nid00456 - thread support 0
Process 5 of 16 is on nid00456 - thread support 0
Process 6 of 16 is on nid00456 - thread support 0
Process 0 of 16 is on nid00456 - thread support 0
initial socket setup ...start
Process 15 of 16 is on nid00456 - thread support 0
initial socket setup ...done 
now start server 0 ... 
nid00456 10.128.1
Q-Chem Developer Version! Running on 10.128.1.*
                  Welcome to Q-Chem
     A Quantum Leap Into The Future Of Chemistry


 Q-Chem 4.4, Q-Chem, Inc., Pleasanton, CA (2016)

 Y. Shao,  Z. Gan,  E. Epifanovsky,  A. T. B. Gilbert,  M. Wormit,  
 J. Kussmann,  A. W. Lange,  A. Behn,  J. Deng,  X. Feng,  D. Ghosh,  
 M. Goldey,  P. R. Horn,  L. D. Jacobson,  I. Kaliman,  F. Rob,  
 R. Z. Khaliullin,  T. Kus,  A. Landau,  J. Liu,  E. I. Proynov,  Y. M. Rhee,  
 R. M. Richard,  M. A. Rohrdanz,  R. P. Steele,  E. J. Sundstrom,  
 H. L. Woodcock III,  P. M. Zimmerman,  D. Zuev,  B. Albrecht,  E. Alguire,  
 B. Austin,  S. A. Baeppler,  G. J. O. Beran,  Y. A. Bernard,  
 E. J. Berquist,  K. Brandhorst,  K. B. Bravaya,  S. T. Brown,  D. Casanova,  
 C.-M. Chang,  Y. Chen,  S. H. Chien,  K. D. Closser,  M. P. Coons,  
 D. L. Crittenden,  S. Dasgupta,  M. Diedenhofen,  R. A. DiStasio Jr.,  
 H. Do,  A. D. Dutoi,  R. G. Edgar,  P.-T. Fang,  S. Fatehi,  Q. Feng,  
 L. Fusti-Molnar,  A. Ghysels,  A. Golubeva-Zadorozhnaya,  J. Gomes,  
 A. Gunina,  M. W. D. Hanson-Heine,  P. H. P. Harbach,  A. W. Hauser,  
 J. E. Herr,  E. G. Hohenstein,  Z. C. Holden,  K. Hui,  T.-C. Jagau,  H. Ji,  
 B. Kaduk,  K. Khistyaev,  Jaehoon Kim,  Jihan Kim,  R. A. King,  
 P. Klunzinger,  K. Koh,  D. Kosenkov,  T. Kowalczyk,  C. M. Krauter,  
 A. Kunitsa,  K. U. Lao,  A. Laurent,  K. V. Lawler,  J. Lee,  D. Lefrancois,  
 S. Lehtola,  S. V. Levchenko,  C. Y. Lin,  Y.-S. Lin,  F. Liu,  E. Livshits,  
 R. C. Lochan,  A. Luenser,  P. Manohar,  S. F. Manzer,  S.-P. Mao,  Y. Mao,  
 N. Mardirossian,  A. V. Marenich,  L. A. Martinez-Martinez,  S. A. Maurer,  
 N. J. Mayhall,  J.-M. Mewes,  A. F. Morrison,  K. Nanda,  T. S. Nguyen-Beck,  
 C. M. Oana,  R. Olivares-Amaya,  D. P. O'Neill,  J. A. Parkhill,  
 T. M. Perrine,  R. Peverati,  P. A. Pieniazek,  F. Plasser,  A. Prociuk,  
 D. R. Rehn,  E. Rosta,  N. J. Russ,  N. Sergueev,  S. M. Sharada,  
 S. Sharma,  D. W. Small,  A. Sodt,  T. Stauch,  T. Stein,  D. Stuck,  
 Y.-C. Su,  A. J. W. Thom,  T. Tsuchimochi,  L. Vogt,  O. Vydrov,  T. Wang,  
 M. A. Watson,  J. Wenzel,  A. White,  C. F. Williams,  V. Vanovschi,  
 K. Yao,  S. Yeganeh,  S. R. Yost,  Z.-Q. You,  I. Y. Zhang,  X. Zhang,  
 Y. Zhao,  B. R. Brooks,  G. K. L. Chan,  D. M. Chipman,  C. J. Cramer,  
 W. A. Goddard III,  M. S. Gordon,  W. J. Hehre,  A. Klamt,  
 H. F. Schaefer III,  M. W. Schmidt,  C. D. Sherrill,  D. G. Truhlar,  
 A. Warshel,  X. Xu,  A. Aspuru-Guzik,  R. Baer,  A. T. Bell,  N. A. Besley,  
 J.-D. Chai,  A. Dreuw,  B. D. Dunietz,  T. R. Furlani,  S. R. Gwaltney,  
 C.-P. Hsu,  Y. Jung,  J. Kong,  D. S. Lambrecht,  W. Liang,  C. Ochsenfeld,  
 V. A. Rassolov,  L. V. Slipchenko,  J. E. Subotnik,  T. Van Voorhis,  
 J. M. Herbert,  A. I. Krylov,  P. M. W. Gill,  M. Head-Gordon

 Contributors to earlier versions of Q-Chem not listed above: 
 R. D. Adamson,  J. Baker,  E. F. C. Byrd,  A. K. Chakraborty,  C.-L. Cheng,  
 H. Dachsel,  R. J. Doerksen,  G. Hawkins,  A. Heyden,  S. Hirata,  
 G. Kedziora,  F. J. Keil,  C. Kelley,  P. P. Korambath,  W. Kurlancheek,  
 A. M. Lee,  M. S. Lee,  D. Liotard,  I. Lotan,  P. E. Maslen,  N. Nair,  
 D. Neuhauser,  R. Olson,  B. Peters,  J. Ritchie,  N. E. Schultz,  
 N. Shenvi,  A. C. Simmonett,  K. S. Thanthiriwatte,  Q. Wu,  W. Zhang

 Please cite Q-Chem as follows:
 Y. Shao et al., Mol. Phys. 113, 184-215 (2015)
 DOI: 10.1080/00268976.2014.952696

 Q-Chem 4.4.2 for Intel X86 EM64T Linux

 Parts of Q-Chem use Armadillo 5.200.1 (Boston Tea Smuggler).
 http://arma.sourceforge.net/

 Q-Chem begins on Wed May 31 02:24:49 2017  

Host: nid00447
0

     Scratch files written to /global/cscratch1/sd/bwood/qchem/nx/qchem48975.0//
 Parallel job on  16  processors

Checking the input file for inconsistencies... 	...done.

--------------------------------------------------------------
User input:
--------------------------------------------------------------
$molecule
 0  1
 S           0.00238887        0.06077275        0.00183269
 C           1.73707619        0.03315849        0.00323229
 H           2.27612737        0.05289032        0.94042557
 C           2.24169204       -0.01546201       -1.26965798
 H           3.30285780       -0.04005365       -1.48972496
 C           1.22479222       -0.01612968       -2.26811464
 H           1.42674790       -0.02650987       -3.33334501
 C          -0.05393771        0.02880388       -1.75170966
 C          -1.32450815        0.04889988       -2.45636342
 C          -2.43978525       -0.73906010       -2.25808460
 H          -2.49093246       -1.50067406       -1.48792474
 C          -3.51797955       -0.43012202       -3.13725412
 H          -4.47454386       -0.93983782       -3.12084756
 C          -3.22353500        0.59173113       -4.00111332
 H          -3.85346303        1.03200213       -4.76192433
 S          -1.61014049        1.18376784       -3.76449976
$end


$rem
         jobtype = opt
        exchange = b3lyp
           basis = 6-31++g**
  max_scf_cycles = 150
      mem_static = 775
       mem_total = 7750
      sym_ignore = true
        symmetry = false
          thresh = 12
$end


$opt
CONSTRAINT
tors 6 8 9 10 130.0
ENDCONSTRAINT
$end

--------------------------------------------------------------
 ----------------------------------------------------------------
             Standard Nuclear Orientation (Angstroms)
    I     Atom           X                Y                Z
 ----------------------------------------------------------------
    1      S       0.0023888700     0.0607727500     0.0018326900
    2      C       1.7370761900     0.0331584900     0.0032322900
    3      H       2.2761273700     0.0528903200     0.9404255700
    4      C       2.2416920400    -0.0154620100    -1.2696579800
    5      H       3.3028578000    -0.0400536500    -1.4897249600
    6      C       1.2247922200    -0.0161296800    -2.2681146400
    7      H       1.4267479000    -0.0265098700    -3.3333450100
    8      C      -0.0539377100     0.0288038800    -1.7517096600
    9      C      -1.3245081500     0.0488998800    -2.4563634200
   10      C      -2.4397852500    -0.7390601000    -2.2580846000
   11      H      -2.4909324600    -1.5006740600    -1.4879247400
   12      C      -3.5179795500    -0.4301220200    -3.1372541200
   13      H      -4.4745438600    -0.9398378200    -3.1208475600
   14      C      -3.2235350000     0.5917311300    -4.0011133200
   15      H      -3.8534630300     1.0320021300    -4.7619243300
   16      S      -1.6101404900     1.1837678400    -3.7644997600
 ----------------------------------------------------------------
 Nuclear Repulsion Energy =   628.4901632247 hartrees
 There are       43 alpha and       43 beta electrons
 Requested basis set is 6-31++G(d,p)
 There are 76 shells and 234 basis functions

 Total QAlloc Memory Limit   7750 MB
 Mega-Array Size       758 MB
 MEM_STATIC part       775 MB
 A cutoff of  1.0D-12 yielded   2532 shell pairs
 There are     24926 function pairs

 Q-Chem warning in module /project/projectdirs/jcesr/qchem/qc44/cnl_qc441/compile/cori/qc_src/libqints/qchem/aobasis.C, line 68:

 Using reconstructed effective core potential

 
 -------------------------------------------------------
 OpenMP Integral Computing Module                       
 Release: version 1.0, May 2013, Q-Chem Inc. Pittsburgh 
 -------------------------------------------------------
 Integral Job Info:
 Integral job number is                      11
 Integral operator is                         1
 short-range coefficients                     0
 long-range coefficients              100000000
 Omega coefficients                           0
 if combine SR and LR in K                    0
 Integral screening is                        0
 Integral computing path is                   2
 max size of driver memory is            800000
 size of driver memory is                593474
 size of scratch memory is             15166112
 max col of scratch BK array               1296
 max len of scratch array in speh3          155
 max len of scratch index in speh4           18
 max int batch size is                      520
 min int batch size is                       52
 fixed nKL is                                52
 max L of basis functions is                  2
 order of int derivative is                   0
 number of shells is                         76
 number of basis is                         234
 number of cartesian basis is               234
 number of contracted shell pairs          2532
 number of primitive shell pairs           8248
 maxK2 (contraction) of shell pair           36
 max number of K2 of shell pair               1
 max number of CS2 of shell pair            270
 max number of PS2 of shell pair           1512
 mem total for path MDJ                   51992
 -------------------------------------------------------
 Smallest overlap matrix eigenvalue = 1.10E-06

 Scale SEOQF with 1.000000e-01/1.000000e-01/1.000000e-01

 Standard Electronic Orientation quadrupole field applied
 Nucleus-field energy     =    -0.0000000451 hartrees
 Guess from superposition of atomic densities
 Warning:  Energy on first SCF cycle will be non-variational
 A restricted hybrid HF-DFT SCF calculation will be
 performed using Pulay DIIS extrapolation
 Exchange:     0.2000 Hartree-Fock + 0.0800 Slater + 0.7200 B88
 Correlation:  0.1900 VWN1RPA + 0.8100 LYP
 Using SG-1 standard quadrature grid
 SCF converges when DIIS error is below 1.0E-08
 ---------------------------------------
  Cycle       Energy         DIIS Error
 ---------------------------------------
    1   -1107.1956480456      4.41E-02
    2   -1104.6778171523      4.55E-03
    3   -1104.4753965306      6.69E-03
    4   -1104.8333601157      8.51E-04
    5   -1104.8380210121      4.43E-04
    6   -1104.8393357830      1.27E-04
    7   -1104.8394266557      6.39E-05
    8   -1104.8394543967      1.58E-05
    9   -1104.8394563818      1.97E-06
   10   -1104.8394564078      9.87E-07
   11   -1104.8394564152      4.06E-07
   12   -1104.8394564160      1.18E-07
   13   -1104.8394564161      2.71E-08
   14   -1104.8394564158      9.13E-09 Convergence criterion met
 ---------------------------------------
 SCF time:  CPU 7.61 s  wall 7.18 s
 SCF   energy in the final basis set = -1104.8394564158
 Total energy in the final basis set = -1104.8394564158
 
 --------------------------------------------------------------
 
                    Orbital Energies (a.u.)
 --------------------------------------------------------------
 
 Alpha MOs
 -- Occupied --
-88.920 -88.920 -10.237 -10.237 -10.225 -10.225 -10.204 -10.204
-10.203 -10.203  -7.979  -7.979  -5.943  -5.943  -5.940  -5.939
 -5.936  -5.936  -0.899  -0.878  -0.771  -0.746  -0.738  -0.705
 -0.603  -0.576  -0.556  -0.534  -0.524  -0.478  -0.418  -0.417
 -0.410  -0.405  -0.397  -0.376  -0.374  -0.355  -0.347  -0.268
 -0.262  -0.260  -0.221
 -- Virtual --
 -0.049  -0.016  -0.006  -0.003   0.006   0.010   0.017   0.022
  0.028   0.036   0.038   0.042   0.045   0.057   0.058   0.063
  0.070   0.077   0.091   0.094   0.103   0.105   0.105   0.109
  0.120   0.122   0.130   0.130   0.133   0.133   0.136   0.141
  0.147   0.151   0.156   0.166   0.167   0.172   0.177   0.180
  0.186   0.189   0.201   0.207   0.211   0.224   0.226   0.233
  0.237   0.238   0.261   0.268   0.276   0.281   0.285   0.285
  0.312   0.319   0.323   0.337   0.354   0.360   0.378   0.389
  0.434   0.457   0.466   0.513   0.525   0.530   0.534   0.570
  0.580   0.600   0.615   0.630   0.653   0.658   0.672   0.682
  0.697   0.710   0.720   0.726   0.737   0.750   0.762   0.769
  0.780   0.807   0.809   0.830   0.833   0.874   0.914   0.942
  0.948   0.951   0.961   0.966   0.966   0.987   1.001   1.014
  1.017   1.030   1.046   1.070   1.089   1.093   1.102   1.116
  1.147   1.177   1.194   1.217   1.255   1.275   1.315   1.349
  1.349   1.356   1.364   1.378   1.449   1.469   1.496   1.542
  1.553   1.690   1.694   1.756   1.802   1.861   1.874   1.887
  1.916   1.923   1.961   1.988   2.004   2.040   2.084   2.086
  2.118   2.143   2.179   2.181   2.231   2.253   2.261   2.338
  2.366   2.368   2.421   2.438   2.468   2.469   2.493   2.509
  2.522   2.524   2.585   2.587   2.595   2.655   2.697   2.710
  2.748   2.852   2.860   2.902   2.929   3.151   3.192   3.270
  3.272   3.404   3.426   3.721   3.742   3.973   3.975   4.262
  4.304   4.319   4.332   4.423   4.535   4.657   4.713
 --------------------------------------------------------------
 
          Ground-State Mulliken Net Atomic Charges

     Atom                 Charge (a.u.)
  ----------------------------------------
      1 S                     0.020250
      2 C                    -0.038817
      3 H                     0.187942
      4 C                    -0.407735
      5 H                     0.116018
      6 C                     0.253644
      7 H                     0.135420
      8 C                    -0.269088
      9 C                    -0.263496
     10 C                     0.250995
     11 H                     0.135359
     12 C                    -0.404875
     13 H                     0.115991
     14 C                    -0.040136
     15 H                     0.187885
     16 S                     0.020643
  ----------------------------------------
  Sum of atomic charges =     0.000000

 -----------------------------------------------------------------
                    Cartesian Multipole Moments
 -----------------------------------------------------------------
    Charge (ESU x 10^10)
                 0.0000
    Dipole Moment (Debye)
         X       0.0672      Y      -0.3471      Z      -0.1324
       Tot       0.3775
    Quadrupole Moments (Debye-Ang)
        XX     -63.1182     XY       1.3886     YY     -75.9339
        XZ       4.0984     YZ      -1.4921     ZZ     -68.5050
    Octopole Moments (Debye-Ang^2)
       XXX     139.5773    XXY     -18.1517    XYY      46.1695
       YYY     -39.0735    XXZ     118.0020    XYZ       5.2853
       YYZ     152.9799    XZZ      36.4902    YZZ       1.8986
       ZZZ     431.6644
    Hexadecapole Moments (Debye-Ang^3)
      XXXX   -1633.2812   XXXY      70.4699   XXYY    -346.8425
      XYYY      48.3528   YYYY    -263.6194   XXXZ    -604.8927
      XXYZ      41.7585   XYYZ    -233.8408   YYYZ     162.0370
      XXZZ    -634.0969   XYZZ     -35.9547   YYZZ    -529.3183
      XZZZ    -629.2034   YZZZ      78.4641   ZZZZ   -2803.0603
 -----------------------------------------------------------------
 Calculating analytic gradient of the SCF energy
 Gradient of SCF Energy
            1           2           3           4           5           6
    1  -0.0004371   0.0010500  -0.0002214  -0.0003934  -0.0000502   0.0010580
    2  -0.0010548   0.0016456   0.0008024  -0.0017128   0.0001347  -0.0036512
    3   0.0003255  -0.0005440  -0.0000311  -0.0002172  -0.0000069  -0.0000070
            7           8           9          10          11          12
    1   0.0005613  -0.0048515   0.0039483   0.0002147  -0.0010490   0.0009800
    2   0.0014123   0.0024198   0.0023638  -0.0029481   0.0008528  -0.0011449
    3   0.0000881  -0.0012810   0.0033561  -0.0026425   0.0007859  -0.0007616
           13          14          15          16
    1   0.0000054  -0.0014481  -0.0000705   0.0007034
    2   0.0001215   0.0004110   0.0006202  -0.0002723
    3   0.0001063   0.0012904   0.0005538  -0.0010149
 Max gradient component =       4.851E-03
 RMS gradient           =       1.560E-03
 Gradient time:  CPU 2.08 s  wall 2.14 s
 Geometry Optimization Parameters
   NAtoms,    NIC,     NZ,  NCons,   NDum,   NFix, NCnnct, MaxDiis
       16     111       0       1       0       0       0       0


** CONSTRAINED OPTIMIZATION IN DELOCALIZED INTERNAL COORDINATES **
   Searching for a Minimum

   Optimization Cycle:   1

                       Coordinates (Angstroms)
     ATOM                X               Y               Z
      1  S         0.0023888700    0.0607727500    0.0018326900
      2  C         1.7370761900    0.0331584900    0.0032322900
      3  H         2.2761273700    0.0528903200    0.9404255700
      4  C         2.2416920400   -0.0154620100   -1.2696579800
      5  H         3.3028578000   -0.0400536500   -1.4897249600
      6  C         1.2247922200   -0.0161296800   -2.2681146400
      7  H         1.4267479000   -0.0265098700   -3.3333450100
      8  C        -0.0539377100    0.0288038800   -1.7517096600
      9  C        -1.3245081500    0.0488998800   -2.4563634200
     10  C        -2.4397852500   -0.7390601000   -2.2580846000
     11  H        -2.4909324600   -1.5006740600   -1.4879247400
     12  C        -3.5179795500   -0.4301220200   -3.1372541200
     13  H        -4.4745438600   -0.9398378200   -3.1208475600
     14  C        -3.2235350000    0.5917311300   -4.0011133200
     15  H        -3.8534630300    1.0320021300   -4.7619243300
     16  S        -1.6101404900    1.1837678400   -3.7644997600
   Point Group: c1    Number of degrees of freedom:    42


   Energy is  -1104.839456416

              Constraints and their Current Values
                                        Value     Constraint
   Dihedral:        6   8   9  10      130.000      130.000

 Attempting to Generate Delocalized Internal Coordinates

 41 Hessian modes will be used to form the next step
  Hessian Eigenvalues:
     0.045000    0.045000    0.045000    0.045000    0.045000    0.045000
     0.045002    0.045002    0.045003    0.045004    0.045011    0.045012
     0.159943    0.159949    0.159991    0.159992    0.160000    0.160000
     0.221282    0.221282    0.237835    0.237839    0.250000    0.250000
     0.294264    0.294663    0.312518    0.312618    0.354736    0.354850
     0.355125    0.355132    0.358226    0.358329    0.378510    0.404854
     0.404909    0.463547    0.463616    0.497922    0.497945

 Minimum Search - Taking Simple RFO Step
 Searching for Lamda that Minimizes Along All modes
 Value Taken    Lamda =  -0.00047244
 Step Taken.  Stepsize is  0.095908

                             Maximum     Tolerance    Cnvgd?
         Gradient           0.002495      0.000300      NO
         Displacement       0.060809      0.001200      NO
         Energy change     *********      0.000001      NO


 New Cartesian Coordinates Obtained by Inverse Iteration

 Displacement from previous Coordinates is:  0.196257
 ----------------------------------------------------------------
             Standard Nuclear Orientation (Angstroms)
    I     Atom           X                Y                Z
 ----------------------------------------------------------------
    1      S       0.0080298972     0.0729961223     0.0072897094
    2      C       1.7408401971     0.0114085048     0.0036483360
    3      H       2.2836587202    -0.0008034201     0.9390006571
    4      C       2.2415638855    -0.0106213124    -1.2719768739
    5      H       3.3016785879    -0.0476654327    -1.4957179006
    6      C       1.2208463374     0.0074146128    -2.2675001857
    7      H       1.4146023588    -0.0074542615    -3.3341952286
    8      C      -0.0540119248     0.0507572037    -1.7458875062
    9      C      -1.3324564232     0.0681088522    -2.4469845187
   10      C      -2.4439466512    -0.7206313188    -2.2425903311
   11      H      -2.4852064945    -1.4834877014    -1.4730846882
   12      C      -3.5191908705    -0.4283861193    -3.1324097505
   13      H      -4.4700650399    -0.9489645883    -3.1211649070
   14      C      -3.2201812922     0.5758660989    -4.0157670622
   15      H      -3.8428706541     0.9915758286    -4.7962992274
   16      S      -1.6204337438     1.1940641413    -3.7614340724
 ----------------------------------------------------------------
 Nuclear Repulsion Energy =   628.3339803830 hartrees
 There are       43 alpha and       43 beta electrons
 Applying Cartesian multipole field
    Component          Value
    ---------          -----
     (2,0,0)        1.00000E-11
     (0,2,0)        2.00000E-11
     (0,0,2)       -3.00000E-11
 Nucleus-field energy     =    -0.0000000450 hartrees
 Requested basis set is 6-31++G(d,p)
 There are 76 shells and 234 basis functions
 A cutoff of  1.0D-12 yielded   2532 shell pairs
 There are     24926 function pairs

 Q-Chem warning in module /project/projectdirs/jcesr/qchem/qc44/cnl_qc441/compile/cori/qc_src/libqints/qchem/aobasis.C, line 68:

 Using reconstructed effective core potential

 Smallest overlap matrix eigenvalue = 1.09E-06
 Guess MOs from SCF MO coefficient file
 Reading MOs from coefficient file
 Reading MOs from coefficient file
 A restricted hybrid HF-DFT SCF calculation will be
 performed using Pulay DIIS extrapolation
 Exchange:     0.2000 Hartree-Fock + 0.0800 Slater + 0.7200 B88
 Correlation:  0.1900 VWN1RPA + 0.8100 LYP
 Using SG-1 standard quadrature grid
 SCF converges when DIIS error is below 1.0E-08
 Geometry optimization detected.  Setting ReadMinima to 0
 Setting SaveMinima to 0
 ---------------------------------------
  Cycle       Energy         DIIS Error
 ---------------------------------------
    1   -1104.8416200520      7.25E-04
    2   -1104.8396788885      8.72E-05
    3   -1104.8395723381      1.51E-04
    4   -1104.8397465532      2.58E-05
    5   -1104.8397504087      1.25E-05
    6   -1104.8397514604      4.38E-06
    7   -1104.8397515923      1.13E-06
    8   -1104.8397516012      3.60E-07
    9   -1104.8397516026      5.37E-08
   10   -1104.8397516023      1.93E-08
   11   -1104.8397516025      7.85E-09 Convergence criterion met
 ---------------------------------------
 SCF time:  CPU 6.12 s  wall 5.75 s
 SCF   energy in the final basis set = -1104.8397516025
 Total energy in the final basis set = -1104.8397516025
 
 --------------------------------------------------------------
 
                    Orbital Energies (a.u.)
 --------------------------------------------------------------
 
 Alpha MOs
 -- Occupied --
-88.920 -88.920 -10.238 -10.237 -10.225 -10.225 -10.204 -10.204
-10.203 -10.203  -7.979  -7.979  -5.943  -5.943  -5.940  -5.939
 -5.936  -5.936  -0.899  -0.878  -0.770  -0.746  -0.738  -0.705
 -0.602  -0.576  -0.556  -0.534  -0.524  -0.478  -0.418  -0.417
 -0.409  -0.405  -0.397  -0.377  -0.374  -0.355  -0.347  -0.268
 -0.262  -0.260  -0.222
 -- Virtual --
 -0.049  -0.014  -0.006  -0.003   0.007   0.010   0.017   0.022
  0.029   0.036   0.038   0.042   0.045   0.057   0.058   0.062
  0.070   0.077   0.091   0.093   0.103   0.105   0.105   0.109
  0.120   0.122   0.130   0.131   0.133   0.134   0.136   0.141
  0.147   0.150   0.156   0.164   0.167   0.172   0.177   0.180
  0.186   0.189   0.201   0.206   0.210   0.225   0.227   0.232
  0.237   0.239   0.261   0.267   0.276   0.281   0.283   0.285
  0.311   0.319   0.322   0.338   0.355   0.359   0.377   0.388
  0.435   0.458   0.466   0.513   0.525   0.529   0.534   0.569
  0.581   0.598   0.615   0.630   0.653   0.656   0.673   0.680
  0.698   0.710   0.721   0.726   0.736   0.751   0.763   0.770
  0.780   0.807   0.809   0.830   0.832   0.873   0.915   0.942
  0.948   0.951   0.962   0.965   0.966   0.987   1.000   1.014
  1.017   1.030   1.047   1.069   1.089   1.092   1.102   1.115
  1.149   1.178   1.194   1.217   1.253   1.273   1.318   1.348
  1.349   1.351   1.365   1.381   1.454   1.468   1.493   1.541
  1.552   1.689   1.694   1.754   1.798   1.865   1.872   1.886
  1.917   1.923   1.959   1.988   2.003   2.038   2.086   2.086
  2.119   2.144   2.179   2.182   2.229   2.252   2.261   2.335
  2.367   2.368   2.422   2.441   2.464   2.467   2.494   2.507
  2.524   2.526   2.584   2.586   2.596   2.655   2.695   2.711
  2.746   2.850   2.858   2.901   2.930   3.151   3.191   3.269
  3.272   3.404   3.425   3.721   3.742   3.973   3.975   4.260
  4.304   4.319   4.331   4.422   4.536   4.656   4.712
 --------------------------------------------------------------
 
          Ground-State Mulliken Net Atomic Charges

     Atom                 Charge (a.u.)
  ----------------------------------------
      1 S                     0.020515
      2 C                    -0.039053
      3 H                     0.187824
      4 C                    -0.405823
      5 H                     0.115940
      6 C                     0.252717
      7 H                     0.136077
      8 C                    -0.269419
      9 C                    -0.266279
     10 C                     0.250209
     11 H                     0.136031
     12 C                    -0.403182
     13 H                     0.115905
     14 C                    -0.040474
     15 H                     0.187776
     16 S                     0.021235
  ----------------------------------------
  Sum of atomic charges =     0.000000

 -----------------------------------------------------------------
                    Cartesian Multipole Moments
 -----------------------------------------------------------------
    Charge (ESU x 10^10)
                 0.0000
    Dipole Moment (Debye)
         X       0.0785      Y      -0.4053      Z      -0.1553
       Tot       0.4411
    Quadrupole Moments (Debye-Ang)
        XX     -63.2585     XY       1.3861     YY     -75.9710
        XZ       4.1639     YZ      -1.4212     ZZ     -68.2812
    Octopole Moments (Debye-Ang^2)
       XXX     140.6598    XXY     -19.5301    XYY      46.5264
       YYY     -40.7487    XXZ     117.9384    XYZ       4.6491
       YYZ     152.9928    XZZ      35.7572    YZZ       0.8068
       ZZZ     429.2870
    Hexadecapole Moments (Debye-Ang^3)
      XXXX   -1640.8057   XXXY      73.4667   XXYY    -348.4560
      XYYY      50.1467   YYYY    -263.7786   XXXZ    -607.4697
      XXYZ      45.2222   XYYZ    -235.5018   YYYZ     166.4123
      XXZZ    -632.0827   XYZZ     -33.5056   YYZZ    -530.1151
      XZZZ    -623.6243   YZZZ      83.8643   ZZZZ   -2788.6821
 -----------------------------------------------------------------
 Calculating analytic gradient of the SCF energy
 Gradient of SCF Energy
            1           2           3           4           5           6
    1   0.0001154   0.0003962  -0.0001004  -0.0001940   0.0000090   0.0000277
    2   0.0005602  -0.0000333   0.0002100   0.0000225   0.0000548  -0.0029300
    3   0.0001291  -0.0000330   0.0000850  -0.0000539  -0.0000063   0.0001803
            7           8           9          10          11          12
    1   0.0001409  -0.0004214   0.0000145   0.0009342  -0.0004254   0.0001746
    2   0.0008568   0.0014186   0.0005615  -0.0019041   0.0005546   0.0000593
    3  -0.0000135  -0.0007643   0.0016153  -0.0020881   0.0005566   0.0000664
           13          14          15          16
    1  -0.0000386  -0.0003785   0.0000163  -0.0002706
    2   0.0000354  -0.0001575   0.0002296   0.0004615
    3   0.0000436  -0.0000523   0.0001011   0.0002341
 Max gradient component =       2.930E-03
 RMS gradient           =       7.353E-04
 Gradient time:  CPU 1.85 s  wall 2.67 s
 Geometry Optimization Parameters
   NAtoms,    NIC,     NZ,  NCons,   NDum,   NFix, NCnnct, MaxDiis
       16     111       0       1       0       0       0       0

 Cartesian Hessian Update
 Hessian Updated using BFGS Update


** CONSTRAINED OPTIMIZATION IN DELOCALIZED INTERNAL COORDINATES **
   Searching for a Minimum

   Optimization Cycle:   2

                       Coordinates (Angstroms)
     ATOM                X               Y               Z
      1  S         0.0080298972    0.0729961223    0.0072897094
      2  C         1.7408401971    0.0114085048    0.0036483360
      3  H         2.2836587202   -0.0008034201    0.9390006571
      4  C         2.2415638855   -0.0106213124   -1.2719768739
      5  H         3.3016785879   -0.0476654327   -1.4957179006
      6  C         1.2208463374    0.0074146128   -2.2675001857
      7  H         1.4146023588   -0.0074542615   -3.3341952286
      8  C        -0.0540119248    0.0507572037   -1.7458875062
      9  C        -1.3324564232    0.0681088522   -2.4469845187
     10  C        -2.4439466512   -0.7206313188   -2.2425903311
     11  H        -2.4852064945   -1.4834877014   -1.4730846882
     12  C        -3.5191908705   -0.4283861193   -3.1324097505
     13  H        -4.4700650399   -0.9489645883   -3.1211649070
     14  C        -3.2201812922    0.5758660989   -4.0157670622
     15  H        -3.8428706541    0.9915758286   -4.7962992274
     16  S        -1.6204337438    1.1940641413   -3.7614340724
   Point Group: c1    Number of degrees of freedom:    42


   Energy is  -1104.839751602

              Constraints and their Current Values
                                        Value     Constraint
   Dihedral:        6   8   9  10      130.000      130.000
 Hessian Updated using BFGS Update

 35 Hessian modes will be used to form the next step
  Hessian Eigenvalues:
     0.027679    0.045000    0.045001    0.045007    0.045012    0.054884
     0.159035    0.159947    0.159990    0.159992    0.160000    0.160272
     0.221282    0.221565    0.237509    0.237840    0.249961    0.250140
     0.293777    0.294582    0.312560    0.312689    0.354736    0.354850
     0.355127    0.355141    0.358233    0.358349    0.383382    0.404874
     0.405410    0.463582    0.463688    0.497928    0.498183

 Minimum Search - Taking Simple RFO Step
 Searching for Lamda that Minimizes Along All modes
 Value Taken    Lamda =  -0.00010714
 Step Taken.  Stepsize is  0.060460

                             Maximum     Tolerance    Cnvgd?
         Gradient           0.001096      0.000300      NO
         Displacement       0.031207      0.001200      NO
         Energy change     -0.000295      0.000001      NO


 New Cartesian Coordinates Obtained by Inverse Iteration

 Displacement from previous Coordinates is:  0.121136
 ----------------------------------------------------------------
             Standard Nuclear Orientation (Angstroms)
    I     Atom           X                Y                Z
 ----------------------------------------------------------------
    1      S       0.0090151600     0.0721141496     0.0108485264
    2      C       1.7410629692    -0.0000496025     0.0026755993
    3      H       2.2864859654    -0.0319325656     0.9360277960
    4      C       2.2400118711    -0.0087080740    -1.2739941287
    5      H       3.2993088133    -0.0545667654    -1.4999510963
    6      C       1.2172966144     0.0248475581    -2.2673256701
    7      H       1.4063068860     0.0049233320    -3.3347379627
    8      C      -0.0554461188     0.0673671664    -1.7418288260
    9      C      -1.3368608652     0.0831102412    -2.4400435754
   10      C      -2.4459218953    -0.7069717524    -2.2310327804
   11      H      -2.4802895728    -1.4721938565    -1.4636034030
   12      C      -3.5181048107    -0.4278681749    -3.1289990277
   13      H      -4.4648993832    -0.9558441474    -3.1211470554
   14      C      -3.2170824324     0.5672019595    -4.0222908611
   15      H      -3.8358830325     0.9670716964    -4.8141220458
   16      S      -1.6221432786     1.1956760454    -3.7655490392
 ----------------------------------------------------------------
 Nuclear Repulsion Energy =   628.3778480147 hartrees
 There are       43 alpha and       43 beta electrons
 Applying Cartesian multipole field
    Component          Value
    ---------          -----
     (2,0,0)        1.00000E-11
     (0,2,0)        2.00000E-11
     (0,0,2)       -3.00000E-11
 Nucleus-field energy     =    -0.0000000451 hartrees
 Requested basis set is 6-31++G(d,p)
 There are 76 shells and 234 basis functions
 A cutoff of  1.0D-12 yielded   2536 shell pairs
 There are     25022 function pairs

 Q-Chem warning in module /project/projectdirs/jcesr/qchem/qc44/cnl_qc441/compile/cori/qc_src/libqints/qchem/aobasis.C, line 68:

 Using reconstructed effective core potential

 Smallest overlap matrix eigenvalue = 1.08E-06
 Guess MOs from SCF MO coefficient file
 Reading MOs from coefficient file
 Reading MOs from coefficient file
 A restricted hybrid HF-DFT SCF calculation will be
 performed using Pulay DIIS extrapolation
 Exchange:     0.2000 Hartree-Fock + 0.0800 Slater + 0.7200 B88
 Correlation:  0.1900 VWN1RPA + 0.8100 LYP
 Using SG-1 standard quadrature grid
 SCF converges when DIIS error is below 1.0E-08
 Geometry optimization detected.  Setting ReadMinima to 0
 Setting SaveMinima to 0
 ---------------------------------------
  Cycle       Energy         DIIS Error
 ---------------------------------------
    1   -1104.8403172985      4.45E-04
    2   -1104.8397951394      5.23E-05
    3   -1104.8397481183      9.61E-05
    4   -1104.8398200258      1.43E-05
    5   -1104.8398211537      7.54E-06
    6   -1104.8398215424      2.46E-06
    7   -1104.8398215833      6.18E-07
    8   -1104.8398215880      1.62E-07
    9   -1104.8398215895      3.23E-08
   10   -1104.8398215892      1.10E-08
   11   -1104.8398215900      5.70E-09 Convergence criterion met
 ---------------------------------------
 SCF time:  CPU 6.01 s  wall 5.72 s
 SCF   energy in the final basis set = -1104.8398215900
 Total energy in the final basis set = -1104.8398215900
 
 --------------------------------------------------------------
 
                    Orbital Energies (a.u.)
 --------------------------------------------------------------
 
 Alpha MOs
 -- Occupied --
-88.920 -88.920 -10.237 -10.237 -10.224 -10.224 -10.204 -10.204
-10.203 -10.203  -7.979  -7.979  -5.943  -5.943  -5.940  -5.939
 -5.936  -5.936  -0.899  -0.878  -0.770  -0.746  -0.738  -0.705
 -0.602  -0.576  -0.556  -0.534  -0.524  -0.478  -0.418  -0.417
 -0.409  -0.405  -0.397  -0.377  -0.374  -0.355  -0.347  -0.269
 -0.262  -0.260  -0.221
 -- Virtual --
 -0.049  -0.014  -0.006  -0.003   0.007   0.010   0.017   0.022
  0.029   0.036   0.039   0.042   0.045   0.057   0.058   0.062
  0.070   0.078   0.092   0.093   0.102   0.104   0.105   0.109
  0.120   0.122   0.131   0.131   0.132   0.134   0.136   0.140
  0.147   0.150   0.157   0.164   0.167   0.172   0.176   0.180
  0.186   0.190   0.201   0.206   0.210   0.225   0.227   0.231
  0.237   0.239   0.261   0.267   0.276   0.281   0.282   0.285
  0.312   0.318   0.321   0.339   0.355   0.359   0.377   0.388
  0.435   0.458   0.466   0.514   0.524   0.530   0.534   0.569
  0.581   0.597   0.615   0.629   0.653   0.656   0.673   0.679
  0.698   0.709   0.721   0.726   0.736   0.751   0.763   0.772
  0.780   0.808   0.809   0.831   0.832   0.872   0.915   0.942
  0.948   0.952   0.963   0.965   0.966   0.988   0.999   1.014
  1.017   1.029   1.047   1.069   1.089   1.093   1.101   1.115
  1.150   1.179   1.195   1.216   1.253   1.272   1.318   1.346
  1.349   1.352   1.365   1.384   1.459   1.466   1.489   1.541
  1.550   1.688   1.694   1.752   1.797   1.867   1.872   1.886
  1.919   1.923   1.959   1.988   2.004   2.038   2.086   2.087
  2.120   2.143   2.179   2.183   2.229   2.252   2.260   2.334
  2.367   2.368   2.422   2.442   2.461   2.467   2.495   2.505
  2.526   2.527   2.583   2.586   2.598   2.655   2.694   2.712
  2.745   2.850   2.857   2.901   2.930   3.150   3.191   3.269
  3.271   3.404   3.425   3.721   3.742   3.973   3.976   4.259
  4.304   4.318   4.330   4.421   4.536   4.657   4.712
 --------------------------------------------------------------
 
          Ground-State Mulliken Net Atomic Charges

     Atom                 Charge (a.u.)
  ----------------------------------------
      1 S                     0.018150
      2 C                    -0.038261
      3 H                     0.187650
      4 C                    -0.406831
      5 H                     0.115748
      6 C                     0.254788
      7 H                     0.136463
      8 C                    -0.268489
      9 C                    -0.265985
     10 C                     0.251468
     11 H                     0.136460
     12 C                    -0.403986
     13 H                     0.115706
     14 C                    -0.039927
     15 H                     0.187611
     16 S                     0.019434
  ----------------------------------------
  Sum of atomic charges =     0.000000

 -----------------------------------------------------------------
                    Cartesian Multipole Moments
 -----------------------------------------------------------------
    Charge (ESU x 10^10)
                 0.0000
    Dipole Moment (Debye)
         X       0.0882      Y      -0.4556      Z      -0.1747
       Tot       0.4959
    Quadrupole Moments (Debye-Ang)
        XX     -63.3743     XY       1.3969     YY     -75.9940
        XZ       4.1796     YZ      -1.3539     ZZ     -68.1203
    Octopole Moments (Debye-Ang^2)
       XXX     141.3712    XXY     -20.3598    XYY      46.7320
       YYY     -41.5542    XXZ     118.0184    XYZ       4.2129
       YYZ     153.0588    XZZ      35.3754    YZZ       0.1528
       ZZZ     427.8387
    Hexadecapole Moments (Debye-Ang^3)
      XXXX   -1643.3594   XXXY      75.0006   XXYY    -348.7686
      XYYY      50.9960   YYYY    -263.0932   XXXZ    -608.7800
      XXYZ      47.6854   XYYZ    -236.2601   YYYZ     169.3486
      XXZZ    -631.3547   XYZZ     -31.8248   YYZZ    -530.8456
      XZZZ    -620.0467   YZZZ      87.3172   ZZZZ   -2781.4039
 -----------------------------------------------------------------
 Calculating analytic gradient of the SCF energy
 Gradient of SCF Energy
            1           2           3           4           5           6
    1   0.0000444  -0.0001364  -0.0000310   0.0000459   0.0000083  -0.0002561
    2   0.0005704  -0.0001214  -0.0000608   0.0003973  -0.0001149  -0.0021524
    3   0.0001206  -0.0000295   0.0000133  -0.0000323  -0.0000260   0.0001368
            7           8           9          10          11          12
    1  -0.0000312   0.0011399  -0.0015087   0.0009441  -0.0000660  -0.0001783
    2   0.0002957   0.0014320   0.0002772  -0.0012988   0.0002100   0.0002436
    3  -0.0000261  -0.0004922   0.0011508  -0.0014660   0.0002248   0.0002392
           13          14          15          16
    1   0.0000293   0.0001745   0.0000430  -0.0002216
    2  -0.0000906  -0.0000263  -0.0000173   0.0004563
    3  -0.0000514  -0.0000106  -0.0000405   0.0002892
 Max gradient component =       2.152E-03
 RMS gradient           =       6.123E-04
 Gradient time:  CPU 2.13 s  wall 2.08 s
 Geometry Optimization Parameters
   NAtoms,    NIC,     NZ,  NCons,   NDum,   NFix, NCnnct, MaxDiis
       16     111       0       1       0       0       0       0

 Cartesian Hessian Update
 Hessian Updated using BFGS Update


** CONSTRAINED OPTIMIZATION IN DELOCALIZED INTERNAL COORDINATES **
   Searching for a Minimum

   Optimization Cycle:   3

                       Coordinates (Angstroms)
     ATOM                X               Y               Z
      1  S         0.0090151600    0.0721141496    0.0108485264
      2  C         1.7410629692   -0.0000496025    0.0026755993
      3  H         2.2864859654   -0.0319325656    0.9360277960
      4  C         2.2400118711   -0.0087080740   -1.2739941287
      5  H         3.2993088133   -0.0545667654   -1.4999510963
      6  C         1.2172966144    0.0248475581   -2.2673256701
      7  H         1.4063068860    0.0049233320   -3.3347379627
      8  C        -0.0554461188    0.0673671664   -1.7418288260
      9  C        -1.3368608652    0.0831102412   -2.4400435754
     10  C        -2.4459218953   -0.7069717524   -2.2310327804
     11  H        -2.4802895728   -1.4721938565   -1.4636034030
     12  C        -3.5181048107   -0.4278681749   -3.1289990277
     13  H        -4.4648993832   -0.9558441474   -3.1211470554
     14  C        -3.2170824324    0.5672019595   -4.0222908611
     15  H        -3.8358830325    0.9670716964   -4.8141220458
     16  S        -1.6221432786    1.1956760454   -3.7655490392
   Point Group: c1    Number of degrees of freedom:    42


   Energy is  -1104.839821590

              Constraints and their Current Values
                                        Value     Constraint
   Dihedral:        6   8   9  10      130.000      130.000
 Hessian Updated using BFGS Update

 36 Hessian modes will be used to form the next step
  Hessian Eigenvalues:
     0.017068    0.045001    0.045004    0.045005    0.045012    0.046638
     0.055679    0.159557    0.159947    0.159992    0.160000    0.160041
     0.160673    0.221283    0.221844    0.237838    0.243131    0.249929
     0.250176    0.293967    0.294564    0.312562    0.312883    0.354733
     0.354847    0.355127    0.355136    0.358234    0.358360    0.390047
     0.404874    0.405419    0.463582    0.470580    0.497931    0.498682

 Minimum Search - Taking Simple RFO Step
 Searching for Lamda that Minimizes Along All modes
 Value Taken    Lamda =  -0.00003580
 Step Taken.  Stepsize is  0.042254

                             Maximum     Tolerance    Cnvgd?
         Gradient           0.000626      0.000300      NO
         Displacement       0.020352      0.001200      NO
         Energy change     -0.000070      0.000001      NO


 New Cartesian Coordinates Obtained by Inverse Iteration

 Displacement from previous Coordinates is:  0.079324
 ----------------------------------------------------------------
             Standard Nuclear Orientation (Angstroms)
    I     Atom           X                Y                Z
 ----------------------------------------------------------------
    1      S       0.0098604160     0.0662452806     0.0129835112
    2      C       1.7418414552    -0.0083230144     0.0024034733
    3      H       2.2888959766    -0.0507701157     0.9344010665
    4      C       2.2390636038    -0.0081952658    -1.2749287792
    5      H       3.2978966860    -0.0566334087    -1.5023747311
    6      C       1.2151692482     0.0363648076    -2.2668442137
    7      H       1.4021867098     0.0152863949    -3.3345450599
    8      C      -0.0569194737     0.0784457681    -1.7392842849
    9      C      -1.3391407324     0.0932193497    -2.4353911686
   10      C      -2.4472901404    -0.6977971805    -2.2238052908
   11      H      -2.4788685946    -1.4633588452    -1.4566529800
   12      C      -3.5172652366    -0.4277811214    -3.1273802258
   13      H      -4.4625320681    -0.9584097154    -3.1194602369
   14      C      -3.2155791690     0.5609329294    -4.0274363258
   15      H      -3.8326656370     0.9520550064    -4.8249810813
   16      S      -1.6217961539     1.1928963405    -3.7717772230
 ----------------------------------------------------------------
 Nuclear Repulsion Energy =   628.3759122662 hartrees
 There are       43 alpha and       43 beta electrons
 Applying Cartesian multipole field
    Component          Value
    ---------          -----
     (2,0,0)        1.00000E-11
     (0,2,0)        2.00000E-11
     (0,0,2)       -3.00000E-11
 Nucleus-field energy     =    -0.0000000452 hartrees
 Requested basis set is 6-31++G(d,p)
 There are 76 shells and 234 basis functions
 A cutoff of  1.0D-12 yielded   2536 shell pairs
 There are     25022 function pairs

 Q-Chem warning in module /project/projectdirs/jcesr/qchem/qc44/cnl_qc441/compile/cori/qc_src/libqints/qchem/aobasis.C, line 68:

 Using reconstructed effective core potential

 Smallest overlap matrix eigenvalue = 1.07E-06
 Guess MOs from SCF MO coefficient file
 Reading MOs from coefficient file
 Reading MOs from coefficient file
 A restricted hybrid HF-DFT SCF calculation will be
 performed using Pulay DIIS extrapolation
 Exchange:     0.2000 Hartree-Fock + 0.0800 Slater + 0.7200 B88
 Correlation:  0.1900 VWN1RPA + 0.8100 LYP
 Using SG-1 standard quadrature grid
 SCF converges when DIIS error is below 1.0E-08
 Geometry optimization detected.  Setting ReadMinima to 0
 Setting SaveMinima to 0
 ---------------------------------------
  Cycle       Energy         DIIS Error
 ---------------------------------------
    1   -1104.8390167053      3.26E-04
    2   -1104.8398335545      3.35E-05
    3   -1104.8398108781      6.53E-05
    4   -1104.8398441432      8.13E-06
    5   -1104.8398444340      5.29E-06
    6   -1104.8398446295      1.29E-06
    7   -1104.8398446408      4.62E-07
    8   -1104.8398446428      7.56E-08
    9   -1104.8398446438      2.30E-08
   10   -1104.8398446429      9.56E-09 Convergence criterion met
 ---------------------------------------
 SCF time:  CPU 5.60 s  wall 5.21 s
 SCF   energy in the final basis set = -1104.8398446429
 Total energy in the final basis set = -1104.8398446429
 
 --------------------------------------------------------------
 
                    Orbital Energies (a.u.)
 --------------------------------------------------------------
 
 Alpha MOs
 -- Occupied --
-88.920 -88.920 -10.238 -10.237 -10.224 -10.224 -10.204 -10.204
-10.203 -10.203  -7.979  -7.979  -5.943  -5.943  -5.940  -5.939
 -5.936  -5.936  -0.899  -0.878  -0.770  -0.747  -0.738  -0.705
 -0.602  -0.576  -0.556  -0.534  -0.524  -0.478  -0.418  -0.418
 -0.409  -0.405  -0.397  -0.377  -0.374  -0.355  -0.347  -0.269
 -0.262  -0.260  -0.221
 -- Virtual --
 -0.049  -0.013  -0.006  -0.003   0.007   0.010   0.017   0.022
  0.029   0.036   0.039   0.042   0.045   0.057   0.057   0.062
  0.070   0.078   0.092   0.093   0.102   0.104   0.105   0.109
  0.120   0.122   0.131   0.131   0.132   0.134   0.136   0.139
  0.148   0.150   0.157   0.163   0.167   0.172   0.176   0.180
  0.187   0.190   0.202   0.206   0.210   0.225   0.227   0.231
  0.236   0.240   0.261   0.267   0.276   0.280   0.282   0.285
  0.312   0.318   0.321   0.339   0.355   0.359   0.376   0.388
  0.435   0.458   0.466   0.515   0.524   0.531   0.534   0.569
  0.581   0.597   0.615   0.628   0.654   0.656   0.673   0.679
  0.698   0.708   0.721   0.726   0.736   0.750   0.763   0.772
  0.781   0.809   0.809   0.831   0.832   0.872   0.916   0.942
  0.947   0.953   0.963   0.965   0.966   0.988   0.999   1.013
  1.018   1.029   1.047   1.068   1.089   1.093   1.101   1.114
  1.150   1.179   1.196   1.215   1.252   1.272   1.317   1.345
  1.350   1.353   1.364   1.386   1.461   1.465   1.487   1.541
  1.550   1.688   1.694   1.751   1.796   1.867   1.871   1.886
  1.920   1.923   1.958   1.987   2.004   2.038   2.087   2.087
  2.121   2.143   2.178   2.183   2.229   2.252   2.259   2.334
  2.367   2.368   2.422   2.442   2.460   2.467   2.495   2.504
  2.527   2.527   2.584   2.586   2.599   2.655   2.694   2.712
  2.744   2.849   2.856   2.901   2.930   3.150   3.192   3.269
  3.271   3.404   3.425   3.721   3.742   3.973   3.976   4.259
  4.305   4.318   4.329   4.421   4.536   4.657   4.711
 --------------------------------------------------------------
 
          Ground-State Mulliken Net Atomic Charges

     Atom                 Charge (a.u.)
  ----------------------------------------
      1 S                     0.015285
      2 C                    -0.036115
      3 H                     0.187693
      4 C                    -0.408678
      5 H                     0.115585
      6 C                     0.255443
      7 H                     0.136595
      8 C                    -0.266372
      9 C                    -0.263926
     10 C                     0.251113
     11 H                     0.136611
     12 C                    -0.405396
     13 H                     0.115548
     14 C                    -0.038064
     15 H                     0.187654
     16 S                     0.017025
  ----------------------------------------
  Sum of atomic charges =     0.000000

 -----------------------------------------------------------------
                    Cartesian Multipole Moments
 -----------------------------------------------------------------
    Charge (ESU x 10^10)
                 0.0000
    Dipole Moment (Debye)
         X       0.0936      Y      -0.4837      Z      -0.1851
       Tot       0.5263
    Quadrupole Moments (Debye-Ang)
        XX     -63.4159     XY       1.4079     YY     -76.0255
        XZ       4.1956     YZ      -1.3242     ZZ     -68.0316
    Octopole Moments (Debye-Ang^2)
       XXX     141.6232    XXY     -20.6707    XYY      46.8666
       YYY     -41.7232    XXZ     118.0682    XYZ       3.9703
       YYZ     153.2012    XZZ      35.1232    YZZ      -0.1044
       ZZZ     427.1280
    Hexadecapole Moments (Debye-Ang^3)
      XXXX   -1643.9804   XXXY      75.5540   XXYY    -348.8630
      XYYY      51.2459   YYYY    -261.9894   XXXZ    -609.3586
      XXYZ      48.8335   XYYZ    -236.8687   YYYZ     170.9472
      XXZZ    -631.1631   XYZZ     -30.9968   YYZZ    -531.7471
      XZZZ    -618.0204   YZZZ      88.9359   ZZZZ   -2779.3982
 -----------------------------------------------------------------
 Calculating analytic gradient of the SCF energy
 Gradient of SCF Energy
            1           2           3           4           5           6
    1   0.0000861  -0.0001403   0.0000470   0.0001365  -0.0000113  -0.0002656
    2   0.0002272   0.0000556  -0.0001384   0.0003235  -0.0001678  -0.0017709
    3  -0.0000676   0.0000522  -0.0000121   0.0001075   0.0000078   0.0000190
            7           8           9          10          11          12
    1  -0.0000802   0.0010116  -0.0014862   0.0008339   0.0000934  -0.0002577
    2  -0.0000532   0.0018018   0.0005720  -0.0011196  -0.0000071   0.0002548
    3  -0.0000084  -0.0005425   0.0014299  -0.0011175  -0.0000147   0.0000905
           13          14          15          16
    1   0.0000621   0.0001141  -0.0000008  -0.0001426
    2  -0.0000942   0.0001482  -0.0001075   0.0000757
    3  -0.0001081   0.0000401  -0.0000821   0.0002060
 Max gradient component =       1.802E-03
 RMS gradient           =       5.797E-04
 Gradient time:  CPU 2.14 s  wall 2.08 s
 Geometry Optimization Parameters
   NAtoms,    NIC,     NZ,  NCons,   NDum,   NFix, NCnnct, MaxDiis
       16     111       0       1       0       0       0       0

 Cartesian Hessian Update
 Hessian Updated using BFGS Update


** CONSTRAINED OPTIMIZATION IN DELOCALIZED INTERNAL COORDINATES **
   Searching for a Minimum

   Optimization Cycle:   4

                       Coordinates (Angstroms)
     ATOM                X               Y               Z
      1  S         0.0098604160    0.0662452806    0.0129835112
      2  C         1.7418414552   -0.0083230144    0.0024034733
      3  H         2.2888959766   -0.0507701157    0.9344010665
      4  C         2.2390636038   -0.0081952658   -1.2749287792
      5  H         3.2978966860   -0.0566334087   -1.5023747311
      6  C         1.2151692482    0.0363648076   -2.2668442137
      7  H         1.4021867098    0.0152863949   -3.3345450599
      8  C        -0.0569194737    0.0784457681   -1.7392842849
      9  C        -1.3391407324    0.0932193497   -2.4353911686
     10  C        -2.4472901404   -0.6977971805   -2.2238052908
     11  H        -2.4788685946   -1.4633588452   -1.4566529800
     12  C        -3.5172652366   -0.4277811214   -3.1273802258
     13  H        -4.4625320681   -0.9584097154   -3.1194602369
     14  C        -3.2155791690    0.5609329294   -4.0274363258
     15  H        -3.8326656370    0.9520550064   -4.8249810813
     16  S        -1.6217961539    1.1928963405   -3.7717772230
   Point Group: c1    Number of degrees of freedom:    42


   Energy is  -1104.839844643

              Constraints and their Current Values
                                        Value     Constraint
   Dihedral:        6   8   9  10      130.000      130.000
 Hessian Updated using BFGS Update

 38 Hessian modes will be used to form the next step
  Hessian Eigenvalues:
     0.012589    0.045001    0.045002    0.045004    0.045004    0.045012
     0.045050    0.048457    0.052405    0.159947    0.159991    0.159998
     0.160040    0.160187    0.160881    0.221283    0.221937    0.237837
     0.243601    0.249925    0.250289    0.294369    0.294834    0.312558
     0.312784    0.354743    0.354857    0.355128    0.355173    0.358247
     0.358383    0.382828    0.404881    0.408036    0.463583    0.465520
     0.497934    0.498201

 Minimum Search - Taking Simple RFO Step
 Searching for Lamda that Minimizes Along All modes
 Value Taken    Lamda =  -0.00001220
 Step Taken.  Stepsize is  0.025298

                             Maximum     Tolerance    Cnvgd?
         Gradient           0.000344      0.000300      NO
         Displacement       0.014839      0.001200      NO
         Energy change     -0.000023      0.000001      NO


 New Cartesian Coordinates Obtained by Inverse Iteration

 Displacement from previous Coordinates is:  0.048432
 ----------------------------------------------------------------
             Standard Nuclear Orientation (Angstroms)
    I     Atom           X                Y                Z
 ----------------------------------------------------------------
    1      S       0.0097566392     0.0606799923     0.0140618556
    2      C       1.7418371213    -0.0144495457     0.0018404810
    3      H       2.2894219675    -0.0607681436     0.9333061842
    4      C       2.2382138786    -0.0086085029    -1.2757924586
    5      H       3.2969323896    -0.0554184230    -1.5041547335
    6      C       1.2139747291     0.0424123229    -2.2667232406
    7      H       1.4006791426     0.0238317424    -3.3345248824
    8      C      -0.0579701666     0.0842866115    -1.7380356075
    9      C      -1.3400595669     0.0985417240    -2.4328170099
   10      C      -2.4479158823    -0.6930571425    -2.2199082799
   11      H      -2.4797849661    -1.4568869276    -1.4510429211
   12      C      -3.5162173808    -0.4283231927    -3.1266376855
   13      H      -4.4617848102    -0.9583973297    -3.1166631303
   14      C      -3.2137479250     0.5562468664    -4.0309543826
   15      H      -3.8302120793     0.9442042261    -4.8304763213
   16      S      -1.6202662008     1.1898829322    -3.7765514176
 ----------------------------------------------------------------
 Nuclear Repulsion Energy =   628.3977786075 hartrees
 There are       43 alpha and       43 beta electrons
 Applying Cartesian multipole field
    Component          Value
    ---------          -----
     (2,0,0)        1.00000E-11
     (0,2,0)        2.00000E-11
     (0,0,2)       -3.00000E-11
 Nucleus-field energy     =    -0.0000000452 hartrees
 Requested basis set is 6-31++G(d,p)
 There are 76 shells and 234 basis functions
 A cutoff of  1.0D-12 yielded   2536 shell pairs
 There are     25022 function pairs

 Q-Chem warning in module /project/projectdirs/jcesr/qchem/qc44/cnl_qc441/compile/cori/qc_src/libqints/qchem/aobasis.C, line 68:

 Using reconstructed effective core potential

 Smallest overlap matrix eigenvalue = 1.06E-06
 Guess MOs from SCF MO coefficient file
 Reading MOs from coefficient file
 Reading MOs from coefficient file
 A restricted hybrid HF-DFT SCF calculation will be
 performed using Pulay DIIS extrapolation
 Exchange:     0.2000 Hartree-Fock + 0.0800 Slater + 0.7200 B88
 Correlation:  0.1900 VWN1RPA + 0.8100 LYP
 Using SG-1 standard quadrature grid
 SCF converges when DIIS error is below 1.0E-08
 Geometry optimization detected.  Setting ReadMinima to 0
 Setting SaveMinima to 0
 ---------------------------------------
  Cycle       Energy         DIIS Error
 ---------------------------------------
    1   -1104.8391656462      2.09E-04
    2   -1104.8398496304      1.75E-05
    3   -1104.8398432966      3.47E-05
    4   -1104.8398527333      4.36E-06
    5   -1104.8398528065      3.10E-06
    6   -1104.8398528752      7.12E-07
    7   -1104.8398528785      2.54E-07
    8   -1104.8398528801      3.54E-08
    9   -1104.8398528809      1.13E-08
   10   -1104.8398528802      4.86E-09 Convergence criterion met
 ---------------------------------------
 SCF time:  CPU 5.48 s  wall 5.32 s
 SCF   energy in the final basis set = -1104.8398528802
 Total energy in the final basis set = -1104.8398528802
 
 --------------------------------------------------------------
 
                    Orbital Energies (a.u.)
 --------------------------------------------------------------
 
 Alpha MOs
 -- Occupied --
-88.920 -88.920 -10.238 -10.237 -10.224 -10.224 -10.204 -10.204
-10.203 -10.203  -7.979  -7.979  -5.943  -5.943  -5.940  -5.940
 -5.936  -5.936  -0.899  -0.878  -0.770  -0.747  -0.738  -0.705
 -0.602  -0.576  -0.556  -0.534  -0.524  -0.478  -0.418  -0.418
 -0.409  -0.405  -0.397  -0.377  -0.374  -0.355  -0.347  -0.270
 -0.262  -0.260  -0.221
 -- Virtual --
 -0.050  -0.013  -0.006  -0.003   0.007   0.010   0.017   0.022
  0.029   0.036   0.039   0.042   0.045   0.057   0.057   0.062
  0.071   0.078   0.092   0.093   0.102   0.104   0.105   0.109
  0.120   0.122   0.131   0.131   0.132   0.134   0.136   0.139
  0.148   0.150   0.158   0.163   0.167   0.172   0.176   0.179
  0.187   0.190   0.202   0.206   0.210   0.226   0.227   0.231
  0.236   0.240   0.261   0.267   0.276   0.279   0.282   0.285
  0.312   0.318   0.321   0.340   0.355   0.359   0.376   0.388
  0.435   0.457   0.466   0.515   0.524   0.531   0.534   0.569
  0.581   0.597   0.615   0.628   0.654   0.655   0.672   0.679
  0.699   0.707   0.721   0.726   0.737   0.750   0.763   0.773
  0.781   0.809   0.810   0.831   0.832   0.872   0.916   0.941
  0.947   0.953   0.963   0.965   0.966   0.988   0.999   1.013
  1.018   1.029   1.047   1.068   1.089   1.093   1.100   1.114
  1.150   1.179   1.196   1.215   1.252   1.271   1.317   1.346
  1.350   1.353   1.364   1.386   1.461   1.464   1.487   1.541
  1.551   1.687   1.694   1.751   1.796   1.867   1.871   1.886
  1.920   1.922   1.958   1.987   2.004   2.038   2.087   2.087
  2.121   2.143   2.177   2.184   2.229   2.252   2.259   2.335
  2.367   2.368   2.422   2.442   2.460   2.467   2.495   2.504
  2.527   2.527   2.584   2.586   2.600   2.655   2.694   2.712
  2.744   2.849   2.856   2.902   2.930   3.150   3.192   3.269
  3.271   3.404   3.425   3.721   3.742   3.973   3.976   4.259
  4.305   4.317   4.329   4.421   4.536   4.657   4.711
 --------------------------------------------------------------
 
          Ground-State Mulliken Net Atomic Charges

     Atom                 Charge (a.u.)
  ----------------------------------------
      1 S                     0.013885
      2 C                    -0.035183
      3 H                     0.187709
      4 C                    -0.409347
      5 H                     0.115483
      6 C                     0.254340
      7 H                     0.136526
      8 C                    -0.263911
      9 C                    -0.261424
     10 C                     0.249471
     11 H                     0.136547
     12 C                    -0.405779
     13 H                     0.115451
     14 C                    -0.037288
     15 H                     0.187669
     16 S                     0.015851
  ----------------------------------------
  Sum of atomic charges =     0.000000

 -----------------------------------------------------------------
                    Cartesian Multipole Moments
 -----------------------------------------------------------------
    Charge (ESU x 10^10)
                 0.0000
    Dipole Moment (Debye)
         X       0.0946      Y      -0.4894      Z      -0.1871
       Tot       0.5324
    Quadrupole Moments (Debye-Ang)
        XX     -63.4235     XY       1.4193     YY     -76.0489
        XZ       4.1863     YZ      -1.3342     ZZ     -68.0052
    Octopole Moments (Debye-Ang^2)
       XXX     141.6312    XXY     -20.6836    XYY      46.9395
       YYY     -41.5666    XXZ     118.1454    XYZ       3.8635
       YYZ     153.3221    XZZ      35.0784    YZZ      -0.0783
       ZZZ     426.9425
    Hexadecapole Moments (Debye-Ang^3)
      XXXX   -1643.0309   XXXY      75.6454   XXYY    -348.7579
      XYYY      51.1308   YYYY    -261.0890   XXXZ    -609.5813
      XXYZ      49.1319   XYYZ    -237.1741   YYYZ     171.4976
      XXZZ    -631.4423   XYZZ     -30.7300   YYZZ    -532.3946
      XZZZ    -617.2793   YZZZ      89.1969   ZZZZ   -2779.9923
 -----------------------------------------------------------------
 Calculating analytic gradient of the SCF energy
 Gradient of SCF Energy
            1           2           3           4           5           6
    1  -0.0000150  -0.0001064   0.0000352   0.0000617  -0.0000059  -0.0000706
    2   0.0000181   0.0001201  -0.0001087   0.0001448  -0.0001095  -0.0017560
    3  -0.0000268   0.0000053  -0.0000276   0.0000200  -0.0000011  -0.0000013
            7           8           9          10          11          12
    1  -0.0000307   0.0005919  -0.0011786   0.0006434   0.0000762  -0.0001133
    2  -0.0001515   0.0021518   0.0008763  -0.0011903  -0.0000920   0.0001014
    3  -0.0000033  -0.0006631   0.0018020  -0.0011172  -0.0000915   0.0000699
           13          14          15          16
    1   0.0000382   0.0000623   0.0000049   0.0000066
    2  -0.0000584   0.0001447  -0.0000883  -0.0000026
    3  -0.0000636   0.0001001  -0.0000472   0.0000454
 Max gradient component =       2.152E-03
 RMS gradient           =       5.986E-04
 Gradient time:  CPU 2.07 s  wall 2.07 s
 Geometry Optimization Parameters
   NAtoms,    NIC,     NZ,  NCons,   NDum,   NFix, NCnnct, MaxDiis
       16     111       0       1       0       0       0       0

 Cartesian Hessian Update
 Hessian Updated using BFGS Update


** CONSTRAINED OPTIMIZATION IN DELOCALIZED INTERNAL COORDINATES **
   Searching for a Minimum

   Optimization Cycle:   5

                       Coordinates (Angstroms)
     ATOM                X               Y               Z
      1  S         0.0097566392    0.0606799923    0.0140618556
      2  C         1.7418371213   -0.0144495457    0.0018404810
      3  H         2.2894219675   -0.0607681436    0.9333061842
      4  C         2.2382138786   -0.0086085029   -1.2757924586
      5  H         3.2969323896   -0.0554184230   -1.5041547335
      6  C         1.2139747291    0.0424123229   -2.2667232406
      7  H         1.4006791426    0.0238317424   -3.3345248824
      8  C        -0.0579701666    0.0842866115   -1.7380356075
      9  C        -1.3400595669    0.0985417240   -2.4328170099
     10  C        -2.4479158823   -0.6930571425   -2.2199082799
     11  H        -2.4797849661   -1.4568869276   -1.4510429211
     12  C        -3.5162173808   -0.4283231927   -3.1266376855
     13  H        -4.4617848102   -0.9583973297   -3.1166631303
     14  C        -3.2137479250    0.5562468664   -4.0309543826
     15  H        -3.8302120793    0.9442042261   -4.8304763213
     16  S        -1.6202662008    1.1898829322   -3.7765514176
   Point Group: c1    Number of degrees of freedom:    42


   Energy is  -1104.839852880

              Constraints and their Current Values
                                        Value     Constraint
   Dihedral:        6   8   9  10      130.000      130.000
 Hessian Updated using BFGS Update

 37 Hessian modes will be used to form the next step
  Hessian Eigenvalues:
     0.010246    0.035861    0.045000    0.045001    0.045011    0.045014
     0.045256    0.055555    0.158856    0.159947    0.159991    0.159998
     0.160107    0.160681    0.221282    0.222040    0.237840    0.245803
     0.249954    0.250425    0.293881    0.294602    0.312566    0.312783
     0.354744    0.354857    0.355128    0.355168    0.358254    0.358406
     0.385638    0.404881    0.410219    0.463580    0.465459    0.497933
     0.499131

 Minimum Search - Taking Simple RFO Step
 Searching for Lamda that Minimizes Along All modes
 Value Taken    Lamda =  -0.00000557
 Step Taken.  Stepsize is  0.018163

                             Maximum     Tolerance    Cnvgd?
         Gradient           0.000202      0.000300     YES
         Displacement       0.011547      0.001200      NO
         Energy change     -0.000008      0.000001      NO


 New Cartesian Coordinates Obtained by Inverse Iteration

 Displacement from previous Coordinates is:  0.033412
 ----------------------------------------------------------------
             Standard Nuclear Orientation (Angstroms)
    I     Atom           X                Y                Z
 ----------------------------------------------------------------
    1      S       0.0101394210     0.0564614492     0.0146342603
    2      C       1.7422845438    -0.0192586851     0.0016309219
    3      H       2.2899900072    -0.0665814465     0.9329683959
    4      C       2.2379610459    -0.0093834104    -1.2762145871
    5      H       3.2966708909    -0.0534066807    -1.5051909594
    6      C       1.2134425030     0.0456558013    -2.2665332123
    7      H       1.4001969084     0.0311257890    -3.3343854461
    8      C      -0.0584867495     0.0873686004    -1.7373965752
    9      C      -1.3406154698     0.1012644530    -2.4313479188
   10      C      -2.4484426089    -0.6904875180    -2.2178975392
   11      H      -2.4816322720    -1.4516057937    -1.4464087653
   12      C      -3.5156684717    -0.4290314476    -3.1267073703
   13      H      -4.4620695835    -0.9575779328    -3.1143954355
   14      C      -3.2126179644     0.5525950667    -4.0339791632
   15      H      -3.8289195543     0.9397845812    -4.8339887478
   16      S      -1.6193757560     1.1872543840    -3.7798614080
 ----------------------------------------------------------------
 Nuclear Repulsion Energy =   628.3850050687 hartrees
 There are       43 alpha and       43 beta electrons
 Applying Cartesian multipole field
    Component          Value
    ---------          -----
     (2,0,0)        1.00000E-11
     (0,2,0)        2.00000E-11
     (0,0,2)       -3.00000E-11
 Nucleus-field energy     =    -0.0000000453 hartrees
 Requested basis set is 6-31++G(d,p)
 There are 76 shells and 234 basis functions
 A cutoff of  1.0D-12 yielded   2536 shell pairs
 There are     25022 function pairs

 Q-Chem warning in module /project/projectdirs/jcesr/qchem/qc44/cnl_qc441/compile/cori/qc_src/libqints/qchem/aobasis.C, line 68:

 Using reconstructed effective core potential

 Smallest overlap matrix eigenvalue = 1.05E-06
 Guess MOs from SCF MO coefficient file
 Reading MOs from coefficient file
 Reading MOs from coefficient file
 A restricted hybrid HF-DFT SCF calculation will be
 performed using Pulay DIIS extrapolation
 Exchange:     0.2000 Hartree-Fock + 0.0800 Slater + 0.7200 B88
 Correlation:  0.1900 VWN1RPA + 0.8100 LYP
 Using SG-1 standard quadrature grid
 SCF converges when DIIS error is below 1.0E-08
 Geometry optimization detected.  Setting ReadMinima to 0
 Setting SaveMinima to 0
 ---------------------------------------
  Cycle       Energy         DIIS Error
 ---------------------------------------
    1   -1104.8392825139      1.35E-04
    2   -1104.8398551837      1.02E-05
    3   -1104.8398534301      1.93E-05
    4   -1104.8398563021      2.79E-06
    5   -1104.8398563318      2.01E-06
    6   -1104.8398563590      4.69E-07
    7   -1104.8398563616      1.72E-07
    8   -1104.8398563616      2.64E-08
    9   -1104.8398563603      9.05E-09 Convergence criterion met
 ---------------------------------------
 SCF time:  CPU 4.98 s  wall 4.89 s
 SCF   energy in the final basis set = -1104.8398563603
 Total energy in the final basis set = -1104.8398563603
 
 --------------------------------------------------------------
 
                    Orbital Energies (a.u.)
 --------------------------------------------------------------
 
 Alpha MOs
 -- Occupied --
-88.920 -88.920 -10.238 -10.237 -10.225 -10.225 -10.204 -10.204
-10.203 -10.203  -7.979  -7.979  -5.943  -5.943  -5.940  -5.939
 -5.936  -5.936  -0.899  -0.878  -0.770  -0.747  -0.738  -0.705
 -0.602  -0.576  -0.556  -0.534  -0.524  -0.478  -0.418  -0.418
 -0.409  -0.405  -0.397  -0.377  -0.374  -0.355  -0.347  -0.270
 -0.262  -0.260  -0.221
 -- Virtual --
 -0.050  -0.013  -0.006  -0.003   0.007   0.010   0.017   0.022
  0.029   0.035   0.039   0.042   0.045   0.057   0.057   0.062
  0.071   0.078   0.092   0.093   0.102   0.104   0.105   0.109
  0.120   0.122   0.131   0.131   0.132   0.134   0.136   0.139
  0.148   0.150   0.158   0.163   0.167   0.172   0.176   0.179
  0.187   0.190   0.202   0.206   0.210   0.226   0.227   0.231
  0.236   0.241   0.261   0.267   0.276   0.279   0.282   0.285
  0.312   0.317   0.321   0.340   0.355   0.359   0.376   0.388
  0.435   0.457   0.466   0.516   0.524   0.532   0.534   0.568
  0.581   0.597   0.615   0.628   0.654   0.655   0.672   0.678
  0.698   0.706   0.721   0.726   0.737   0.750   0.763   0.773
  0.781   0.809   0.810   0.831   0.832   0.872   0.916   0.941
  0.947   0.954   0.963   0.964   0.966   0.989   1.000   1.013
  1.019   1.029   1.046   1.068   1.089   1.093   1.100   1.114
  1.150   1.179   1.197   1.214   1.252   1.271   1.317   1.347
  1.349   1.353   1.363   1.386   1.460   1.464   1.487   1.540
  1.552   1.687   1.694   1.751   1.796   1.867   1.871   1.886
  1.920   1.922   1.957   1.986   2.004   2.039   2.087   2.088
  2.121   2.144   2.177   2.184   2.229   2.252   2.258   2.335
  2.367   2.368   2.422   2.442   2.460   2.467   2.495   2.504
  2.527   2.527   2.584   2.586   2.600   2.655   2.695   2.712
  2.745   2.849   2.855   2.902   2.930   3.150   3.192   3.269
  3.271   3.404   3.425   3.721   3.742   3.973   3.976   4.259
  4.305   4.317   4.329   4.421   4.536   4.657   4.711
 --------------------------------------------------------------
 
          Ground-State Mulliken Net Atomic Charges

     Atom                 Charge (a.u.)
  ----------------------------------------
      1 S                     0.013071
      2 C                    -0.034447
      3 H                     0.187786
      4 C                    -0.409352
      5 H                     0.115435
      6 C                     0.252180
      7 H                     0.136358
      8 C                    -0.261485
      9 C                    -0.259065
     10 C                     0.247162
     11 H                     0.136379
     12 C                    -0.405674
     13 H                     0.115404
     14 C                    -0.036604
     15 H                     0.187746
     16 S                     0.015106
  ----------------------------------------
  Sum of atomic charges =    -0.000000

 -----------------------------------------------------------------
                    Cartesian Multipole Moments
 -----------------------------------------------------------------
    Charge (ESU x 10^10)
                 0.0000
    Dipole Moment (Debye)
         X       0.0938      Y      -0.4857      Z      -0.1855
       Tot       0.5283
    Quadrupole Moments (Debye-Ang)
        XX     -63.4092     XY       1.4267     YY     -76.0699
        XZ       4.1812     YZ      -1.3576     ZZ     -68.0044
    Octopole Moments (Debye-Ang^2)
       XXX     141.5311    XXY     -20.5817    XYY      46.9853
       YYY     -41.3202    XXZ     118.1876    XYZ       3.8241
       YYZ     153.4260    XZZ      35.0624    YZZ       0.0409
       ZZZ     426.9544
    Hexadecapole Moments (Debye-Ang^3)
      XXXX   -1642.1954   XXXY      75.5562   XXYY    -348.7252
      XYYY      50.9328   YYYY    -260.3958   XXXZ    -609.6817
      XXYZ      49.0326   XYYZ    -237.4277   YYYZ     171.5752
      XXZZ    -631.7296   XYZZ     -30.7107   YYZZ    -532.9080
      XZZZ    -617.0606   YZZZ      88.9330   ZZZZ   -2781.4070
 -----------------------------------------------------------------
 Calculating analytic gradient of the SCF energy
 Gradient of SCF Energy
            1           2           3           4           5           6
    1   0.0000115   0.0000080   0.0000176  -0.0000058  -0.0000009  -0.0000016
    2  -0.0000570   0.0000792  -0.0000478  -0.0000197  -0.0000196  -0.0018821
    3  -0.0000408   0.0000235  -0.0000109  -0.0000028   0.0000055   0.0000250
            7           8           9          10          11          12
    1  -0.0000020   0.0003266  -0.0009871   0.0006148   0.0000355   0.0000112
    2  -0.0001167   0.0024005   0.0010169  -0.0012781  -0.0000741  -0.0000026
    3   0.0000045  -0.0008258   0.0021231  -0.0012289  -0.0000805  -0.0000010
           13          14          15          16
    1   0.0000016  -0.0000387   0.0000001   0.0000091
    2   0.0000077   0.0000824  -0.0000260  -0.0000629
    3  -0.0000111   0.0000385  -0.0000163  -0.0000019
 Max gradient component =       2.400E-03
 RMS gradient           =       6.485E-04
 Gradient time:  CPU 2.09 s  wall 2.05 s
 Geometry Optimization Parameters
   NAtoms,    NIC,     NZ,  NCons,   NDum,   NFix, NCnnct, MaxDiis
       16     111       0       1       0       0       0       0

 Cartesian Hessian Update
 Hessian Updated using BFGS Update


** CONSTRAINED OPTIMIZATION IN DELOCALIZED INTERNAL COORDINATES **
   Searching for a Minimum

   Optimization Cycle:   6

                       Coordinates (Angstroms)
     ATOM                X               Y               Z
      1  S         0.0101394210    0.0564614492    0.0146342603
      2  C         1.7422845438   -0.0192586851    0.0016309219
      3  H         2.2899900072   -0.0665814465    0.9329683959
      4  C         2.2379610459   -0.0093834104   -1.2762145871
      5  H         3.2966708909   -0.0534066807   -1.5051909594
      6  C         1.2134425030    0.0456558013   -2.2665332123
      7  H         1.4001969084    0.0311257890   -3.3343854461
      8  C        -0.0584867495    0.0873686004   -1.7373965752
      9  C        -1.3406154698    0.1012644530   -2.4313479188
     10  C        -2.4484426089   -0.6904875180   -2.2178975392
     11  H        -2.4816322720   -1.4516057937   -1.4464087653
     12  C        -3.5156684717   -0.4290314476   -3.1267073703
     13  H        -4.4620695835   -0.9575779328   -3.1143954355
     14  C        -3.2126179644    0.5525950667   -4.0339791632
     15  H        -3.8289195543    0.9397845812   -4.8339887478
     16  S        -1.6193757560    1.1872543840   -3.7798614080
   Point Group: c1    Number of degrees of freedom:    42


   Energy is  -1104.839856360

              Constraints and their Current Values
                                        Value     Constraint
   Dihedral:        6   8   9  10      130.000      130.000
 Hessian Updated using BFGS Update

 38 Hessian modes will be used to form the next step
  Hessian Eigenvalues:
     0.009962    0.026565    0.045000    0.045000    0.045001    0.045002
     0.045048    0.045773    0.054831    0.158610    0.159947    0.159991
     0.159999    0.160138    0.160748    0.221283    0.222180    0.237840
     0.249417    0.249944    0.252965    0.293639    0.294562    0.312565
     0.312783    0.354748    0.354862    0.355129    0.355165    0.358256
     0.358421    0.389322    0.404884    0.410224    0.463581    0.469507
     0.497932    0.499582

 Minimum Search - Taking Simple RFO Step
 Searching for Lamda that Minimizes Along All modes
 Value Taken    Lamda =  -0.00000123
 Step Taken.  Stepsize is  0.007494

                             Maximum     Tolerance    Cnvgd?
         Gradient           0.000118      0.000300     YES
         Displacement       0.004338      0.001200      NO
         Energy change     -0.000003      0.000001      NO


 New Cartesian Coordinates Obtained by Inverse Iteration

 Displacement from previous Coordinates is:  0.011856
 ----------------------------------------------------------------
             Standard Nuclear Orientation (Angstroms)
    I     Atom           X                Y                Z
 ----------------------------------------------------------------
    1      S       0.0101849564     0.0552689944     0.0147857819
    2      C       1.7423161246    -0.0210698691     0.0014379528
    3      H       2.2899581725    -0.0682188182     0.9328126389
    4      C       2.2378932489    -0.0098070241    -1.2764367845
    5      H       3.2966150713    -0.0526052111    -1.5056119247
    6      C       1.2133050680     0.0463602735    -2.2665640859
    7      H       1.4000866814     0.0343037309    -3.3344501431
    8      C      -0.0585420843     0.0879976181    -1.7372643905
    9      C      -1.3408142799     0.1017647319    -2.4309664255
   10      C      -2.4485925749    -0.6899784066    -2.2173761989
   11      H      -2.4826552478    -1.4494371969    -1.4442814866
   12      C      -3.5154396649    -0.4294373454    -3.1268372196
   13      H      -4.4622313306    -0.9572748176    -3.1136497223
   14      C      -3.2119761371     0.5512132377    -4.0350269205
   15      H      -3.8282516136     0.9385881773    -4.8349567038
   16      S      -1.6189995001     1.1865091354    -3.7806879176
 ----------------------------------------------------------------
 Nuclear Repulsion Energy =   628.3842922699 hartrees
 There are       43 alpha and       43 beta electrons
 Applying Cartesian multipole field
    Component          Value
    ---------          -----
     (2,0,0)        1.00000E-11
     (0,2,0)        2.00000E-11
     (0,0,2)       -3.00000E-11
 Nucleus-field energy     =    -0.0000000453 hartrees
 Requested basis set is 6-31++G(d,p)
 There are 76 shells and 234 basis functions
 A cutoff of  1.0D-12 yielded   2536 shell pairs
 There are     25022 function pairs

 Q-Chem warning in module /project/projectdirs/jcesr/qchem/qc44/cnl_qc441/compile/cori/qc_src/libqints/qchem/aobasis.C, line 68:

 Using reconstructed effective core potential

 Smallest overlap matrix eigenvalue = 1.05E-06
 Guess MOs from SCF MO coefficient file
 Reading MOs from coefficient file
 Reading MOs from coefficient file
 A restricted hybrid HF-DFT SCF calculation will be
 performed using Pulay DIIS extrapolation
 Exchange:     0.2000 Hartree-Fock + 0.0800 Slater + 0.7200 B88
 Correlation:  0.1900 VWN1RPA + 0.8100 LYP
 Using SG-1 standard quadrature grid
 SCF converges when DIIS error is below 1.0E-08
 Geometry optimization detected.  Setting ReadMinima to 0
 Setting SaveMinima to 0
 ---------------------------------------
  Cycle       Energy         DIIS Error
 ---------------------------------------
    1   -1104.8397580210      3.93E-05
    2   -1104.8398570127      2.70E-06
    3   -1104.8398569295      4.76E-06
    4   -1104.8398571016      9.00E-07
    5   -1104.8398571064      5.57E-07
    6   -1104.8398571083      1.47E-07
    7   -1104.8398571067      5.27E-08
    8   -1104.8398571078      8.40E-09 Convergence criterion met
 ---------------------------------------
 SCF time:  CPU 4.46 s  wall 5.19 s
 SCF   energy in the final basis set = -1104.8398571078
 Total energy in the final basis set = -1104.8398571078
 
 --------------------------------------------------------------
 
                    Orbital Energies (a.u.)
 --------------------------------------------------------------
 
 Alpha MOs
 -- Occupied --
-88.920 -88.920 -10.238 -10.237 -10.225 -10.225 -10.204 -10.204
-10.203 -10.203  -7.979  -7.979  -5.943  -5.943  -5.940  -5.939
 -5.936  -5.936  -0.899  -0.878  -0.770  -0.747  -0.738  -0.705
 -0.602  -0.576  -0.556  -0.534  -0.525  -0.478  -0.418  -0.418
 -0.409  -0.405  -0.397  -0.377  -0.374  -0.355  -0.347  -0.270
 -0.262  -0.260  -0.221
 -- Virtual --
 -0.050  -0.013  -0.006  -0.003   0.007   0.010   0.017   0.022
  0.029   0.035   0.039   0.042   0.045   0.057   0.057   0.062
  0.071   0.078   0.092   0.093   0.102   0.104   0.105   0.109
  0.120   0.122   0.131   0.131   0.132   0.134   0.136   0.139
  0.148   0.150   0.158   0.163   0.167   0.172   0.176   0.179
  0.187   0.190   0.202   0.206   0.209   0.226   0.227   0.231
  0.236   0.241   0.261   0.268   0.276   0.279   0.282   0.285
  0.312   0.317   0.321   0.340   0.355   0.359   0.376   0.388
  0.435   0.457   0.466   0.516   0.524   0.532   0.534   0.568
  0.581   0.597   0.615   0.628   0.654   0.655   0.672   0.678
  0.699   0.706   0.720   0.726   0.737   0.749   0.763   0.773
  0.782   0.809   0.810   0.831   0.833   0.872   0.916   0.941
  0.947   0.954   0.963   0.964   0.966   0.989   1.000   1.013
  1.019   1.029   1.046   1.068   1.089   1.093   1.100   1.114
  1.150   1.179   1.197   1.214   1.252   1.271   1.318   1.347
  1.349   1.353   1.363   1.386   1.459   1.465   1.487   1.539
  1.553   1.687   1.694   1.751   1.796   1.867   1.871   1.886
  1.920   1.922   1.957   1.986   2.004   2.039   2.087   2.088
  2.121   2.144   2.177   2.184   2.229   2.251   2.258   2.335
  2.367   2.368   2.422   2.442   2.460   2.467   2.495   2.505
  2.526   2.527   2.584   2.586   2.600   2.655   2.695   2.712
  2.745   2.849   2.855   2.902   2.930   3.150   3.192   3.269
  3.271   3.404   3.425   3.721   3.742   3.973   3.976   4.259
  4.305   4.317   4.329   4.421   4.536   4.657   4.711
 --------------------------------------------------------------
 
          Ground-State Mulliken Net Atomic Charges

     Atom                 Charge (a.u.)
  ----------------------------------------
      1 S                     0.013053
      2 C                    -0.034464
      3 H                     0.187796
      4 C                    -0.409008
      5 H                     0.115428
      6 C                     0.251030
      7 H                     0.136258
      8 C                    -0.260503
      9 C                    -0.258220
     10 C                     0.246107
     11 H                     0.136276
     12 C                    -0.405363
     13 H                     0.115397
     14 C                    -0.036600
     15 H                     0.187755
     16 S                     0.015059
  ----------------------------------------
  Sum of atomic charges =     0.000000

 -----------------------------------------------------------------
                    Cartesian Multipole Moments
 -----------------------------------------------------------------
    Charge (ESU x 10^10)
                 0.0000
    Dipole Moment (Debye)
         X       0.0930      Y      -0.4813      Z      -0.1838
       Tot       0.5235
    Quadrupole Moments (Debye-Ang)
        XX     -63.4027     XY       1.4296     YY     -76.0766
        XZ       4.1745     YZ      -1.3726     ZZ     -68.0103
    Octopole Moments (Debye-Ang^2)
       XXX     141.4814    XXY     -20.5270    XYY      46.9977
       YYY     -41.2043    XXZ     118.2109    XYZ       3.8171
       YYZ     153.4576    XZZ      35.0816    YZZ       0.1156
       ZZZ     426.9991
    Hexadecapole Moments (Debye-Ang^3)
      XXXX   -1641.7793   XXXY      75.5093   XXYY    -348.6964
      XYYY      50.8252   YYYY    -260.1930   XXXZ    -609.7185
      XXYZ      48.9394   XYYZ    -237.4858   YYYZ     171.4957
      XXZZ    -631.8847   XYZZ     -30.7291   YYZZ    -533.0489
      XZZZ    -617.0902   YZZZ      88.6968   ZZZZ   -2782.0479
 -----------------------------------------------------------------
 Calculating analytic gradient of the SCF energy
 Gradient of SCF Energy
            1           2           3           4           5           6
    1  -0.0000081   0.0000089  -0.0000029  -0.0000217   0.0000030   0.0000006
    2  -0.0000248   0.0000169  -0.0000159  -0.0000599   0.0000192  -0.0019896
    3   0.0000078  -0.0000014  -0.0000038  -0.0000336  -0.0000025   0.0000512
            7           8           9          10          11          12
    1   0.0000079   0.0003922  -0.0010639   0.0006462   0.0000053   0.0000431
    2  -0.0000504   0.0024606   0.0009966  -0.0013307  -0.0000345  -0.0000438
    3  -0.0000002  -0.0008735   0.0021909  -0.0013176  -0.0000353  -0.0000041
           13          14          15          16
    1  -0.0000144  -0.0000178   0.0000073   0.0000141
    2   0.0000275   0.0000214   0.0000080  -0.0000006
    3   0.0000187   0.0000164   0.0000023  -0.0000153
 Max gradient component =       2.461E-03
 RMS gradient           =       6.739E-04
 Gradient time:  CPU 2.13 s  wall 2.10 s
 Geometry Optimization Parameters
   NAtoms,    NIC,     NZ,  NCons,   NDum,   NFix, NCnnct, MaxDiis
       16     111       0       1       0       0       0       0

 Cartesian Hessian Update
 Hessian Updated using BFGS Update


** CONSTRAINED OPTIMIZATION IN DELOCALIZED INTERNAL COORDINATES **
   Searching for a Minimum

   Optimization Cycle:   7

                       Coordinates (Angstroms)
     ATOM                X               Y               Z
      1  S         0.0101849564    0.0552689944    0.0147857819
      2  C         1.7423161246   -0.0210698691    0.0014379528
      3  H         2.2899581725   -0.0682188182    0.9328126389
      4  C         2.2378932489   -0.0098070241   -1.2764367845
      5  H         3.2966150713   -0.0526052111   -1.5056119247
      6  C         1.2133050680    0.0463602735   -2.2665640859
      7  H         1.4000866814    0.0343037309   -3.3344501431
      8  C        -0.0585420843    0.0879976181   -1.7372643905
      9  C        -1.3408142799    0.1017647319   -2.4309664255
     10  C        -2.4485925749   -0.6899784066   -2.2173761989
     11  H        -2.4826552478   -1.4494371969   -1.4442814866
     12  C        -3.5154396649   -0.4294373454   -3.1268372196
     13  H        -4.4622313306   -0.9572748176   -3.1136497223
     14  C        -3.2119761371    0.5512132377   -4.0350269205
     15  H        -3.8282516136    0.9385881773   -4.8349567038
     16  S        -1.6189995001    1.1865091354   -3.7806879176
   Point Group: c1    Number of degrees of freedom:    42


   Energy is  -1104.839857108

              Constraints and their Current Values
                                        Value     Constraint
   Dihedral:        6   8   9  10      130.000      130.000
 Hessian Updated using BFGS Update

 41 Hessian modes will be used to form the next step
  Hessian Eigenvalues:
     0.010279    0.021088    0.045000    0.045000    0.045000    0.045001
     0.045002    0.045004    0.045012    0.045076    0.046009    0.052293
     0.159816    0.159947    0.159991    0.159999    0.160153    0.160356
     0.221283    0.222348    0.237840    0.249093    0.249923    0.254065
     0.294077    0.294654    0.312565    0.312933    0.354755    0.354874
     0.355129    0.355197    0.358262    0.358465    0.384018    0.404882
     0.413890    0.463579    0.465324    0.497933    0.499098

 Minimum Search - Taking Simple RFO Step
 Searching for Lamda that Minimizes Along All modes
 Value Taken    Lamda =   0.00000000
 Step Taken.  Stepsize is  0.002682

                             Maximum     Tolerance    Cnvgd?
         Gradient           0.000056      0.000300     YES
         Displacement       0.001376      0.001200      NO
         Energy change     -0.000001      0.000001     YES

 Final energy is   -1104.83985710783     


 ******************************
 **  OPTIMIZATION CONVERGED  **
 ******************************

                       Coordinates (Angstroms)
     ATOM                X               Y               Z
      1  S         0.0101849564    0.0552689944    0.0147857819
      2  C         1.7423161246   -0.0210698691    0.0014379528
      3  H         2.2899581725   -0.0682188182    0.9328126389
      4  C         2.2378932489   -0.0098070241   -1.2764367845
      5  H         3.2966150713   -0.0526052111   -1.5056119247
      6  C         1.2133050680    0.0463602735   -2.2665640859
      7  H         1.4000866814    0.0343037309   -3.3344501431
      8  C        -0.0585420843    0.0879976181   -1.7372643905
      9  C        -1.3408142799    0.1017647319   -2.4309664255
     10  C        -2.4485925749   -0.6899784066   -2.2173761989
     11  H        -2.4826552478   -1.4494371969   -1.4442814866
     12  C        -3.5154396649   -0.4294373454   -3.1268372196
     13  H        -4.4622313306   -0.9572748176   -3.1136497223
     14  C        -3.2119761371    0.5512132377   -4.0350269205
     15  H        -3.8282516136    0.9385881773   -4.8349567038
     16  S        -1.6189995001    1.1865091354   -3.7806879176

Z-matrix Print:
$molecule
0 1
S 
C  1 1.733864
H  2 1.081478 1 120.077224
C  2 1.370652 1 111.593379 3 -179.920724 0
H  4 1.084087 2 123.358007 1 -179.881154 0
C  4 1.425934 2 112.823702 1 -0.649606 0
H  6 1.084165 4 124.036168 2 -178.143711 0
C  6 1.378219 4 113.428264 2 0.469930 0
C  8 1.457955 6 128.989229 4 -177.583949 0
C  9 1.378278 8 128.882912 6 130.000000 0
H  10 1.084257 9 122.555064 8 0.947801 0
C  10 1.425890 9 113.425166 8 -177.681425 0
H  12 1.084067 10 123.829681 9 179.715621 0
C  12 1.370611 10 112.811961 9 0.488421 0
H  14 1.081546 12 128.329694 10 179.471885 0
S  14 1.733743 12 111.617015 10 -0.656819 0
$end

 
 --------------------------------------------------------------
 
                    Orbital Energies (a.u.)
 --------------------------------------------------------------
 
 Alpha MOs
 -- Occupied --
-88.920 -88.920 -10.238 -10.237 -10.225 -10.225 -10.204 -10.204
-10.203 -10.203  -7.979  -7.979  -5.943  -5.943  -5.940  -5.939
 -5.936  -5.936  -0.899  -0.878  -0.770  -0.747  -0.738  -0.705
 -0.602  -0.576  -0.556  -0.534  -0.525  -0.478  -0.418  -0.418
 -0.409  -0.405  -0.397  -0.377  -0.374  -0.355  -0.347  -0.270
 -0.262  -0.260  -0.221
 -- Virtual --
 -0.050  -0.013  -0.006  -0.003   0.007   0.010   0.017   0.022
  0.029   0.035   0.039   0.042   0.045   0.057   0.057   0.062
  0.071   0.078   0.092   0.093   0.102   0.104   0.105   0.109
  0.120   0.122   0.131   0.131   0.132   0.134   0.136   0.139
  0.148   0.150   0.158   0.163   0.167   0.172   0.176   0.179
  0.187   0.190   0.202   0.206   0.209   0.226   0.227   0.231
  0.236   0.241   0.261   0.268   0.276   0.279   0.282   0.285
  0.312   0.317   0.321   0.340   0.355   0.359   0.376   0.388
  0.435   0.457   0.466   0.516   0.524   0.532   0.534   0.568
  0.581   0.597   0.615   0.628   0.654   0.655   0.672   0.678
  0.699   0.706   0.720   0.726   0.737   0.749   0.763   0.773
  0.782   0.809   0.810   0.831   0.833   0.872   0.916   0.941
  0.947   0.954   0.963   0.964   0.966   0.989   1.000   1.013
  1.019   1.029   1.046   1.068   1.089   1.093   1.100   1.114
  1.150   1.179   1.197   1.214   1.252   1.271   1.318   1.347
  1.349   1.353   1.363   1.386   1.459   1.465   1.487   1.539
  1.553   1.687   1.694   1.751   1.796   1.867   1.871   1.886
  1.920   1.922   1.957   1.986   2.004   2.039   2.087   2.088
  2.121   2.144   2.177   2.184   2.229   2.251   2.258   2.335
  2.367   2.368   2.422   2.442   2.460   2.467   2.495   2.505
  2.526   2.527   2.584   2.586   2.600   2.655   2.695   2.712
  2.745   2.849   2.855   2.902   2.930   3.150   3.192   3.269
  3.271   3.404   3.425   3.721   3.742   3.973   3.976   4.259
  4.305   4.317   4.329   4.421   4.536   4.657   4.711
 --------------------------------------------------------------
 
          Ground-State Mulliken Net Atomic Charges

     Atom                 Charge (a.u.)
  ----------------------------------------
      1 S                     0.013053
      2 C                    -0.034464
      3 H                     0.187796
      4 C                    -0.409008
      5 H                     0.115428
      6 C                     0.251030
      7 H                     0.136258
      8 C                    -0.260503
      9 C                    -0.258220
     10 C                     0.246107
     11 H                     0.136276
     12 C                    -0.405363
     13 H                     0.115397
     14 C                    -0.036600
     15 H                     0.187755
     16 S                     0.015059
  ----------------------------------------
  Sum of atomic charges =     0.000000

 -----------------------------------------------------------------
                    Cartesian Multipole Moments
 -----------------------------------------------------------------
    Charge (ESU x 10^10)
                 0.0000
    Dipole Moment (Debye)
         X       0.0930      Y      -0.4813      Z      -0.1838
       Tot       0.5235
    Quadrupole Moments (Debye-Ang)
        XX     -63.4027     XY       1.4296     YY     -76.0766
        XZ       4.1745     YZ      -1.3726     ZZ     -68.0103
    Octopole Moments (Debye-Ang^2)
       XXX     141.4814    XXY     -20.5270    XYY      46.9977
       YYY     -41.2043    XXZ     118.2109    XYZ       3.8171
       YYZ     153.4576    XZZ      35.0816    YZZ       0.1156
       ZZZ     426.9991
    Hexadecapole Moments (Debye-Ang^3)
      XXXX   -1641.7793   XXXY      75.5093   XXYY    -348.6964
      XYYY      50.8252   YYYY    -260.1930   XXXZ    -609.7185
      XXYZ      48.9394   XYYZ    -237.4858   YYYZ     171.4957
      XXZZ    -631.8847   XYZZ     -30.7291   YYZZ    -533.0489
      XZZZ    -617.0902   YZZZ      88.6968   ZZZZ   -2782.0479
 -----------------------------------------------------------------
Archival summary:
1\1\nid00456\OPT\ProcedureUnspecified\BasisUnspecified\286\bwood\WedMay3102:25:482017WedMay3102:25:482017\0\\#,OPT,ProcedureUnspecified,BasisUnspecified,\\0,1\S\C,1,1.73386\H,2,1.08148,1,120.077\C,2,1.37065,1,111.593,3,-179.921,0\H,4,1.08409,2,123.358,1,-179.881,0\C,4,1.42593,2,112.824,1,-0.649606,0\H,6,1.08416,4,124.036,2,-178.144,0\C,6,1.37822,4,113.428,2,0.46993,0\C,8,1.45796,6,128.989,4,-177.584,0\C,9,1.37828,8,128.883,6,130,0\H,10,1.08426,9,122.555,8,0.947801,0\C,10,1.42589,9,113.425,8,-177.681,0\H,12,1.08407,10,123.83,9,179.716,0\C,12,1.37061,10,112.812,9,0.488421,0\H,14,1.08155,12,128.33,10,179.472,0\S,14,1.73374,12,111.617,10,-0.656819,0\\\@

 Total job time:  58.75s(wall), 57.16s(cpu) 
 Wed May 31 02:25:48 2017

        *************************************************************
        *                                                           *
        *  Thank you very much for using Q-Chem.  Have a nice day.  *
        *                                                           *
        *************************************************************


0 sent ACK to 0 
now end server 0 ... 
