srun -N 1 --ntasks-per-node 16 --cpus-per-task 4 --cpu_bind=cores --nodelist nid00490 /global/project/projectdirs/jcesr/qchem/qc44/cnl_qc441/dist/exe/qcprog.cori.haswell.exe .pt_n2_neutral_110.0.in.47782.qcin.1 /global/cscratch1/sd/bwood/qchem/nx/qchem47782/
Process 0 of 16 is on nid00490 - thread support 0
Process 1 of 16 is on nid00490 - thread support 0
Process 2 of 16 is on nid00490 - thread support 0
Process 3 of 16 is on nid00490 - thread support 0
Process 4 of 16 is on nid00490 - thread support 0
Process 5 of 16 is on nid00490 - thread support 0
Process 6 of 16 is on nid00490 - thread support 0
Process 15 of 16 is on nid00490 - thread support 0
initial socket setup ...start
initial socket setup ...done 
now start server 0 ... 
nid00490 10.128.1
Q-Chem Developer Version! Running on 10.128.1.*
                  Welcome to Q-Chem
     A Quantum Leap Into The Future Of Chemistry


 Q-Chem 4.4, Q-Chem, Inc., Pleasanton, CA (2016)

 Y. Shao,  Z. Gan,  E. Epifanovsky,  A. T. B. Gilbert,  M. Wormit,  
 J. Kussmann,  A. W. Lange,  A. Behn,  J. Deng,  X. Feng,  D. Ghosh,  
 M. Goldey,  P. R. Horn,  L. D. Jacobson,  I. Kaliman,  F. Rob,  
 R. Z. Khaliullin,  T. Kus,  A. Landau,  J. Liu,  E. I. Proynov,  Y. M. Rhee,  
 R. M. Richard,  M. A. Rohrdanz,  R. P. Steele,  E. J. Sundstrom,  
 H. L. Woodcock III,  P. M. Zimmerman,  D. Zuev,  B. Albrecht,  E. Alguire,  
 B. Austin,  S. A. Baeppler,  G. J. O. Beran,  Y. A. Bernard,  
 E. J. Berquist,  K. Brandhorst,  K. B. Bravaya,  S. T. Brown,  D. Casanova,  
 C.-M. Chang,  Y. Chen,  S. H. Chien,  K. D. Closser,  M. P. Coons,  
 D. L. Crittenden,  S. Dasgupta,  M. Diedenhofen,  R. A. DiStasio Jr.,  
 H. Do,  A. D. Dutoi,  R. G. Edgar,  P.-T. Fang,  S. Fatehi,  Q. Feng,  
 L. Fusti-Molnar,  A. Ghysels,  A. Golubeva-Zadorozhnaya,  J. Gomes,  
 A. Gunina,  M. W. D. Hanson-Heine,  P. H. P. Harbach,  A. W. Hauser,  
 J. E. Herr,  E. G. Hohenstein,  Z. C. Holden,  K. Hui,  T.-C. Jagau,  H. Ji,  
 B. Kaduk,  K. Khistyaev,  Jaehoon Kim,  Jihan Kim,  R. A. King,  
 P. Klunzinger,  K. Koh,  D. Kosenkov,  T. Kowalczyk,  C. M. Krauter,  
 A. Kunitsa,  K. U. Lao,  A. Laurent,  K. V. Lawler,  J. Lee,  D. Lefrancois,  
 S. Lehtola,  S. V. Levchenko,  C. Y. Lin,  Y.-S. Lin,  F. Liu,  E. Livshits,  
 R. C. Lochan,  A. Luenser,  P. Manohar,  S. F. Manzer,  S.-P. Mao,  Y. Mao,  
 N. Mardirossian,  A. V. Marenich,  L. A. Martinez-Martinez,  S. A. Maurer,  
 N. J. Mayhall,  J.-M. Mewes,  A. F. Morrison,  K. Nanda,  T. S. Nguyen-Beck,  
 C. M. Oana,  R. Olivares-Amaya,  D. P. O'Neill,  J. A. Parkhill,  
 T. M. Perrine,  R. Peverati,  P. A. Pieniazek,  F. Plasser,  A. Prociuk,  
 D. R. Rehn,  E. Rosta,  N. J. Russ,  N. Sergueev,  S. M. Sharada,  
 S. Sharma,  D. W. Small,  A. Sodt,  T. Stauch,  T. Stein,  D. Stuck,  
 Y.-C. Su,  A. J. W. Thom,  T. Tsuchimochi,  L. Vogt,  O. Vydrov,  T. Wang,  
 M. A. Watson,  J. Wenzel,  A. White,  C. F. Williams,  V. Vanovschi,  
 K. Yao,  S. Yeganeh,  S. R. Yost,  Z.-Q. You,  I. Y. Zhang,  X. Zhang,  
 Y. Zhao,  B. R. Brooks,  G. K. L. Chan,  D. M. Chipman,  C. J. Cramer,  
 W. A. Goddard III,  M. S. Gordon,  W. J. Hehre,  A. Klamt,  
 H. F. Schaefer III,  M. W. Schmidt,  C. D. Sherrill,  D. G. Truhlar,  
 A. Warshel,  X. Xu,  A. Aspuru-Guzik,  R. Baer,  A. T. Bell,  N. A. Besley,  
 J.-D. Chai,  A. Dreuw,  B. D. Dunietz,  T. R. Furlani,  S. R. Gwaltney,  
 C.-P. Hsu,  Y. Jung,  J. Kong,  D. S. Lambrecht,  W. Liang,  C. Ochsenfeld,  
 V. A. Rassolov,  L. V. Slipchenko,  J. E. Subotnik,  T. Van Voorhis,  
 J. M. Herbert,  A. I. Krylov,  P. M. W. Gill,  M. Head-Gordon

 Contributors to earlier versions of Q-Chem not listed above: 
 R. D. Adamson,  J. Baker,  E. F. C. Byrd,  A. K. Chakraborty,  C.-L. Cheng,  
 H. Dachsel,  R. J. Doerksen,  G. Hawkins,  A. Heyden,  S. Hirata,  
 G. Kedziora,  F. J. Keil,  C. Kelley,  P. P. Korambath,  W. Kurlancheek,  
 A. M. Lee,  M. S. Lee,  D. Liotard,  I. Lotan,  P. E. Maslen,  N. Nair,  
 D. Neuhauser,  R. Olson,  B. Peters,  J. Ritchie,  N. E. Schultz,  
 N. Shenvi,  A. C. Simmonett,  K. S. Thanthiriwatte,  Q. Wu,  W. Zhang

 Please cite Q-Chem as follows:
 Y. Shao et al., Mol. Phys. 113, 184-215 (2015)
 DOI: 10.1080/00268976.2014.952696

 Q-Chem 4.4.2 for Intel X86 EM64T Linux

 Parts of Q-Chem use Armadillo 5.200.1 (Boston Tea Smuggler).
 http://arma.sourceforge.net/

 Q-Chem begins on Wed May 31 02:24:42 2017  

Host: nid00447
0

     Scratch files written to /global/cscratch1/sd/bwood/qchem/nx/qchem47782.0//
 Parallel job on  16  processors

Checking the input file for inconsistencies... 	...done.

--------------------------------------------------------------
User input:
--------------------------------------------------------------
$molecule
 0  1
 S           0.00238887        0.06077275        0.00183269
 C           1.73707619        0.03315849        0.00323229
 H           2.27612737        0.05289032        0.94042557
 C           2.24169204       -0.01546201       -1.26965798
 H           3.30285780       -0.04005365       -1.48972496
 C           1.22479222       -0.01612968       -2.26811464
 H           1.42674790       -0.02650987       -3.33334501
 C          -0.05393771        0.02880388       -1.75170966
 C          -1.32450815        0.04889988       -2.45636342
 C          -2.28855204       -0.93510082       -2.53636606
 H          -2.19604009       -1.88988399       -2.03074889
 C          -3.42123393       -0.55954720       -3.31538848
 H          -4.27896256       -1.20140507       -3.48096238
 C          -3.31920936        0.70802156       -3.82528514
 H          -4.02940024        1.24556817       -4.43859896
 S          -1.82241436        1.45992880       -3.37387014
$end


$rem
         jobtype = opt
        exchange = b3lyp
           basis = 6-31++g**
  max_scf_cycles = 150
      mem_static = 775
       mem_total = 7750
      sym_ignore = true
        symmetry = false
          thresh = 12
$end


$opt
CONSTRAINT
tors 6 8 9 10 110.0
ENDCONSTRAINT
$end

--------------------------------------------------------------
 ----------------------------------------------------------------
             Standard Nuclear Orientation (Angstroms)
    I     Atom           X                Y                Z
 ----------------------------------------------------------------
    1      S       0.0023888700     0.0607727500     0.0018326900
    2      C       1.7370761900     0.0331584900     0.0032322900
    3      H       2.2761273700     0.0528903200     0.9404255700
    4      C       2.2416920400    -0.0154620100    -1.2696579800
    5      H       3.3028578000    -0.0400536500    -1.4897249600
    6      C       1.2247922200    -0.0161296800    -2.2681146400
    7      H       1.4267479000    -0.0265098700    -3.3333450100
    8      C      -0.0539377100     0.0288038800    -1.7517096600
    9      C      -1.3245081500     0.0488998800    -2.4563634200
   10      C      -2.2885520400    -0.9351008200    -2.5363660600
   11      H      -2.1960400900    -1.8898839900    -2.0307488900
   12      C      -3.4212339300    -0.5595472000    -3.3153884800
   13      H      -4.2789625600    -1.2014050700    -3.4809623800
   14      C      -3.3192093600     0.7080215600    -3.8252851400
   15      H      -4.0294002400     1.2455681700    -4.4385989600
   16      S      -1.8224143600     1.4599288000    -3.3738701400
 ----------------------------------------------------------------
 Nuclear Repulsion Energy =   628.3391786442 hartrees
 There are       43 alpha and       43 beta electrons
 Requested basis set is 6-31++G(d,p)
 There are 76 shells and 234 basis functions

 Total QAlloc Memory Limit   7750 MB
 Mega-Array Size       758 MB
 MEM_STATIC part       775 MB
 A cutoff of  1.0D-12 yielded   2529 shell pairs
 There are     24902 function pairs

 Q-Chem warning in module /project/projectdirs/jcesr/qchem/qc44/cnl_qc441/compile/cori/qc_src/libqints/qchem/aobasis.C, line 68:

 Using reconstructed effective core potential

 
 -------------------------------------------------------
 OpenMP Integral Computing Module                       
 Release: version 1.0, May 2013, Q-Chem Inc. Pittsburgh 
 -------------------------------------------------------
 Integral Job Info:
 Integral job number is                      11
 Integral operator is                         1
 short-range coefficients                     0
 long-range coefficients              100000000
 Omega coefficients                           0
 if combine SR and LR in K                    0
 Integral screening is                        0
 Integral computing path is                   2
 max size of driver memory is            800000
 size of driver memory is                593474
 size of scratch memory is             15166112
 max col of scratch BK array               1296
 max len of scratch array in speh3          155
 max len of scratch index in speh4           18
 max int batch size is                      520
 min int batch size is                       52
 fixed nKL is                                52
 max L of basis functions is                  2
 order of int derivative is                   0
 number of shells is                         76
 number of basis is                         234
 number of cartesian basis is               234
 number of contracted shell pairs          2529
 number of primitive shell pairs           8230
 maxK2 (contraction) of shell pair           36
 max number of K2 of shell pair               1
 max number of CS2 of shell pair            267
 max number of PS2 of shell pair           1524
 mem total for path MDJ                   51992
 -------------------------------------------------------
 Smallest overlap matrix eigenvalue = 1.12E-06

 Scale SEOQF with 1.000000e-01/1.000000e-01/1.000000e-01

 Standard Electronic Orientation quadrupole field applied
 Nucleus-field energy     =    -0.0000000397 hartrees
 Guess from superposition of atomic densities
 Warning:  Energy on first SCF cycle will be non-variational
 A restricted hybrid HF-DFT SCF calculation will be
 performed using Pulay DIIS extrapolation
 Exchange:     0.2000 Hartree-Fock + 0.0800 Slater + 0.7200 B88
 Correlation:  0.1900 VWN1RPA + 0.8100 LYP
 Using SG-1 standard quadrature grid
 SCF converges when DIIS error is below 1.0E-08
 ---------------------------------------
  Cycle       Energy         DIIS Error
 ---------------------------------------
    1   -1107.1884266653      4.41E-02
    2   -1104.6746658351      4.57E-03
    3   -1104.4557845312      6.84E-03
    4   -1104.8306867628      9.11E-04
    5   -1104.8362897457      4.51E-04
    6   -1104.8376477054      1.30E-04
    7   -1104.8377458354      6.28E-05
    8   -1104.8377717449      1.81E-05
    9   -1104.8377743413      1.90E-06
   10   -1104.8377743698      5.49E-07
   11   -1104.8377743713      4.11E-07
   12   -1104.8377743721      5.65E-08
   13   -1104.8377743724      3.31E-08
   14   -1104.8377743717      7.26E-09 Convergence criterion met
 ---------------------------------------
 SCF time:  CPU 7.69 s  wall 7.24 s
 SCF   energy in the final basis set = -1104.8377743717
 Total energy in the final basis set = -1104.8377743717
 
 --------------------------------------------------------------
 
                    Orbital Energies (a.u.)
 --------------------------------------------------------------
 
 Alpha MOs
 -- Occupied --
-88.919 -88.919 -10.236 -10.235 -10.224 -10.224 -10.204 -10.204
-10.203 -10.203  -7.978  -7.978  -5.943  -5.943  -5.939  -5.939
 -5.936  -5.936  -0.898  -0.877  -0.770  -0.744  -0.740  -0.705
 -0.602  -0.571  -0.560  -0.534  -0.523  -0.477  -0.417  -0.416
 -0.412  -0.405  -0.395  -0.375  -0.374  -0.353  -0.348  -0.264
 -0.258  -0.256  -0.230
 -- Virtual --
 -0.041  -0.026  -0.005  -0.003   0.006   0.011   0.019   0.022
  0.027   0.036   0.037   0.039   0.045   0.053   0.064   0.065
  0.070   0.073   0.085   0.100   0.103   0.106   0.108   0.110
  0.117   0.121   0.124   0.130   0.131   0.133   0.136   0.143
  0.148   0.150   0.154   0.162   0.169   0.176   0.177   0.179
  0.187   0.189   0.195   0.210   0.213   0.221   0.223   0.228
  0.237   0.246   0.261   0.267   0.275   0.280   0.286   0.293
  0.311   0.316   0.326   0.334   0.356   0.361   0.376   0.390
  0.432   0.467   0.468   0.505   0.515   0.533   0.534   0.576
  0.580   0.593   0.620   0.626   0.648   0.664   0.674   0.684
  0.696   0.710   0.723   0.726   0.740   0.750   0.764   0.780
  0.789   0.803   0.807   0.826   0.840   0.884   0.913   0.938
  0.940   0.954   0.961   0.964   0.971   0.985   0.995   1.014
  1.017   1.025   1.030   1.075   1.086   1.090   1.109   1.111
  1.135   1.180   1.209   1.217   1.260   1.268   1.318   1.350
  1.352   1.358   1.367   1.383   1.451   1.467   1.490   1.537
  1.553   1.691   1.694   1.771   1.807   1.856   1.877   1.885
  1.916   1.924   1.970   1.993   2.002   2.027   2.065   2.106
  2.127   2.141   2.181   2.191   2.211   2.262   2.265   2.347
  2.367   2.368   2.423   2.432   2.466   2.477   2.495   2.510
  2.516   2.520   2.581   2.588   2.599   2.650   2.701   2.702
  2.754   2.847   2.857   2.888   2.932   3.160   3.180   3.270
  3.272   3.404   3.426   3.722   3.741   3.971   3.972   4.279
  4.303   4.320   4.331   4.433   4.535   4.659   4.712
 --------------------------------------------------------------
 
          Ground-State Mulliken Net Atomic Charges

     Atom                 Charge (a.u.)
  ----------------------------------------
      1 S                     0.062073
      2 C                    -0.050733
      3 H                     0.187179
      4 C                    -0.376943
      5 H                     0.118486
      6 C                     0.264486
      7 H                     0.134000
      8 C                    -0.340137
      9 C                    -0.335577
     10 C                     0.261481
     11 H                     0.133978
     12 C                    -0.374957
     13 H                     0.118537
     14 C                    -0.051486
     15 H                     0.187222
     16 S                     0.062391
  ----------------------------------------
  Sum of atomic charges =     0.000000

 -----------------------------------------------------------------
                    Cartesian Multipole Moments
 -----------------------------------------------------------------
    Charge (ESU x 10^10)
                 0.0000
    Dipole Moment (Debye)
         X       0.1377      Y      -0.4543      Z      -0.2632
       Tot       0.5428
    Quadrupole Moments (Debye-Ang)
        XX     -63.6323     XY       1.1510     YY     -74.2482
        XZ       4.7048     YZ      -0.5037     ZZ     -69.1709
    Octopole Moments (Debye-Ang^2)
       XXX     147.3667    XXY     -17.4851    XYY      42.7580
       YYY     -46.9264    XXZ     112.1640    XYZ       3.7998
       YYZ     144.1235    XZZ      38.4930    YZZ      -5.3208
       ZZZ     433.0077
    Hexadecapole Moments (Debye-Ang^3)
      XXXX   -1674.8503   XXXY      77.3223   XXYY    -347.2177
      XYYY      74.2345   YYYY    -339.1558   XXXZ    -605.0338
      XXYZ      40.5147   XYYZ    -217.1702   YYYZ     162.7193
      XXZZ    -601.2587   XYZZ     -16.6586   YYZZ    -498.2909
      XZZZ    -668.9818   YZZZ     106.3996   ZZZZ   -2714.7015
 -----------------------------------------------------------------
 Calculating analytic gradient of the SCF energy
 Gradient of SCF Energy
            1           2           3           4           5           6
    1  -0.0014479   0.0018588  -0.0003864  -0.0008453  -0.0000921   0.0022650
    2  -0.0007809   0.0011677   0.0007048  -0.0013376   0.0001441  -0.0032059
    3   0.0000932  -0.0007485  -0.0000295  -0.0004303  -0.0000151  -0.0005781
            7           8           9          10          11          12
    1   0.0008436  -0.0088627   0.0072678  -0.0003988  -0.0013099   0.0014257
    2   0.0010713   0.0026156   0.0027450  -0.0026745   0.0000593  -0.0005464
    3   0.0001038  -0.0025225   0.0059177  -0.0030405   0.0005239  -0.0004784
           13          14          15          16
    1   0.0000478  -0.0019622   0.0000264   0.0015703
    2   0.0001163  -0.0009506   0.0004342   0.0004377
    3   0.0001183   0.0009000   0.0006577  -0.0004717
 Max gradient component =       8.863E-03
 RMS gradient           =       2.266E-03
 Gradient time:  CPU 2.06 s  wall 2.07 s
 Geometry Optimization Parameters
   NAtoms,    NIC,     NZ,  NCons,   NDum,   NFix, NCnnct, MaxDiis
       16     111       0       1       0       0       0       0


** CONSTRAINED OPTIMIZATION IN DELOCALIZED INTERNAL COORDINATES **
   Searching for a Minimum

   Optimization Cycle:   1

                       Coordinates (Angstroms)
     ATOM                X               Y               Z
      1  S         0.0023888700    0.0607727500    0.0018326900
      2  C         1.7370761900    0.0331584900    0.0032322900
      3  H         2.2761273700    0.0528903200    0.9404255700
      4  C         2.2416920400   -0.0154620100   -1.2696579800
      5  H         3.3028578000   -0.0400536500   -1.4897249600
      6  C         1.2247922200   -0.0161296800   -2.2681146400
      7  H         1.4267479000   -0.0265098700   -3.3333450100
      8  C        -0.0539377100    0.0288038800   -1.7517096600
      9  C        -1.3245081500    0.0488998800   -2.4563634200
     10  C        -2.2885520400   -0.9351008200   -2.5363660600
     11  H        -2.1960400900   -1.8898839900   -2.0307488900
     12  C        -3.4212339300   -0.5595472000   -3.3153884800
     13  H        -4.2789625600   -1.2014050700   -3.4809623800
     14  C        -3.3192093600    0.7080215600   -3.8252851400
     15  H        -4.0294002400    1.2455681700   -4.4385989600
     16  S        -1.8224143600    1.4599288000   -3.3738701400
   Point Group: c1    Number of degrees of freedom:    42


   Energy is  -1104.837774372

              Constraints and their Current Values
                                        Value     Constraint
   Dihedral:        6   8   9  10      110.000      110.000

 Attempting to Generate Delocalized Internal Coordinates

 41 Hessian modes will be used to form the next step
  Hessian Eigenvalues:
     0.045000    0.045000    0.045000    0.045000    0.045000    0.045000
     0.045002    0.045002    0.045003    0.045004    0.045011    0.045012
     0.159943    0.159949    0.159991    0.159992    0.160000    0.160000
     0.221282    0.221282    0.237835    0.237839    0.250000    0.250000
     0.294264    0.294663    0.312518    0.312618    0.354736    0.354850
     0.355125    0.355132    0.358226    0.358329    0.378510    0.404854
     0.404909    0.463547    0.463616    0.497922    0.497945

 Minimum Search - Taking Simple RFO Step
 Searching for Lamda that Minimizes Along All modes
 Value Taken    Lamda =  -0.00051308
 Step Taken.  Stepsize is  0.081850

                             Maximum     Tolerance    Cnvgd?
         Gradient           0.004465      0.000300      NO
         Displacement       0.046126      0.001200      NO
         Energy change     *********      0.000001      NO


 New Cartesian Coordinates Obtained by Inverse Iteration

 Displacement from previous Coordinates is:  0.173548
 ----------------------------------------------------------------
             Standard Nuclear Orientation (Angstroms)
    I     Atom           X                Y                Z
 ----------------------------------------------------------------
    1      S       0.0130303656     0.0692080224     0.0101188274
    2      C       1.7450802674     0.0151219636     0.0054698360
    3      H       2.2897104610     0.0081354931     0.9399659063
    4      C       2.2442425883    -0.0116981529    -1.2707342135
    5      H       3.3042139889    -0.0463586567    -1.4958005907
    6      C       1.2213832608     0.0029896481    -2.2650183531
    7      H       1.4122851837    -0.0102408137    -3.3321839043
    8      C      -0.0521310172     0.0459119227    -1.7436904304
    9      C      -1.3352759499     0.0622204277    -2.4483060829
   10      C      -2.2942744682    -0.9228444786    -2.5214287973
   11      H      -2.1892715540    -1.8748838605    -2.0133449142
   12      C      -3.4247569510    -0.5602163822    -3.3124450882
   13      H      -4.2758032532    -1.2100316437    -3.4826031433
   14      C      -3.3196125604     0.6991280732    -3.8430497591
   15      H      -4.0230911489     1.2212779301    -4.4774927250
   16      S      -1.8383052628     1.4662320674    -3.3741017377
 ----------------------------------------------------------------
 Nuclear Repulsion Energy =   627.7636305533 hartrees
 There are       43 alpha and       43 beta electrons
 Applying Cartesian multipole field
    Component          Value
    ---------          -----
     (2,0,0)        1.00000E-11
     (0,2,0)        2.00000E-11
     (0,0,2)       -3.00000E-11
 Nucleus-field energy     =    -0.0000000396 hartrees
 Requested basis set is 6-31++G(d,p)
 There are 76 shells and 234 basis functions
 A cutoff of  1.0D-12 yielded   2529 shell pairs
 There are     24899 function pairs

 Q-Chem warning in module /project/projectdirs/jcesr/qchem/qc44/cnl_qc441/compile/cori/qc_src/libqints/qchem/aobasis.C, line 68:

 Using reconstructed effective core potential

 Smallest overlap matrix eigenvalue = 1.15E-06
 Guess MOs from SCF MO coefficient file
 Reading MOs from coefficient file
 Reading MOs from coefficient file
 A restricted hybrid HF-DFT SCF calculation will be
 performed using Pulay DIIS extrapolation
 Exchange:     0.2000 Hartree-Fock + 0.0800 Slater + 0.7200 B88
 Correlation:  0.1900 VWN1RPA + 0.8100 LYP
 Using SG-1 standard quadrature grid
 SCF converges when DIIS error is below 1.0E-08
 Geometry optimization detected.  Setting ReadMinima to 0
 Setting SaveMinima to 0
 ---------------------------------------
  Cycle       Energy         DIIS Error
 ---------------------------------------
    1   -1104.8422378984      7.30E-04
    2   -1104.8379676785      1.12E-04
    3   -1104.8378340954      1.77E-04
    4   -1104.8380649418      3.66E-05
    5   -1104.8380736123      1.39E-05
    6   -1104.8380748934      4.74E-06
    7   -1104.8380750385      1.45E-06
    8   -1104.8380750537      5.83E-07
    9   -1104.8380750552      5.13E-08
   10   -1104.8380750549      2.80E-08
   11   -1104.8380750552      7.69E-09 Convergence criterion met
 ---------------------------------------
 SCF time:  CPU 6.08 s  wall 5.77 s
 SCF   energy in the final basis set = -1104.8380750552
 Total energy in the final basis set = -1104.8380750552
 
 --------------------------------------------------------------
 
                    Orbital Energies (a.u.)
 --------------------------------------------------------------
 
 Alpha MOs
 -- Occupied --
-88.919 -88.919 -10.236 -10.236 -10.225 -10.225 -10.204 -10.204
-10.203 -10.203  -7.978  -7.978  -5.943  -5.943  -5.939  -5.939
 -5.936  -5.936  -0.898  -0.877  -0.769  -0.744  -0.740  -0.705
 -0.601  -0.571  -0.560  -0.534  -0.523  -0.478  -0.417  -0.416
 -0.411  -0.405  -0.395  -0.375  -0.374  -0.352  -0.348  -0.264
 -0.258  -0.256  -0.231
 -- Virtual --
 -0.041  -0.024  -0.005  -0.003   0.007   0.011   0.019   0.022
  0.027   0.035   0.037   0.039   0.045   0.053   0.064   0.065
  0.070   0.074   0.085   0.099   0.103   0.106   0.108   0.109
  0.117   0.121   0.124   0.130   0.132   0.133   0.135   0.143
  0.147   0.150   0.154   0.161   0.168   0.176   0.178   0.178
  0.187   0.189   0.194   0.208   0.212   0.221   0.223   0.228
  0.236   0.245   0.261   0.267   0.275   0.279   0.287   0.293
  0.310   0.315   0.325   0.335   0.358   0.360   0.374   0.390
  0.433   0.467   0.469   0.505   0.516   0.530   0.533   0.576
  0.581   0.594   0.620   0.626   0.645   0.664   0.674   0.683
  0.697   0.710   0.723   0.725   0.738   0.751   0.764   0.779
  0.790   0.802   0.806   0.826   0.840   0.883   0.914   0.939
  0.941   0.953   0.960   0.964   0.971   0.986   0.995   1.014
  1.017   1.025   1.029   1.076   1.086   1.091   1.108   1.111
  1.135   1.181   1.208   1.216   1.260   1.268   1.320   1.349
  1.351   1.352   1.366   1.388   1.456   1.464   1.487   1.535
  1.552   1.690   1.695   1.768   1.803   1.863   1.874   1.884
  1.916   1.923   1.967   1.992   2.002   2.025   2.065   2.107
  2.128   2.141   2.181   2.191   2.210   2.260   2.263   2.342
  2.367   2.369   2.424   2.434   2.466   2.473   2.495   2.508
  2.518   2.521   2.580   2.588   2.600   2.649   2.699   2.703
  2.750   2.845   2.854   2.886   2.931   3.160   3.179   3.269
  3.271   3.403   3.425   3.721   3.741   3.970   3.972   4.276
  4.302   4.320   4.330   4.432   4.535   4.658   4.710
 --------------------------------------------------------------
 
          Ground-State Mulliken Net Atomic Charges

     Atom                 Charge (a.u.)
  ----------------------------------------
      1 S                     0.062398
      2 C                    -0.051095
      3 H                     0.187552
      4 C                    -0.370507
      5 H                     0.118512
      6 C                     0.253767
      7 H                     0.134190
      8 C                    -0.336730
      9 C                    -0.331092
     10 C                     0.250001
     11 H                     0.134246
     12 C                    -0.368436
     13 H                     0.118592
     14 C                    -0.051859
     15 H                     0.187581
     16 S                     0.062882
  ----------------------------------------
  Sum of atomic charges =     0.000000

 -----------------------------------------------------------------
                    Cartesian Multipole Moments
 -----------------------------------------------------------------
    Charge (ESU x 10^10)
                 0.0000
    Dipole Moment (Debye)
         X       0.1501      Y      -0.4960      Z      -0.2866
       Tot       0.5922
    Quadrupole Moments (Debye-Ang)
        XX     -63.7398     XY       1.1033     YY     -74.2987
        XZ       4.8078     YZ      -0.4964     ZZ     -68.9510
    Octopole Moments (Debye-Ang^2)
       XXX     148.4241    XXY     -18.3758    XYY      43.0911
       YYY     -48.0862    XXZ     111.9651    XYZ       3.5588
       YYZ     144.1270    XZZ      37.6458    YZZ      -5.8164
       ZZZ     430.7470
    Hexadecapole Moments (Debye-Ang^3)
      XXXX   -1686.4255   XXXY      79.5075   XXYY    -349.5047
      XYYY      76.0011   YYYY    -339.5387   XXXZ    -608.3748
      XXYZ      42.1958   XYYZ    -219.0691   YYYZ     166.3303
      XXZZ    -599.3864   XYZZ     -16.2131   YYZZ    -498.9639
      XZZZ    -664.9214   YZZZ     108.9383   ZZZZ   -2703.9577
 -----------------------------------------------------------------
 Calculating analytic gradient of the SCF energy
 Gradient of SCF Energy
            1           2           3           4           5           6
    1   0.0001597   0.0008564  -0.0001333  -0.0004556   0.0000330   0.0002616
    2   0.0005119  -0.0001191   0.0001926   0.0000284   0.0000646  -0.0025610
    3  -0.0000570   0.0001530   0.0001151  -0.0000076   0.0000259   0.0002215
            7           8           9          10          11          12
    1   0.0001486  -0.0009465   0.0004023   0.0008473  -0.0004325   0.0003966
    2   0.0006397   0.0016359  -0.0000163  -0.0009049   0.0002086   0.0001868
    3   0.0000431  -0.0012462   0.0023295  -0.0023061   0.0004187   0.0001676
           13          14          15          16
    1  -0.0000699  -0.0007538   0.0000034  -0.0003175
    2   0.0000258  -0.0002827   0.0002299   0.0001599
    3   0.0000153  -0.0003937   0.0001421   0.0003790
 Max gradient component =       2.561E-03
 RMS gradient           =       7.610E-04
 Gradient time:  CPU 2.12 s  wall 2.07 s
 Geometry Optimization Parameters
   NAtoms,    NIC,     NZ,  NCons,   NDum,   NFix, NCnnct, MaxDiis
       16     111       0       1       0       0       0       0

 Cartesian Hessian Update
 Hessian Updated using BFGS Update


** CONSTRAINED OPTIMIZATION IN DELOCALIZED INTERNAL COORDINATES **
   Searching for a Minimum

   Optimization Cycle:   2

                       Coordinates (Angstroms)
     ATOM                X               Y               Z
      1  S         0.0130303656    0.0692080224    0.0101188274
      2  C         1.7450802674    0.0151219636    0.0054698360
      3  H         2.2897104610    0.0081354931    0.9399659063
      4  C         2.2442425883   -0.0116981529   -1.2707342135
      5  H         3.3042139889   -0.0463586567   -1.4958005907
      6  C         1.2213832608    0.0029896481   -2.2650183531
      7  H         1.4122851837   -0.0102408137   -3.3321839043
      8  C        -0.0521310172    0.0459119227   -1.7436904304
      9  C        -1.3352759499    0.0622204277   -2.4483060829
     10  C        -2.2942744682   -0.9228444786   -2.5214287973
     11  H        -2.1892715540   -1.8748838605   -2.0133449142
     12  C        -3.4247569510   -0.5602163822   -3.3124450882
     13  H        -4.2758032532   -1.2100316437   -3.4826031433
     14  C        -3.3196125604    0.6991280732   -3.8430497591
     15  H        -4.0230911489    1.2212779301   -4.4774927250
     16  S        -1.8383052628    1.4662320674   -3.3741017377
   Point Group: c1    Number of degrees of freedom:    42


   Energy is  -1104.838075055

              Constraints and their Current Values
                                        Value     Constraint
   Dihedral:        6   8   9  10      110.000      110.000
 Hessian Updated using BFGS Update

 35 Hessian modes will be used to form the next step
  Hessian Eigenvalues:
     0.032490    0.045000    0.045001    0.045007    0.045012    0.049869
     0.157536    0.159947    0.159989    0.159992    0.160000    0.160337
     0.221275    0.221379    0.237824    0.240871    0.249710    0.250003
     0.294035    0.294682    0.312568    0.312729    0.354739    0.354850
     0.355127    0.355138    0.358236    0.358347    0.391393    0.404881
     0.409857    0.459688    0.463594    0.497932    0.498815

 Minimum Search - Taking Simple RFO Step
 Searching for Lamda that Minimizes Along All modes
 Value Taken    Lamda =  -0.00007967
 Step Taken.  Stepsize is  0.045383

                             Maximum     Tolerance    Cnvgd?
         Gradient           0.001033      0.000300      NO
         Displacement       0.026223      0.001200      NO
         Energy change     -0.000301      0.000001      NO


 New Cartesian Coordinates Obtained by Inverse Iteration

 Displacement from previous Coordinates is:  0.096839
 ----------------------------------------------------------------
             Standard Nuclear Orientation (Angstroms)
    I     Atom           X                Y                Z
 ----------------------------------------------------------------
    1      S       0.0135097413     0.0670483417     0.0144066852
    2      C       1.7446262488     0.0063879399     0.0037909174
    3      H       2.2925165932    -0.0156473731     0.9361233760
    4      C       2.2424933429    -0.0103148337    -1.2734031822
    5      H       3.3016984724    -0.0512310863    -1.5008684624
    6      C       1.2171382954     0.0158682150    -2.2649912145
    7      H       1.4025848473    -0.0000027379    -3.3331163082
    8      C      -0.0535413549     0.0579076087    -1.7390087340
    9      C      -1.3399479371     0.0720891699    -2.4419161233
   10      C      -2.2955146989    -0.9154564849    -2.5100734790
   11      H      -2.1835992366    -1.8665635658    -2.0016470015
   12      C      -3.4231505148    -0.5612199141    -3.3091186640
   13      H      -4.2702459327    -1.2153671246    -3.4820605220
   14      C      -3.3157801010     0.6943134127    -3.8489699848
   15      H      -4.0157714306     1.2071344929    -4.4947552821
   16      S      -1.8395923849     1.4690054996    -3.3790371905
 ----------------------------------------------------------------
 Nuclear Repulsion Energy =   627.7970322162 hartrees
 There are       43 alpha and       43 beta electrons
 Applying Cartesian multipole field
    Component          Value
    ---------          -----
     (2,0,0)        1.00000E-11
     (0,2,0)        2.00000E-11
     (0,0,2)       -3.00000E-11
 Nucleus-field energy     =    -0.0000000397 hartrees
 Requested basis set is 6-31++G(d,p)
 There are 76 shells and 234 basis functions
 A cutoff of  1.0D-12 yielded   2530 shell pairs
 There are     24900 function pairs

 Q-Chem warning in module /project/projectdirs/jcesr/qchem/qc44/cnl_qc441/compile/cori/qc_src/libqints/qchem/aobasis.C, line 68:

 Using reconstructed effective core potential

 Smallest overlap matrix eigenvalue = 1.14E-06
 Guess MOs from SCF MO coefficient file
 Reading MOs from coefficient file
 Reading MOs from coefficient file
 A restricted hybrid HF-DFT SCF calculation will be
 performed using Pulay DIIS extrapolation
 Exchange:     0.2000 Hartree-Fock + 0.0800 Slater + 0.7200 B88
 Correlation:  0.1900 VWN1RPA + 0.8100 LYP
 Using SG-1 standard quadrature grid
 SCF converges when DIIS error is below 1.0E-08
 Geometry optimization detected.  Setting ReadMinima to 0
 Setting SaveMinima to 0
 ---------------------------------------
  Cycle       Energy         DIIS Error
 ---------------------------------------
    1   -1104.8407155130      3.48E-04
    2   -1104.8380984652      5.55E-05
    3   -1104.8380518924      9.64E-05
    4   -1104.8381245295      1.67E-05
    5   -1104.8381263453      6.55E-06
    6   -1104.8381266225      2.52E-06
    7   -1104.8381266660      5.43E-07
    8   -1104.8381266686      1.89E-07
    9   -1104.8381266701      2.52E-08
   10   -1104.8381266700      1.18E-08
   11   -1104.8381266699      5.61E-09 Convergence criterion met
 ---------------------------------------
 SCF time:  CPU 6.04 s  wall 5.71 s
 SCF   energy in the final basis set = -1104.8381266699
 Total energy in the final basis set = -1104.8381266699
 
 --------------------------------------------------------------
 
                    Orbital Energies (a.u.)
 --------------------------------------------------------------
 
 Alpha MOs
 -- Occupied --
-88.919 -88.919 -10.236 -10.236 -10.224 -10.224 -10.204 -10.204
-10.203 -10.203  -7.979  -7.979  -5.943  -5.943  -5.939  -5.939
 -5.936  -5.936  -0.898  -0.878  -0.768  -0.744  -0.740  -0.705
 -0.601  -0.571  -0.560  -0.534  -0.523  -0.478  -0.417  -0.416
 -0.411  -0.405  -0.394  -0.376  -0.375  -0.353  -0.348  -0.264
 -0.258  -0.256  -0.231
 -- Virtual --
 -0.041  -0.024  -0.005  -0.003   0.007   0.011   0.019   0.022
  0.027   0.035   0.037   0.039   0.045   0.053   0.064   0.064
  0.070   0.074   0.085   0.099   0.103   0.106   0.108   0.109
  0.117   0.121   0.125   0.131   0.132   0.133   0.135   0.143
  0.146   0.151   0.154   0.161   0.168   0.175   0.178   0.179
  0.187   0.189   0.194   0.208   0.212   0.222   0.224   0.228
  0.236   0.245   0.262   0.267   0.274   0.279   0.288   0.292
  0.311   0.314   0.325   0.335   0.358   0.360   0.374   0.390
  0.434   0.468   0.469   0.506   0.516   0.529   0.532   0.576
  0.581   0.594   0.620   0.625   0.645   0.663   0.674   0.682
  0.697   0.711   0.723   0.725   0.738   0.752   0.764   0.779
  0.790   0.802   0.806   0.826   0.839   0.883   0.914   0.939
  0.942   0.952   0.960   0.965   0.971   0.986   0.995   1.014
  1.017   1.025   1.028   1.075   1.087   1.091   1.107   1.111
  1.136   1.182   1.208   1.216   1.260   1.268   1.320   1.348
  1.351   1.351   1.366   1.391   1.460   1.462   1.485   1.533
  1.552   1.690   1.695   1.767   1.801   1.865   1.873   1.884
  1.918   1.923   1.967   1.993   2.003   2.026   2.066   2.108
  2.128   2.142   2.182   2.191   2.209   2.260   2.264   2.341
  2.367   2.369   2.425   2.434   2.467   2.471   2.496   2.507
  2.519   2.522   2.579   2.587   2.601   2.649   2.699   2.703
  2.750   2.845   2.854   2.886   2.931   3.159   3.180   3.269
  3.271   3.403   3.424   3.721   3.741   3.970   3.973   4.275
  4.303   4.319   4.329   4.431   4.536   4.658   4.710
 --------------------------------------------------------------
 
          Ground-State Mulliken Net Atomic Charges

     Atom                 Charge (a.u.)
  ----------------------------------------
      1 S                     0.063556
      2 C                    -0.053200
      3 H                     0.187234
      4 C                    -0.367431
      5 H                     0.118380
      6 C                     0.250253
      7 H                     0.134486
      8 C                    -0.336143
      9 C                    -0.328503
     10 C                     0.245760
     11 H                     0.134595
     12 C                    -0.365149
     13 H                     0.118473
     14 C                    -0.053782
     15 H                     0.187276
     16 S                     0.064197
  ----------------------------------------
  Sum of atomic charges =     0.000000

 -----------------------------------------------------------------
                    Cartesian Multipole Moments
 -----------------------------------------------------------------
    Charge (ESU x 10^10)
                 0.0000
    Dipole Moment (Debye)
         X       0.1587      Y      -0.5253      Z      -0.3027
       Tot       0.6267
    Quadrupole Moments (Debye-Ang)
        XX     -63.8655     XY       1.0917     YY     -74.3051
        XZ       4.8012     YZ      -0.4926     ZZ     -68.8160
    Octopole Moments (Debye-Ang^2)
       XXX     149.1666    XXY     -18.9291    XYY      43.2618
       YYY     -48.5758    XXZ     112.0983    XYZ       3.3571
       YYZ     144.0953    XZZ      37.3682    YZZ      -6.0419
       ZZZ     429.5581
    Hexadecapole Moments (Debye-Ang^3)
      XXXX   -1688.4546   XXXY      80.6021   XXYY    -349.7958
      XYYY      76.6154   YYYY    -339.5026   XXXZ    -609.9359
      XXYZ      43.7985   XYYZ    -219.5195   YYYZ     168.7425
      XXZZ    -598.8155   XYZZ     -15.7229   YYZZ    -499.0701
      XZZZ    -662.0889   YZZZ     110.7374   ZZZZ   -2698.5258
 -----------------------------------------------------------------
 Calculating analytic gradient of the SCF energy
 Gradient of SCF Energy
            1           2           3           4           5           6
    1  -0.0000066  -0.0001523  -0.0000709  -0.0000329   0.0000243  -0.0002029
    2   0.0004880  -0.0000838  -0.0000171   0.0002530  -0.0000687  -0.0020654
    3   0.0003101  -0.0000748   0.0000177  -0.0001537  -0.0000494   0.0002742
            7           8           9          10          11          12
    1  -0.0000099   0.0013871  -0.0018026   0.0010066  -0.0000789  -0.0000426
    2   0.0002524   0.0017015  -0.0004630  -0.0005005   0.0000826  -0.0000026
    3  -0.0000275  -0.0006574   0.0014281  -0.0017782   0.0002080   0.0002634
           13          14          15          16
    1   0.0000183   0.0001875   0.0000547  -0.0002790
    2  -0.0000812  -0.0000156   0.0000510   0.0004695
    3  -0.0000418   0.0000109   0.0000162   0.0002540
 Max gradient component =       2.065E-03
 RMS gradient           =       6.557E-04
 Gradient time:  CPU 2.06 s  wall 2.06 s
 Geometry Optimization Parameters
   NAtoms,    NIC,     NZ,  NCons,   NDum,   NFix, NCnnct, MaxDiis
       16     111       0       1       0       0       0       0

 Cartesian Hessian Update
 Hessian Updated using BFGS Update


** CONSTRAINED OPTIMIZATION IN DELOCALIZED INTERNAL COORDINATES **
   Searching for a Minimum

   Optimization Cycle:   3

                       Coordinates (Angstroms)
     ATOM                X               Y               Z
      1  S         0.0135097413    0.0670483417    0.0144066852
      2  C         1.7446262488    0.0063879399    0.0037909174
      3  H         2.2925165932   -0.0156473731    0.9361233760
      4  C         2.2424933429   -0.0103148337   -1.2734031822
      5  H         3.3016984724   -0.0512310863   -1.5008684624
      6  C         1.2171382954    0.0158682150   -2.2649912145
      7  H         1.4025848473   -0.0000027379   -3.3331163082
      8  C        -0.0535413549    0.0579076087   -1.7390087340
      9  C        -1.3399479371    0.0720891699   -2.4419161233
     10  C        -2.2955146989   -0.9154564849   -2.5100734790
     11  H        -2.1835992366   -1.8665635658   -2.0016470015
     12  C        -3.4231505148   -0.5612199141   -3.3091186640
     13  H        -4.2702459327   -1.2153671246   -3.4820605220
     14  C        -3.3157801010    0.6943134127   -3.8489699848
     15  H        -4.0157714306    1.2071344929   -4.4947552821
     16  S        -1.8395923849    1.4690054996   -3.3790371905
   Point Group: c1    Number of degrees of freedom:    42


   Energy is  -1104.838126670

              Constraints and their Current Values
                                        Value     Constraint
   Dihedral:        6   8   9  10      110.000      110.000
 Hessian Updated using BFGS Update

 36 Hessian modes will be used to form the next step
  Hessian Eigenvalues:
     0.017698    0.045000    0.045001    0.045005    0.045012    0.046097
     0.050026    0.158211    0.159947    0.159992    0.160000    0.160207
     0.160850    0.221283    0.222961    0.237836    0.249123    0.250001
     0.275019    0.292862    0.294542    0.312573    0.312788    0.354771
     0.354915    0.355108    0.355129    0.358260    0.358496    0.403873
     0.404940    0.411427    0.463582    0.482710    0.497933    0.499540

 Minimum Search - Taking Simple RFO Step
 Searching for Lamda that Minimizes Along All modes
 Value Taken    Lamda =  -0.00003461
 Step Taken.  Stepsize is  0.041295

                             Maximum     Tolerance    Cnvgd?
         Gradient           0.000566      0.000300      NO
         Displacement       0.022456      0.001200      NO
         Energy change     -0.000052      0.000001      NO


 New Cartesian Coordinates Obtained by Inverse Iteration

 Displacement from previous Coordinates is:  0.084190
 ----------------------------------------------------------------
             Standard Nuclear Orientation (Angstroms)
    I     Atom           X                Y                Z
 ----------------------------------------------------------------
    1      S       0.0151395144     0.0606837256     0.0172488377
    2      C       1.7460222979    -0.0020769059     0.0033355120
    3      H       2.2965586396    -0.0354669208     0.9338375514
    4      C       2.2415439308    -0.0094402282    -1.2748075831
    5      H       3.3001488269    -0.0530304946    -1.5041813752
    6      C       1.2140388799     0.0272515315    -2.2645152092
    7      H       1.3962918035     0.0113260476    -3.3331458736
    8      C      -0.0554183300     0.0684717648    -1.7354765101
    9      C      -1.3432221614     0.0806057355    -2.4359709086
   10      C      -2.2971319145    -0.9088607206    -2.5005611535
   11      H      -2.1816997512    -1.8587644532    -1.9907563710
   12      C      -3.4223605245    -0.5617126356    -3.3068840755
   13      H      -4.2673261819    -1.2184028103    -3.4800065833
   14      C      -3.3139853300     0.6897869220    -3.8557010404
   15      H      -4.0116071342     1.1952267840    -4.5099142057
   16      S      -1.8395686152     1.4683542183    -3.3871461819
 ----------------------------------------------------------------
 Nuclear Repulsion Energy =   627.7743928303 hartrees
 There are       43 alpha and       43 beta electrons
 Applying Cartesian multipole field
    Component          Value
    ---------          -----
     (2,0,0)        1.00000E-11
     (0,2,0)        2.00000E-11
     (0,0,2)       -3.00000E-11
 Nucleus-field energy     =    -0.0000000398 hartrees
 Requested basis set is 6-31++G(d,p)
 There are 76 shells and 234 basis functions
 A cutoff of  1.0D-12 yielded   2530 shell pairs
 There are     24900 function pairs

 Q-Chem warning in module /project/projectdirs/jcesr/qchem/qc44/cnl_qc441/compile/cori/qc_src/libqints/qchem/aobasis.C, line 68:

 Using reconstructed effective core potential

 Smallest overlap matrix eigenvalue = 1.12E-06
 Guess MOs from SCF MO coefficient file
 Reading MOs from coefficient file
 Reading MOs from coefficient file
 A restricted hybrid HF-DFT SCF calculation will be
 performed using Pulay DIIS extrapolation
 Exchange:     0.2000 Hartree-Fock + 0.0800 Slater + 0.7200 B88
 Correlation:  0.1900 VWN1RPA + 0.8100 LYP
 Using SG-1 standard quadrature grid
 SCF converges when DIIS error is below 1.0E-08
 Geometry optimization detected.  Setting ReadMinima to 0
 Setting SaveMinima to 0
 ---------------------------------------
  Cycle       Energy         DIIS Error
 ---------------------------------------
    1   -1104.8388987633      3.28E-04
    2   -1104.8381325283      4.27E-05
    3   -1104.8380997964      7.90E-05
    4   -1104.8381490564      9.26E-06
    5   -1104.8381494673      5.76E-06
    6   -1104.8381496882      1.90E-06
    7   -1104.8381497120      5.30E-07
    8   -1104.8381497151      1.34E-07
    9   -1104.8381497157      2.36E-08
   10   -1104.8381497160      1.32E-08
   11   -1104.8381497155      3.90E-09 Convergence criterion met
 ---------------------------------------
 SCF time:  CPU 6.03 s  wall 5.71 s
 SCF   energy in the final basis set = -1104.8381497155
 Total energy in the final basis set = -1104.8381497155
 
 --------------------------------------------------------------
 
                    Orbital Energies (a.u.)
 --------------------------------------------------------------
 
 Alpha MOs
 -- Occupied --
-88.919 -88.919 -10.236 -10.236 -10.224 -10.224 -10.204 -10.204
-10.203 -10.203  -7.979  -7.979  -5.943  -5.943  -5.939  -5.939
 -5.936  -5.936  -0.898  -0.878  -0.769  -0.744  -0.740  -0.705
 -0.601  -0.572  -0.560  -0.534  -0.523  -0.478  -0.417  -0.416
 -0.411  -0.406  -0.394  -0.376  -0.375  -0.353  -0.348  -0.264
 -0.258  -0.256  -0.230
 -- Virtual --
 -0.042  -0.023  -0.005  -0.003   0.007   0.011   0.019   0.022
  0.027   0.035   0.037   0.039   0.045   0.053   0.064   0.064
  0.070   0.074   0.086   0.098   0.103   0.106   0.108   0.109
  0.117   0.121   0.125   0.131   0.132   0.133   0.135   0.143
  0.146   0.151   0.154   0.161   0.167   0.175   0.179   0.179
  0.187   0.189   0.195   0.207   0.211   0.222   0.224   0.229
  0.236   0.245   0.262   0.267   0.274   0.279   0.288   0.292
  0.311   0.314   0.325   0.336   0.358   0.360   0.373   0.390
  0.434   0.467   0.469   0.507   0.516   0.529   0.532   0.575
  0.581   0.594   0.620   0.624   0.645   0.663   0.674   0.682
  0.697   0.711   0.723   0.725   0.738   0.753   0.764   0.779
  0.790   0.803   0.805   0.826   0.839   0.882   0.914   0.939
  0.943   0.951   0.960   0.965   0.971   0.986   0.995   1.014
  1.018   1.024   1.028   1.075   1.088   1.091   1.106   1.111
  1.136   1.182   1.208   1.215   1.260   1.268   1.320   1.347
  1.351   1.352   1.366   1.393   1.461   1.463   1.483   1.532
  1.552   1.690   1.694   1.766   1.799   1.867   1.873   1.884
  1.919   1.923   1.966   1.994   2.003   2.026   2.067   2.109
  2.128   2.142   2.182   2.191   2.209   2.259   2.265   2.340
  2.367   2.369   2.425   2.435   2.467   2.470   2.496   2.506
  2.519   2.523   2.579   2.587   2.603   2.649   2.698   2.703
  2.749   2.844   2.853   2.887   2.931   3.159   3.180   3.269
  3.271   3.403   3.424   3.721   3.741   3.970   3.973   4.275
  4.303   4.319   4.328   4.431   4.535   4.658   4.710
 --------------------------------------------------------------
 
          Ground-State Mulliken Net Atomic Charges

     Atom                 Charge (a.u.)
  ----------------------------------------
      1 S                     0.062711
      2 C                    -0.052313
      3 H                     0.187239
      4 C                    -0.366558
      5 H                     0.118243
      6 C                     0.247070
      7 H                     0.134772
      8 C                    -0.335094
      9 C                    -0.325405
     10 C                     0.241960
     11 H                     0.134909
     12 C                    -0.363981
     13 H                     0.118351
     14 C                    -0.052684
     15 H                     0.187291
     16 S                     0.063489
  ----------------------------------------
  Sum of atomic charges =     0.000000

 -----------------------------------------------------------------
                    Cartesian Multipole Moments
 -----------------------------------------------------------------
    Charge (ESU x 10^10)
                 0.0000
    Dipole Moment (Debye)
         X       0.1654      Y      -0.5487      Z      -0.3155
       Tot       0.6542
    Quadrupole Moments (Debye-Ang)
        XX     -63.9213     XY       1.0898     YY     -74.3354
        XZ       4.8244     YZ      -0.5001     ZZ     -68.7095
    Octopole Moments (Debye-Ang^2)
       XXX     149.5104    XXY     -19.2254    XYY      43.4115
       YYY     -48.7351    XXZ     112.1561    XYZ       3.2128
       YYZ     144.2021    XZZ      37.0339    YZZ      -6.0891
       ZZZ     428.7582
    Hexadecapole Moments (Debye-Ang^3)
      XXXX   -1689.5573   XXXY      81.1668   XXYY    -350.0826
      XYYY      76.9320   YYYY    -338.9159   XXXZ    -610.8268
      XXYZ      44.8407   XYYZ    -220.1662   YYYZ     170.8108
      XXZZ    -598.3623   XYZZ     -15.5844   YYZZ    -499.6612
      XZZZ    -659.8181   YZZZ     111.8857   ZZZZ   -2696.4669
 -----------------------------------------------------------------
 Calculating analytic gradient of the SCF energy
 Gradient of SCF Energy
            1           2           3           4           5           6
    1   0.0001301  -0.0002876   0.0000599   0.0002606  -0.0000203  -0.0004370
    2   0.0001955   0.0001021  -0.0001205   0.0002284  -0.0001366  -0.0017981
    3   0.0000139  -0.0000041  -0.0000104   0.0001454   0.0000095   0.0000712
            7           8           9          10          11          12
    1  -0.0001059   0.0014764  -0.0020478   0.0011217   0.0001368  -0.0003638
    2  -0.0000509   0.0020990  -0.0002570  -0.0004917   0.0000140   0.0001059
    3  -0.0000168  -0.0005996   0.0016663  -0.0014010  -0.0000112   0.0000095
           13          14          15          16
    1   0.0000769   0.0002233  -0.0000127  -0.0002106
    2  -0.0000365   0.0001695  -0.0000622   0.0000392
    3  -0.0001130   0.0001723  -0.0000792   0.0001473
 Max gradient component =       2.099E-03
 RMS gradient           =       6.706E-04
 Gradient time:  CPU 2.10 s  wall 2.08 s
 Geometry Optimization Parameters
   NAtoms,    NIC,     NZ,  NCons,   NDum,   NFix, NCnnct, MaxDiis
       16     111       0       1       0       0       0       0

 Cartesian Hessian Update
 Hessian Updated using BFGS Update


** CONSTRAINED OPTIMIZATION IN DELOCALIZED INTERNAL COORDINATES **
   Searching for a Minimum

   Optimization Cycle:   4

                       Coordinates (Angstroms)
     ATOM                X               Y               Z
      1  S         0.0151395144    0.0606837256    0.0172488377
      2  C         1.7460222979   -0.0020769059    0.0033355120
      3  H         2.2965586396   -0.0354669208    0.9338375514
      4  C         2.2415439308   -0.0094402282   -1.2748075831
      5  H         3.3001488269   -0.0530304946   -1.5041813752
      6  C         1.2140388799    0.0272515315   -2.2645152092
      7  H         1.3962918035    0.0113260476   -3.3331458736
      8  C        -0.0554183300    0.0684717648   -1.7354765101
      9  C        -1.3432221614    0.0806057355   -2.4359709086
     10  C        -2.2971319145   -0.9088607206   -2.5005611535
     11  H        -2.1816997512   -1.8587644532   -1.9907563710
     12  C        -3.4223605245   -0.5617126356   -3.3068840755
     13  H        -4.2673261819   -1.2184028103   -3.4800065833
     14  C        -3.3139853300    0.6897869220   -3.8557010404
     15  H        -4.0116071342    1.1952267840   -4.5099142057
     16  S        -1.8395686152    1.4683542183   -3.3871461819
   Point Group: c1    Number of degrees of freedom:    42


   Energy is  -1104.838149716

              Constraints and their Current Values
                                        Value     Constraint
   Dihedral:        6   8   9  10      110.000      110.000
 Hessian Updated using BFGS Update

 39 Hessian modes will be used to form the next step
  Hessian Eigenvalues:
     0.011173    0.045000    0.045001    0.045002    0.045003    0.045004
     0.045011    0.045035    0.047288    0.050937    0.159947    0.159991
     0.160000    0.160132    0.160330    0.162424    0.221283    0.222775
     0.237839    0.249907    0.250686    0.272848    0.294361    0.295058
     0.312573    0.313457    0.354769    0.354907    0.355129    0.355320
     0.358267    0.358573    0.393110    0.404884    0.424019    0.463590
     0.471057    0.497934    0.501380

 Minimum Search - Taking Simple RFO Step
 Searching for Lamda that Minimizes Along All modes
 Value Taken    Lamda =  -0.00001711
 Step Taken.  Stepsize is  0.032976

                             Maximum     Tolerance    Cnvgd?
         Gradient           0.000608      0.000300      NO
         Displacement       0.023057      0.001200      NO
         Energy change     -0.000023      0.000001      NO


 New Cartesian Coordinates Obtained by Inverse Iteration

 Displacement from previous Coordinates is:  0.070432
 ----------------------------------------------------------------
             Standard Nuclear Orientation (Angstroms)
    I     Atom           X                Y                Z
 ----------------------------------------------------------------
    1      S       0.0156221500     0.0536796966     0.0190821089
    2      C       1.7465763280    -0.0104680556     0.0024426456
    3      H       2.2984360358    -0.0508553221     0.9318489051
    4      C       2.2402905013    -0.0091604476    -1.2764169609
    5      H       3.2985942262    -0.0516595147    -1.5074181994
    6      C       1.2118026027     0.0359133244    -2.2644855153
    7      H       1.3929519157     0.0234882689    -3.3333367193
    8      C      -0.0571931528     0.0764018706    -1.7331761850
    9      C      -1.3452642146     0.0867839371    -2.4311176471
   10      C      -2.2984159700    -0.9041918180    -2.4931362097
   11      H      -2.1831451197    -1.8523215081    -1.9800276531
   12      C      -3.4210194890    -0.5623991429    -3.3050245536
   13      H      -4.2657739039    -1.2199745913    -3.4758325396
   14      C      -3.3111767070     0.6853689527    -3.8619883012
   15      H      -4.0070522013     1.1863469591    -4.5214195553
   16      S      -1.8378090516     1.4669989509    -3.3946387902
 ----------------------------------------------------------------
 Nuclear Repulsion Energy =   627.7947958927 hartrees
 There are       43 alpha and       43 beta electrons
 Applying Cartesian multipole field
    Component          Value
    ---------          -----
     (2,0,0)        1.00000E-11
     (0,2,0)        2.00000E-11
     (0,0,2)       -3.00000E-11
 Nucleus-field energy     =    -0.0000000399 hartrees
 Requested basis set is 6-31++G(d,p)
 There are 76 shells and 234 basis functions
 A cutoff of  1.0D-12 yielded   2530 shell pairs
 There are     24900 function pairs

 Q-Chem warning in module /project/projectdirs/jcesr/qchem/qc44/cnl_qc441/compile/cori/qc_src/libqints/qchem/aobasis.C, line 68:

 Using reconstructed effective core potential

 Smallest overlap matrix eigenvalue = 1.11E-06
 Guess MOs from SCF MO coefficient file
 Reading MOs from coefficient file
 Reading MOs from coefficient file
 A restricted hybrid HF-DFT SCF calculation will be
 performed using Pulay DIIS extrapolation
 Exchange:     0.2000 Hartree-Fock + 0.0800 Slater + 0.7200 B88
 Correlation:  0.1900 VWN1RPA + 0.8100 LYP
 Using SG-1 standard quadrature grid
 SCF converges when DIIS error is below 1.0E-08
 Geometry optimization detected.  Setting ReadMinima to 0
 Setting SaveMinima to 0
 ---------------------------------------
  Cycle       Energy         DIIS Error
 ---------------------------------------
    1   -1104.8383379186      2.88E-04
    2   -1104.8381530211      2.87E-05
    3   -1104.8381376700      5.43E-05
    4   -1104.8381610734      6.46E-06
    5   -1104.8381612289      4.76E-06
    6   -1104.8381613859      1.35E-06
    7   -1104.8381613972      4.00E-07
    8   -1104.8381613999      8.29E-08
    9   -1104.8381614004      1.93E-08
   10   -1104.8381614003      8.49E-09 Convergence criterion met
 ---------------------------------------
 SCF time:  CPU 5.56 s  wall 5.17 s
 SCF   energy in the final basis set = -1104.8381614003
 Total energy in the final basis set = -1104.8381614003
 
 --------------------------------------------------------------
 
                    Orbital Energies (a.u.)
 --------------------------------------------------------------
 
 Alpha MOs
 -- Occupied --
-88.919 -88.919 -10.236 -10.236 -10.224 -10.224 -10.204 -10.204
-10.203 -10.203  -7.979  -7.979  -5.943  -5.943  -5.939  -5.939
 -5.936  -5.936  -0.898  -0.878  -0.769  -0.744  -0.740  -0.705
 -0.601  -0.572  -0.560  -0.534  -0.523  -0.478  -0.417  -0.416
 -0.410  -0.406  -0.394  -0.376  -0.375  -0.353  -0.348  -0.264
 -0.258  -0.257  -0.230
 -- Virtual --
 -0.042  -0.023  -0.005  -0.003   0.007   0.011   0.019   0.022
  0.027   0.035   0.037   0.039   0.045   0.053   0.063   0.064
  0.070   0.074   0.086   0.098   0.103   0.106   0.109   0.109
  0.117   0.121   0.125   0.131   0.132   0.133   0.135   0.143
  0.146   0.151   0.154   0.161   0.167   0.175   0.179   0.179
  0.187   0.189   0.195   0.207   0.211   0.222   0.225   0.229
  0.236   0.244   0.262   0.268   0.274   0.280   0.288   0.291
  0.311   0.314   0.324   0.336   0.358   0.360   0.373   0.390
  0.435   0.467   0.469   0.507   0.516   0.528   0.531   0.575
  0.582   0.595   0.620   0.623   0.646   0.662   0.675   0.682
  0.697   0.712   0.723   0.725   0.738   0.754   0.763   0.779
  0.790   0.803   0.805   0.826   0.839   0.882   0.914   0.938
  0.944   0.951   0.960   0.965   0.971   0.987   0.995   1.013
  1.018   1.023   1.028   1.075   1.088   1.091   1.106   1.112
  1.137   1.182   1.208   1.214   1.260   1.267   1.320   1.348
  1.351   1.352   1.365   1.394   1.460   1.463   1.483   1.533
  1.552   1.689   1.694   1.765   1.798   1.867   1.873   1.884
  1.919   1.923   1.966   1.994   2.003   2.028   2.067   2.109
  2.128   2.141   2.182   2.190   2.210   2.258   2.265   2.341
  2.367   2.369   2.425   2.435   2.467   2.469   2.496   2.505
  2.520   2.523   2.579   2.587   2.604   2.648   2.698   2.703
  2.750   2.844   2.853   2.887   2.931   3.159   3.180   3.269
  3.271   3.403   3.424   3.721   3.741   3.970   3.974   4.276
  4.303   4.318   4.328   4.431   4.535   4.658   4.710
 --------------------------------------------------------------
 
          Ground-State Mulliken Net Atomic Charges

     Atom                 Charge (a.u.)
  ----------------------------------------
      1 S                     0.062130
      2 C                    -0.051538
      3 H                     0.187254
      4 C                    -0.366020
      5 H                     0.118113
      6 C                     0.244735
      7 H                     0.135015
      8 C                    -0.334376
      9 C                    -0.323394
     10 C                     0.239407
     11 H                     0.135163
     12 C                    -0.363330
     13 H                     0.118234
     14 C                    -0.051640
     15 H                     0.187313
     16 S                     0.062933
  ----------------------------------------
  Sum of atomic charges =     0.000000

 -----------------------------------------------------------------
                    Cartesian Multipole Moments
 -----------------------------------------------------------------
    Charge (ESU x 10^10)
                 0.0000
    Dipole Moment (Debye)
         X       0.1683      Y      -0.5584      Z      -0.3206
       Tot       0.6655
    Quadrupole Moments (Debye-Ang)
        XX     -63.9505     XY       1.1041     YY     -74.3601
        XZ       4.8216     YZ      -0.5311     ZZ     -68.6571
    Octopole Moments (Debye-Ang^2)
       XXX     149.6403    XXY     -19.3540    XYY      43.5040
       YYY     -48.6527    XXZ     112.2547    XYZ       3.1018
       YYZ     144.3319    XZZ      36.8888    YZZ      -5.9691
       ZZZ     428.3976
    Hexadecapole Moments (Debye-Ang^3)
      XXXX   -1688.9718   XXXY      81.5850   XXYY    -350.0549
      XYYY      76.9469   YYYY    -338.2739   XXXZ    -611.4105
      XXYZ      45.4836   XYYZ    -220.5913   YYYZ     172.2313
      XXZZ    -598.3909   XYZZ     -15.6228   YYZZ    -500.2950
      XZZZ    -658.4678   YZZZ     112.2988   ZZZZ   -2696.6384
 -----------------------------------------------------------------
 Calculating analytic gradient of the SCF energy
 Gradient of SCF Energy
            1           2           3           4           5           6
    1   0.0000208  -0.0002286   0.0000656   0.0001849  -0.0000192  -0.0001808
    2   0.0000143   0.0001455  -0.0001308   0.0001314  -0.0001005  -0.0018389
    3  -0.0000448  -0.0000200  -0.0000335   0.0001007   0.0000120  -0.0000505
            7           8           9          10          11          12
    1  -0.0000569   0.0008683  -0.0016688   0.0009489   0.0001368  -0.0002432
    2  -0.0001742   0.0025791   0.0000824  -0.0007268  -0.0000513   0.0000609
    3  -0.0000069  -0.0007483   0.0022704  -0.0014359  -0.0001321  -0.0000061
           13          14          15          16
    1   0.0000606   0.0001512  -0.0000073  -0.0000325
    2  -0.0000177   0.0001527  -0.0000855  -0.0000407
    3  -0.0000878   0.0001996  -0.0000752   0.0000583
 Max gradient component =       2.579E-03
 RMS gradient           =       6.959E-04
 Gradient time:  CPU 2.05 s  wall 2.06 s
 Geometry Optimization Parameters
   NAtoms,    NIC,     NZ,  NCons,   NDum,   NFix, NCnnct, MaxDiis
       16     111       0       1       0       0       0       0

 Cartesian Hessian Update
 Hessian Updated using BFGS Update


** CONSTRAINED OPTIMIZATION IN DELOCALIZED INTERNAL COORDINATES **
   Searching for a Minimum

   Optimization Cycle:   5

                       Coordinates (Angstroms)
     ATOM                X               Y               Z
      1  S         0.0156221500    0.0536796966    0.0190821089
      2  C         1.7465763280   -0.0104680556    0.0024426456
      3  H         2.2984360358   -0.0508553221    0.9318489051
      4  C         2.2402905013   -0.0091604476   -1.2764169609
      5  H         3.2985942262   -0.0516595147   -1.5074181994
      6  C         1.2118026027    0.0359133244   -2.2644855153
      7  H         1.3929519157    0.0234882689   -3.3333367193
      8  C        -0.0571931528    0.0764018706   -1.7331761850
      9  C        -1.3452642146    0.0867839371   -2.4311176471
     10  C        -2.2984159700   -0.9041918180   -2.4931362097
     11  H        -2.1831451197   -1.8523215081   -1.9800276531
     12  C        -3.4210194890   -0.5623991429   -3.3050245536
     13  H        -4.2657739039   -1.2199745913   -3.4758325396
     14  C        -3.3111767070    0.6853689527   -3.8619883012
     15  H        -4.0070522013    1.1863469591   -4.5214195553
     16  S        -1.8378090516    1.4669989509   -3.3946387902
   Point Group: c1    Number of degrees of freedom:    42


   Energy is  -1104.838161400

              Constraints and their Current Values
                                        Value     Constraint
   Dihedral:        6   8   9  10      110.000      110.000
 Hessian Updated using BFGS Update

 40 Hessian modes will be used to form the next step
  Hessian Eigenvalues:
     0.008476    0.041252    0.045000    0.045000    0.045000    0.045001
     0.045002    0.045004    0.045010    0.045012    0.045240    0.050936
     0.158397    0.159947    0.159991    0.160324    0.161001    0.221282
     0.222481    0.237837    0.249752    0.249952    0.269891    0.294351
     0.295269    0.312567    0.312981    0.354765    0.354891    0.355129
     0.355263    0.358267    0.358574    0.394074    0.404884    0.421483
     0.463583    0.468851    0.497938    0.500427

 Minimum Search - Taking Simple RFO Step
 Searching for Lamda that Minimizes Along All modes
 Value Taken    Lamda =  -0.00000852
 Step Taken.  Stepsize is  0.024505

                             Maximum     Tolerance    Cnvgd?
         Gradient           0.000301      0.000300      NO
         Displacement       0.018639      0.001200      NO
         Energy change     -0.000012      0.000001      NO


 New Cartesian Coordinates Obtained by Inverse Iteration

 Displacement from previous Coordinates is:  0.050542
 ----------------------------------------------------------------
             Standard Nuclear Orientation (Angstroms)
    I     Atom           X                Y                Z
 ----------------------------------------------------------------
    1      S       0.0163208681     0.0478700665     0.0200903419
    2      C       1.7473937882    -0.0171853592     0.0019293608
    3      H       2.2996693850    -0.0605337634     0.9309275246
    4      C       2.2397004050    -0.0094642975    -1.2774432281
    5      H       3.2978808047    -0.0491252728    -1.5096416045
    6      C       1.2106601822     0.0412148810    -2.2643632969
    7      H       1.3915992594     0.0340974061    -3.3332897623
    8      C      -0.0581889208     0.0810820448    -1.7319622824
    9      C      -1.3465539068     0.0901668709    -2.4279930082
   10      C      -2.2995653265    -0.9013938601    -2.4886164131
   11      H      -2.1862567743    -1.8474274560    -1.9712317298
   12      C      -3.4201625234    -0.5630733181    -3.3043420620
   13      H      -4.2656919777    -1.2204902493    -3.4720898449
   14      C      -3.3090904413     0.6819029478    -3.8672679633
   15      H      -4.0040087262     1.1810645594    -4.5290394866
   16      S      -1.8362821455     1.4652463599    -3.4003117152
 ----------------------------------------------------------------
 Nuclear Repulsion Energy =   627.7835109681 hartrees
 There are       43 alpha and       43 beta electrons
 Applying Cartesian multipole field
    Component          Value
    ---------          -----
     (2,0,0)        1.00000E-11
     (0,2,0)        2.00000E-11
     (0,0,2)       -3.00000E-11
 Nucleus-field energy     =    -0.0000000399 hartrees
 Requested basis set is 6-31++G(d,p)
 There are 76 shells and 234 basis functions
 A cutoff of  1.0D-12 yielded   2532 shell pairs
 There are     24948 function pairs

 Q-Chem warning in module /project/projectdirs/jcesr/qchem/qc44/cnl_qc441/compile/cori/qc_src/libqints/qchem/aobasis.C, line 68:

 Using reconstructed effective core potential

 Smallest overlap matrix eigenvalue = 1.10E-06
 Guess MOs from SCF MO coefficient file
 Reading MOs from coefficient file
 Reading MOs from coefficient file
 A restricted hybrid HF-DFT SCF calculation will be
 performed using Pulay DIIS extrapolation
 Exchange:     0.2000 Hartree-Fock + 0.0800 Slater + 0.7200 B88
 Correlation:  0.1900 VWN1RPA + 0.8100 LYP
 Using SG-1 standard quadrature grid
 SCF converges when DIIS error is below 1.0E-08
 Geometry optimization detected.  Setting ReadMinima to 0
 Setting SaveMinima to 0
 ---------------------------------------
  Cycle       Energy         DIIS Error
 ---------------------------------------
    1   -1104.8379994950      2.02E-04
    2   -1104.8381640807      1.58E-05
    3   -1104.8381605185      2.83E-05
    4   -1104.8381667658      3.74E-06
    5   -1104.8381668021      3.15E-06
    6   -1104.8381668702      8.38E-07
    7   -1104.8381668744      3.00E-07
    8   -1104.8381668767      4.35E-08
    9   -1104.8381668772      1.55E-08
   10   -1104.8381668778      5.32E-09 Convergence criterion met
 ---------------------------------------
 SCF time:  CPU 5.48 s  wall 5.42 s
 SCF   energy in the final basis set = -1104.8381668778
 Total energy in the final basis set = -1104.8381668778
 
 --------------------------------------------------------------
 
                    Orbital Energies (a.u.)
 --------------------------------------------------------------
 
 Alpha MOs
 -- Occupied --
-88.919 -88.919 -10.236 -10.236 -10.224 -10.224 -10.204 -10.204
-10.203 -10.203  -7.979  -7.979  -5.943  -5.943  -5.939  -5.939
 -5.936  -5.936  -0.898  -0.878  -0.769  -0.744  -0.740  -0.705
 -0.601  -0.572  -0.560  -0.534  -0.523  -0.478  -0.417  -0.417
 -0.410  -0.406  -0.395  -0.376  -0.375  -0.353  -0.348  -0.264
 -0.258  -0.257  -0.230
 -- Virtual --
 -0.042  -0.023  -0.005  -0.003   0.007   0.011   0.019   0.022
  0.027   0.035   0.037   0.039   0.045   0.053   0.063   0.064
  0.071   0.075   0.086   0.098   0.103   0.106   0.109   0.109
  0.117   0.121   0.125   0.131   0.132   0.133   0.135   0.143
  0.146   0.151   0.154   0.162   0.167   0.174   0.179   0.179
  0.187   0.190   0.195   0.207   0.211   0.222   0.225   0.229
  0.235   0.244   0.262   0.268   0.274   0.280   0.288   0.291
  0.312   0.314   0.324   0.336   0.358   0.360   0.373   0.390
  0.435   0.466   0.469   0.508   0.517   0.528   0.531   0.575
  0.582   0.595   0.620   0.622   0.647   0.662   0.675   0.682
  0.697   0.712   0.723   0.725   0.738   0.755   0.763   0.779
  0.790   0.803   0.805   0.827   0.839   0.882   0.914   0.937
  0.944   0.951   0.961   0.965   0.970   0.987   0.995   1.013
  1.018   1.022   1.028   1.075   1.089   1.091   1.105   1.112
  1.137   1.182   1.208   1.214   1.260   1.267   1.320   1.348
  1.351   1.352   1.365   1.394   1.460   1.462   1.484   1.534
  1.551   1.689   1.695   1.765   1.797   1.867   1.873   1.885
  1.919   1.922   1.966   1.994   2.003   2.029   2.068   2.109
  2.128   2.141   2.182   2.189   2.210   2.258   2.265   2.341
  2.367   2.369   2.424   2.435   2.467   2.469   2.496   2.505
  2.520   2.523   2.579   2.587   2.605   2.648   2.699   2.703
  2.750   2.844   2.853   2.886   2.931   3.159   3.180   3.269
  3.271   3.403   3.424   3.721   3.741   3.971   3.974   4.276
  4.303   4.317   4.328   4.430   4.535   4.658   4.710
 --------------------------------------------------------------
 
          Ground-State Mulliken Net Atomic Charges

     Atom                 Charge (a.u.)
  ----------------------------------------
      1 S                     0.061436
      2 C                    -0.050509
      3 H                     0.187367
      4 C                    -0.365673
      5 H                     0.118033
      6 C                     0.242888
      7 H                     0.135140
      8 C                    -0.333661
      9 C                    -0.322331
     10 C                     0.237701
     11 H                     0.135288
     12 C                    -0.363045
     13 H                     0.118161
     14 C                    -0.050401
     15 H                     0.187429
     16 S                     0.062179
  ----------------------------------------
  Sum of atomic charges =     0.000000

 -----------------------------------------------------------------
                    Cartesian Multipole Moments
 -----------------------------------------------------------------
    Charge (ESU x 10^10)
                 0.0000
    Dipole Moment (Debye)
         X       0.1683      Y      -0.5583      Z      -0.3205
       Tot       0.6653
    Quadrupole Moments (Debye-Ang)
        XX     -63.9479     XY       1.1225     YY     -74.3823
        XZ       4.8175     YZ      -0.5689     ZZ     -68.6443
    Octopole Moments (Debye-Ang^2)
       XXX     149.5878    XXY     -19.3426    XYY      43.5497
       YYY     -48.4388    XXZ     112.3215    XYZ       3.0408
       YYZ     144.4635    XZZ      36.8288    YZZ      -5.7740
       ZZZ     428.3474
    Hexadecapole Moments (Debye-Ang^3)
      XXXX   -1688.1418   XXXY      81.7925   XXYY    -349.9858
      XYYY      76.8209   YYYY    -337.6914   XXXZ    -611.7295
      XXYZ      45.6916   XYYZ    -220.9216   YYYZ     172.9658
      XXZZ    -598.6204   XYZZ     -15.7755   YYZZ    -500.9029
      XZZZ    -657.9539   YZZZ     112.1673   ZZZZ   -2698.2205
 -----------------------------------------------------------------
 Calculating analytic gradient of the SCF energy
 Gradient of SCF Energy
            1           2           3           4           5           6
    1   0.0000049  -0.0000381   0.0000308   0.0000213  -0.0000048   0.0000013
    2  -0.0000578   0.0000900  -0.0000818   0.0000028  -0.0000189  -0.0020312
    3  -0.0000820   0.0000237  -0.0000182   0.0000217   0.0000145  -0.0000205
            7           8           9          10          11          12
    1  -0.0000088   0.0004369  -0.0013876   0.0008726   0.0000715  -0.0000243
    2  -0.0001448   0.0029754   0.0001866  -0.0008491  -0.0000543   0.0000123
    3   0.0000075  -0.0010247   0.0028354  -0.0016488  -0.0001352  -0.0000099
           13          14          15          16
    1   0.0000123  -0.0000122   0.0000012   0.0000233
    2   0.0000106   0.0000859  -0.0000393  -0.0000865
    3  -0.0000310   0.0000842  -0.0000372   0.0000204
 Max gradient component =       2.975E-03
 RMS gradient           =       7.709E-04
 Gradient time:  CPU 2.12 s  wall 2.06 s
 Geometry Optimization Parameters
   NAtoms,    NIC,     NZ,  NCons,   NDum,   NFix, NCnnct, MaxDiis
       16     111       0       1       0       0       0       0

 Cartesian Hessian Update
 Hessian Updated using BFGS Update


** CONSTRAINED OPTIMIZATION IN DELOCALIZED INTERNAL COORDINATES **
   Searching for a Minimum

   Optimization Cycle:   6

                       Coordinates (Angstroms)
     ATOM                X               Y               Z
      1  S         0.0163208681    0.0478700665    0.0200903419
      2  C         1.7473937882   -0.0171853592    0.0019293608
      3  H         2.2996693850   -0.0605337634    0.9309275246
      4  C         2.2397004050   -0.0094642975   -1.2774432281
      5  H         3.2978808047   -0.0491252728   -1.5096416045
      6  C         1.2106601822    0.0412148810   -2.2643632969
      7  H         1.3915992594    0.0340974061   -3.3332897623
      8  C        -0.0581889208    0.0810820448   -1.7319622824
      9  C        -1.3465539068    0.0901668709   -2.4279930082
     10  C        -2.2995653265   -0.9013938601   -2.4886164131
     11  H        -2.1862567743   -1.8474274560   -1.9712317298
     12  C        -3.4201625234   -0.5630733181   -3.3043420620
     13  H        -4.2656919777   -1.2204902493   -3.4720898449
     14  C        -3.3090904413    0.6819029478   -3.8672679633
     15  H        -4.0040087262    1.1810645594   -4.5290394866
     16  S        -1.8362821455    1.4652463599   -3.4003117152
   Point Group: c1    Number of degrees of freedom:    42


   Energy is  -1104.838166878

              Constraints and their Current Values
                                        Value     Constraint
   Dihedral:        6   8   9  10      110.000      110.000
 Hessian Updated using BFGS Update

 38 Hessian modes will be used to form the next step
  Hessian Eigenvalues:
     0.007999    0.030859    0.045000    0.045000    0.045000    0.045002
     0.045004    0.045048    0.045557    0.049448    0.157177    0.159947
     0.160000    0.160313    0.160976    0.221282    0.222909    0.237837
     0.247044    0.249954    0.273621    0.293522    0.294603    0.312563
     0.312942    0.354774    0.354933    0.355129    0.355243    0.358267
     0.358585    0.401424    0.404903    0.422573    0.463582    0.476975
     0.497937    0.502555

 Minimum Search - Taking Simple RFO Step
 Searching for Lamda that Minimizes Along All modes
 Value Taken    Lamda =  -0.00000230
 Step Taken.  Stepsize is  0.011016

                             Maximum     Tolerance    Cnvgd?
         Gradient           0.000148      0.000300     YES
         Displacement       0.007632      0.001200      NO
         Energy change     -0.000005      0.000001      NO


 New Cartesian Coordinates Obtained by Inverse Iteration

 Displacement from previous Coordinates is:  0.019116
 ----------------------------------------------------------------
             Standard Nuclear Orientation (Angstroms)
    I     Atom           X                Y                Z
 ----------------------------------------------------------------
    1      S       0.0166205135     0.0456195450     0.0203884643
    2      C       1.7477296214    -0.0198934595     0.0016912862
    3      H       2.2999333147    -0.0632895523     0.9307167136
    4      C       2.2396455252    -0.0098133527    -1.2778202572
    5      H       3.2978089747    -0.0477080289    -1.5104574740
    6      C       1.2104397988     0.0426097677    -2.2643512825
    7      H       1.3914351338     0.0390334583    -3.3332962222
    8      C      -0.0583270265     0.0821759635    -1.7317142846
    9      C      -1.3470153652     0.0907750398    -2.4270658009
   10      C      -2.3000713115    -0.9007544718    -2.4873613888
   11      H      -2.1883497962    -1.8454959930    -1.9672541171
   12      C      -3.4198989648    -0.5634552217    -3.3044245459
   13      H      -4.2660390969    -1.2205022587    -3.4706449246
   14      C      -3.3081015321     0.6805203240    -3.8694235272
   15      H      -4.0028114651     1.1797051417    -4.5313776524
   16      S      -1.8355743739     1.4644246585    -3.4022501568
 ----------------------------------------------------------------
 Nuclear Repulsion Energy =   627.7683029347 hartrees
 There are       43 alpha and       43 beta electrons
 Applying Cartesian multipole field
    Component          Value
    ---------          -----
     (2,0,0)        1.00000E-11
     (0,2,0)        2.00000E-11
     (0,0,2)       -3.00000E-11
 Nucleus-field energy     =    -0.0000000400 hartrees
 Requested basis set is 6-31++G(d,p)
 There are 76 shells and 234 basis functions
 A cutoff of  1.0D-12 yielded   2532 shell pairs
 There are     24948 function pairs

 Q-Chem warning in module /project/projectdirs/jcesr/qchem/qc44/cnl_qc441/compile/cori/qc_src/libqints/qchem/aobasis.C, line 68:

 Using reconstructed effective core potential

 Smallest overlap matrix eigenvalue = 1.10E-06
 Guess MOs from SCF MO coefficient file
 Reading MOs from coefficient file
 Reading MOs from coefficient file
 A restricted hybrid HF-DFT SCF calculation will be
 performed using Pulay DIIS extrapolation
 Exchange:     0.2000 Hartree-Fock + 0.0800 Slater + 0.7200 B88
 Correlation:  0.1900 VWN1RPA + 0.8100 LYP
 Using SG-1 standard quadrature grid
 SCF converges when DIIS error is below 1.0E-08
 Geometry optimization detected.  Setting ReadMinima to 0
 Setting SaveMinima to 0
 ---------------------------------------
  Cycle       Energy         DIIS Error
 ---------------------------------------
    1   -1104.8380314724      6.77E-05
    2   -1104.8381680624      4.25E-06
    3   -1104.8381680114      6.15E-06
    4   -1104.8381682874      1.48E-06
    5   -1104.8381682974      9.63E-07
    6   -1104.8381683022      2.85E-07
    7   -1104.8381683028      1.15E-07
    8   -1104.8381683035      1.39E-08
    9   -1104.8381683036      6.28E-09 Convergence criterion met
 ---------------------------------------
 SCF time:  CPU 4.94 s  wall 4.61 s
 SCF   energy in the final basis set = -1104.8381683036
 Total energy in the final basis set = -1104.8381683036
 
 --------------------------------------------------------------
 
                    Orbital Energies (a.u.)
 --------------------------------------------------------------
 
 Alpha MOs
 -- Occupied --
-88.919 -88.919 -10.236 -10.236 -10.224 -10.224 -10.204 -10.204
-10.203 -10.203  -7.979  -7.979  -5.943  -5.943  -5.939  -5.939
 -5.936  -5.936  -0.898  -0.878  -0.769  -0.744  -0.740  -0.705
 -0.601  -0.572  -0.560  -0.534  -0.523  -0.478  -0.417  -0.417
[...]
     15  H        -4.0028114651    1.1797051417   -4.5313776524
     16  S        -1.8355743739    1.4644246585   -3.4022501568
   Point Group: c1    Number of degrees of freedom:    42


   Energy is  -1104.838168304

              Constraints and their Current Values
                                        Value     Constraint
   Dihedral:        6   8   9  10      110.000      110.000
 Hessian Updated using BFGS Update

 41 Hessian modes will be used to form the next step
  Hessian Eigenvalues:
     0.008356    0.022986    0.045000    0.045000    0.045000    0.045001
     0.045002    0.045004    0.045011    0.045100    0.045967    0.048652
     0.159079    0.159947    0.159992    0.160000    0.160284    0.160566
     0.221283    0.222767    0.237839    0.246305    0.249958    0.274660
     0.292915    0.294550    0.312568    0.313071    0.354770    0.354914
     0.355129    0.355289    0.358267    0.358585    0.394979    0.404884
     0.424160    0.463582    0.471306    0.497931    0.501851

 Minimum Search - Taking Simple RFO Step
 Searching for Lamda that Minimizes Along All modes
 Value Taken    Lamda =   0.00000000
 Step Taken.  Stepsize is  0.003777

                             Maximum     Tolerance    Cnvgd?
         Gradient           0.000098      0.000300     YES
         Displacement       0.002291      0.001200      NO
         Energy change     -0.000001      0.000001      NO


 New Cartesian Coordinates Obtained by Inverse Iteration

 Displacement from previous Coordinates is:  0.004058
 ----------------------------------------------------------------
             Standard Nuclear Orientation (Angstroms)
    I     Atom           X                Y                Z
 ----------------------------------------------------------------
    1      S       0.0167359410     0.0452549540     0.0204408844
    2      C       1.7478316014    -0.0203606926     0.0016491160
    3      H       2.3000133025    -0.0634229652     0.9307074771
    4      C       2.2397280991    -0.0099264240    -1.2778591933
    5      H       3.2978810839    -0.0475379667    -1.5105795482
    6      C       1.2104502210     0.0426212843    -2.2643573788
    7      H       1.3914122864     0.0403547811    -3.3333166023
    8      C      -0.0582384729     0.0820919408    -1.7317176329
    9      C      -1.3471332568     0.0906159576    -2.4269869726
   10      C      -2.3001926522    -0.9007982627    -2.4872997473
   11      H      -2.1890363757    -1.8450594037    -1.9661882477
   12      C      -3.4199207505    -0.5635473492    -3.3045865622
   13      H      -4.2661527110    -1.2205158313    -3.4706400272
   14      C      -3.3078804329     0.6802827639    -3.8698360959
   15      H      -4.0026222610     1.1796623457    -4.5316166626
   16      S      -1.8354516725     1.4642364280    -3.4024579766
 ----------------------------------------------------------------
 Nuclear Repulsion Energy =   627.7599682601 hartrees
 There are       43 alpha and       43 beta electrons
 Applying Cartesian multipole field
    Component          Value
    ---------          -----
     (2,0,0)        1.00000E-11
     (0,2,0)        2.00000E-11
     (0,0,2)       -3.00000E-11
 Nucleus-field energy     =    -0.0000000400 hartrees
 Requested basis set is 6-31++G(d,p)
 There are 76 shells and 234 basis functions
 A cutoff of  1.0D-12 yielded   2532 shell pairs
 There are     24948 function pairs

 Q-Chem warning in module /project/projectdirs/jcesr/qchem/qc44/cnl_qc441/compile/cori/qc_src/libqints/qchem/aobasis.C, line 68:

 Using reconstructed effective core potential

 Smallest overlap matrix eigenvalue = 1.10E-06
 Guess MOs from SCF MO coefficient file
 Reading MOs from coefficient file
 Reading MOs from coefficient file
 A restricted hybrid HF-DFT SCF calculation will be
 performed using Pulay DIIS extrapolation
 Exchange:     0.2000 Hartree-Fock + 0.0800 Slater + 0.7200 B88
 Correlation:  0.1900 VWN1RPA + 0.8100 LYP
 Using SG-1 standard quadrature grid
 SCF converges when DIIS error is below 1.0E-08
 Geometry optimization detected.  Setting ReadMinima to 0
 Setting SaveMinima to 0
 ---------------------------------------
  Cycle       Energy         DIIS Error
 ---------------------------------------
    1   -1104.8381419540      1.14E-05
    2   -1104.8381685355      1.20E-06
    3   -1104.8381685292      1.58E-06
    4   -1104.8381685487      3.63E-07
    5   -1104.8381685498      1.80E-07
    6   -1104.8381685491      6.22E-08
    7   -1104.8381685498      3.46E-08
    8   -1104.8381685491      4.29E-09 Convergence criterion met
 ---------------------------------------
 SCF time:  CPU 4.28 s  wall 5.09 s
 SCF   energy in the final basis set = -1104.8381685491
 Total energy in the final basis set = -1104.8381685491
 
 --------------------------------------------------------------
 
                    Orbital Energies (a.u.)
 --------------------------------------------------------------
 
 Alpha MOs
 -- Occupied --
-88.919 -88.919 -10.236 -10.236 -10.224 -10.224 -10.204 -10.204
-10.203 -10.203  -7.979  -7.979  -5.943  -5.943  -5.939  -5.939
 -5.936  -5.936  -0.898  -0.878  -0.769  -0.744  -0.740  -0.705
 -0.601  -0.572  -0.560  -0.534  -0.523  -0.478  -0.417  -0.417
 -0.410  -0.406  -0.395  -0.376  -0.375  -0.353  -0.348  -0.264
 -0.258  -0.257  -0.230
 -- Virtual --
 -0.042  -0.022  -0.005  -0.003   0.007   0.011   0.019   0.022
  0.027   0.035   0.037   0.039   0.045   0.053   0.063   0.063
  0.071   0.075   0.086   0.098   0.103   0.106   0.109   0.109
  0.117   0.121   0.125   0.131   0.132   0.133   0.135   0.143
  0.145   0.151   0.154   0.162   0.167   0.174   0.179   0.179
  0.187   0.190   0.195   0.207   0.211   0.223   0.225   0.229
  0.235   0.244   0.263   0.268   0.274   0.280   0.288   0.291
  0.312   0.314   0.324   0.336   0.358   0.360   0.373   0.390
  0.435   0.466   0.469   0.508   0.517   0.528   0.531   0.575
  0.582   0.595   0.620   0.622   0.647   0.662   0.675   0.682
  0.697   0.712   0.723   0.725   0.738   0.755   0.763   0.779
  0.790   0.803   0.805   0.826   0.839   0.882   0.914   0.937
  0.944   0.951   0.961   0.964   0.970   0.987   0.995   1.013
  1.018   1.022   1.028   1.075   1.089   1.091   1.105   1.112
  1.137   1.182   1.208   1.214   1.260   1.267   1.320   1.349
  1.351   1.352   1.365   1.393   1.460   1.461   1.485   1.535
  1.550   1.689   1.695   1.765   1.797   1.866   1.873   1.885
  1.919   1.922   1.966   1.994   2.003   2.029   2.068   2.108
  2.128   2.141   2.182   2.189   2.210   2.257   2.265   2.342
  2.367   2.369   2.424   2.435   2.467   2.470   2.496   2.506
  2.520   2.522   2.579   2.587   2.605   2.648   2.699   2.702
  2.750   2.844   2.853   2.886   2.931   3.159   3.180   3.269
  3.271   3.403   3.424   3.721   3.742   3.971   3.974   4.275
  4.303   4.317   4.328   4.430   4.535   4.658   4.710
 --------------------------------------------------------------
 
          Ground-State Mulliken Net Atomic Charges

     Atom                 Charge (a.u.)
  ----------------------------------------
      1 S                     0.061169
      2 C                    -0.050040
      3 H                     0.187436
      4 C                    -0.365258
      5 H                     0.118017
      6 C                     0.242075
      7 H                     0.135143
      8 C                    -0.333184
      9 C                    -0.322610
     10 C                     0.237191
     11 H                     0.135283
     12 C                    -0.362785
     13 H                     0.118143
     14 C                    -0.049889
     15 H                     0.187494
     16 S                     0.061814
  ----------------------------------------
  Sum of atomic charges =     0.000000

 -----------------------------------------------------------------
                    Cartesian Multipole Moments
 -----------------------------------------------------------------
    Charge (ESU x 10^10)
                 0.0000
    Dipole Moment (Debye)
         X       0.1668      Y      -0.5525      Z      -0.3175
       Tot       0.6587
    Quadrupole Moments (Debye-Ang)
        XX     -63.9351     XY       1.1363     YY     -74.3924
        XZ       4.8102     YZ      -0.5973     ZZ     -68.6572
    Octopole Moments (Debye-Ang^2)
       XXX     149.4918    XXY     -19.2820    XYY      43.5499
       YYY     -48.2458    XXZ     112.3532    XYZ       3.0223
       YYZ     144.5322    XZZ      36.8462    YZZ      -5.6160
       ZZZ     428.4592
    Hexadecapole Moments (Debye-Ang^3)
      XXXX   -1687.5749   XXXY      81.8329   XXYY    -349.9050
      XYYY      76.6622   YYYY    -337.4094   XXXZ    -611.8363
      XXYZ      45.6431   XYYZ    -221.0413   YYYZ     173.0231
      XXZZ    -598.8704   XYZZ     -15.8764   YYZZ    -501.2125
      XZZZ    -658.0548   YZZZ     111.8066   ZZZZ   -2699.7146
 -----------------------------------------------------------------
 Calculating analytic gradient of the SCF energy
 Gradient of SCF Energy
            1           2           3           4           5           6
    1  -0.0000017   0.0000199  -0.0000086  -0.0000234   0.0000024  -0.0000195
    2  -0.0000151  -0.0000115  -0.0000203  -0.0000487   0.0000297  -0.0022576
    3   0.0000007   0.0000078   0.0000040  -0.0000192   0.0000029   0.0000712
            7           8           9          10          11          12
    1   0.0000043   0.0006110  -0.0015728   0.0009675   0.0000062   0.0000449
    2  -0.0000108   0.0031458   0.0000153  -0.0008419  -0.0000132  -0.0000198
    3   0.0000024  -0.0012031   0.0030252  -0.0018657  -0.0000327  -0.0000210
           13          14          15          16
    1  -0.0000126  -0.0000227   0.0000062  -0.0000011
    2   0.0000160   0.0000065   0.0000182   0.0000075
    3   0.0000107  -0.0000021   0.0000066   0.0000124
 Max gradient component =       3.146E-03
 RMS gradient           =       8.364E-04
 Gradient time:  CPU 2.10 s  wall 2.08 s
 Geometry Optimization Parameters
   NAtoms,    NIC,     NZ,  NCons,   NDum,   NFix, NCnnct, MaxDiis
       16     111       0       1       0       0       0       0

 Cartesian Hessian Update
 Hessian Updated using BFGS Update


** CONSTRAINED OPTIMIZATION IN DELOCALIZED INTERNAL COORDINATES **
   Searching for a Minimum

   Optimization Cycle:   8

                       Coordinates (Angstroms)
     ATOM                X               Y               Z
      1  S         0.0167359410    0.0452549540    0.0204408844
      2  C         1.7478316014   -0.0203606926    0.0016491160
      3  H         2.3000133025   -0.0634229652    0.9307074771
      4  C         2.2397280991   -0.0099264240   -1.2778591933
      5  H         3.2978810839   -0.0475379667   -1.5105795482
      6  C         1.2104502210    0.0426212843   -2.2643573788
      7  H         1.3914122864    0.0403547811   -3.3333166023
      8  C        -0.0582384729    0.0820919408   -1.7317176329
      9  C        -1.3471332568    0.0906159576   -2.4269869726
     10  C        -2.3001926522   -0.9007982627   -2.4872997473
     11  H        -2.1890363757   -1.8450594037   -1.9661882477
     12  C        -3.4199207505   -0.5635473492   -3.3045865622
     13  H        -4.2661527110   -1.2205158313   -3.4706400272
     14  C        -3.3078804329    0.6802827639   -3.8698360959
     15  H        -4.0026222610    1.1796623457   -4.5316166626
     16  S        -1.8354516725    1.4642364280   -3.4024579766
   Point Group: c1    Number of degrees of freedom:    42


   Energy is  -1104.838168549

              Constraints and their Current Values
                                        Value     Constraint
   Dihedral:        6   8   9  10      110.000      110.000
 Hessian Updated using BFGS Update

 41 Hessian modes will be used to form the next step
  Hessian Eigenvalues:
     0.008484    0.019291    0.042957    0.045000    0.045000    0.045000
     0.045002    0.045002    0.045004    0.045011    0.045219    0.049902
     0.158044    0.159947    0.159991    0.159998    0.160275    0.161002
     0.221281    0.222634    0.237838    0.247417    0.249921    0.269865
     0.293777    0.294680    0.312566    0.313017    0.354763    0.354891
     0.355129    0.355261    0.358267    0.358583    0.389763    0.404878
     0.419819    0.463583    0.466066    0.497899    0.498308

 Minimum Search - Taking Simple RFO Step
 Searching for Lamda that Minimizes Along All modes
 Value Taken    Lamda =   0.00000000
 Step Taken.  Stepsize is  0.001539

                             Maximum     Tolerance    Cnvgd?
         Gradient           0.000040      0.000300     YES
         Displacement       0.000895      0.001200     YES
         Energy change     -0.000000      0.000001     YES

 Final energy is   -1104.83816854913     


 ******************************
 **  OPTIMIZATION CONVERGED  **
 ******************************

                       Coordinates (Angstroms)
     ATOM                X               Y               Z
      1  S         0.0167359410    0.0452549540    0.0204408844
      2  C         1.7478316014   -0.0203606926    0.0016491160
      3  H         2.3000133025   -0.0634229652    0.9307074771
      4  C         2.2397280991   -0.0099264240   -1.2778591933
      5  H         3.2978810839   -0.0475379667   -1.5105795482
      6  C         1.2104502210    0.0426212843   -2.2643573788
      7  H         1.3914122864    0.0403547811   -3.3333166023
      8  C        -0.0582384729    0.0820919408   -1.7317176329
      9  C        -1.3471332568    0.0906159576   -2.4269869726
     10  C        -2.3001926522   -0.9007982627   -2.4872997473
     11  H        -2.1890363757   -1.8450594037   -1.9661882477
     12  C        -3.4199207505   -0.5635473492   -3.3045865622
     13  H        -4.2661527110   -1.2205158313   -3.4706400272
     14  C        -3.3078804329    0.6802827639   -3.8698360959
     15  H        -4.0026222610    1.1796623457   -4.5316166626
     16  S        -1.8354516725    1.4642364280   -3.4024579766

Z-matrix Print:
$molecule
0 1
S 
C  1 1.732441
H  2 1.081623 1 120.152726
C  2 1.370844 1 111.616048 3 179.951500 0
H  4 1.084095 2 123.390493 1 -179.838606 0
C  4 1.426658 2 112.755795 1 -0.401801 0
H  6 1.084171 4 124.144020 2 -178.835378 0
C  6 1.376530 4 113.480307 2 0.462539 0
C  8 1.464487 6 128.874359 4 -177.515461 0
C  9 1.376540 8 128.752243 6 110.000000 0
H  10 1.084224 9 122.358003 8 1.637789 0
C  10 1.426705 9 113.468036 8 -177.734498 0
H  12 1.084108 10 123.856911 9 179.922900 0
C  12 1.370829 10 112.739891 9 0.437457 0
H  14 1.081665 12 128.220295 10 179.585377 0
S  14 1.732360 12 111.643600 10 -0.403257 0
$end

 
 --------------------------------------------------------------
 
                    Orbital Energies (a.u.)
 --------------------------------------------------------------
 
 Alpha MOs
 -- Occupied --
-88.919 -88.919 -10.236 -10.236 -10.224 -10.224 -10.204 -10.204
-10.203 -10.203  -7.979  -7.979  -5.943  -5.943  -5.939  -5.939
 -5.936  -5.936  -0.898  -0.878  -0.769  -0.744  -0.740  -0.705
 -0.601  -0.572  -0.560  -0.534  -0.523  -0.478  -0.417  -0.417
 -0.410  -0.406  -0.395  -0.376  -0.375  -0.353  -0.348  -0.264
 -0.258  -0.257  -0.230
 -- Virtual --
 -0.042  -0.022  -0.005  -0.003   0.007   0.011   0.019   0.022
  0.027   0.035   0.037   0.039   0.045   0.053   0.063   0.063
  0.071   0.075   0.086   0.098   0.103   0.106   0.109   0.109
  0.117   0.121   0.125   0.131   0.132   0.133   0.135   0.143
  0.145   0.151   0.154   0.162   0.167   0.174   0.179   0.179
  0.187   0.190   0.195   0.207   0.211   0.223   0.225   0.229
  0.235   0.244   0.263   0.268   0.274   0.280   0.288   0.291
  0.312   0.314   0.324   0.336   0.358   0.360   0.373   0.390
  0.435   0.466   0.469   0.508   0.517   0.528   0.531   0.575
  0.582   0.595   0.620   0.622   0.647   0.662   0.675   0.682
  0.697   0.712   0.723   0.725   0.738   0.755   0.763   0.779
  0.790   0.803   0.805   0.826   0.839   0.882   0.914   0.937
  0.944   0.951   0.961   0.964   0.970   0.987   0.995   1.013
  1.018   1.022   1.028   1.075   1.089   1.091   1.105   1.112
  1.137   1.182   1.208   1.214   1.260   1.267   1.320   1.349
  1.351   1.352   1.365   1.393   1.460   1.461   1.485   1.535
  1.550   1.689   1.695   1.765   1.797   1.866   1.873   1.885
  1.919   1.922   1.966   1.994   2.003   2.029   2.068   2.108
  2.128   2.141   2.182   2.189   2.210   2.257   2.265   2.342
  2.367   2.369   2.424   2.435   2.467   2.470   2.496   2.506
  2.520   2.522   2.579   2.587   2.605   2.648   2.699   2.702
  2.750   2.844   2.853   2.886   2.931   3.159   3.180   3.269
  3.271   3.403   3.424   3.721   3.742   3.971   3.974   4.275
  4.303   4.317   4.328   4.430   4.535   4.658   4.710
 --------------------------------------------------------------
 
          Ground-State Mulliken Net Atomic Charges

     Atom                 Charge (a.u.)
  ----------------------------------------
      1 S                     0.061169
      2 C                    -0.050040
      3 H                     0.187436
      4 C                    -0.365258
      5 H                     0.118017
      6 C                     0.242075
      7 H                     0.135143
      8 C                    -0.333184
      9 C                    -0.322610
     10 C                     0.237191
     11 H                     0.135283
     12 C                    -0.362785
     13 H                     0.118143
     14 C                    -0.049889
     15 H                     0.187494
     16 S                     0.061814
  ----------------------------------------
  Sum of atomic charges =     0.000000

 -----------------------------------------------------------------
                    Cartesian Multipole Moments
 -----------------------------------------------------------------
    Charge (ESU x 10^10)
                 0.0000
    Dipole Moment (Debye)
         X       0.1668      Y      -0.5525      Z      -0.3175
       Tot       0.6587
    Quadrupole Moments (Debye-Ang)
        XX     -63.9351     XY       1.1363     YY     -74.3924
        XZ       4.8102     YZ      -0.5973     ZZ     -68.6572
    Octopole Moments (Debye-Ang^2)
       XXX     149.4918    XXY     -19.2820    XYY      43.5499
       YYY     -48.2458    XXZ     112.3532    XYZ       3.0223
       YYZ     144.5322    XZZ      36.8462    YZZ      -5.6160
       ZZZ     428.4592
    Hexadecapole Moments (Debye-Ang^3)
      XXXX   -1687.5749   XXXY      81.8329   XXYY    -349.9050
      XYYY      76.6622   YYYY    -337.4094   XXXZ    -611.8363
      XXYZ      45.6431   XYYZ    -221.0413   YYYZ     173.0231
      XXZZ    -598.8704   XYZZ     -15.8764   YYZZ    -501.2125
      XZZZ    -658.0548   YZZZ     111.8066   ZZZZ   -2699.7146
 -----------------------------------------------------------------
Archival summary:
1\1\nid00490\OPT\ProcedureUnspecified\BasisUnspecified\286\bwood\WedMay3102:25:482017WedMay3102:25:482017\0\\#,OPT,ProcedureUnspecified,BasisUnspecified,\\0,1\S\C,1,1.73244\H,2,1.08162,1,120.153\C,2,1.37084,1,111.616,3,179.951,0\H,4,1.08409,2,123.39,1,-179.839,0\C,4,1.42666,2,112.756,1,-0.401801,0\H,6,1.08417,4,124.144,2,-178.835,0\C,6,1.37653,4,113.48,2,0.462539,0\C,8,1.46449,6,128.874,4,-177.515,0\C,9,1.37654,8,128.752,6,110,0\H,10,1.08422,9,122.358,8,1.63779,0\C,10,1.4267,9,113.468,8,-177.734,0\H,12,1.08411,10,123.857,9,179.923,0\C,12,1.37083,10,112.74,9,0.437457,0\H,14,1.08167,12,128.22,10,179.585,0\S,14,1.73236,12,111.644,10,-0.403257,0\\\@

 Total job time:  65.81s(wall), 64.59s(cpu) 
 Wed May 31 02:25:48 2017

        *************************************************************
        *                                                           *
        *  Thank you very much for using Q-Chem.  Have a nice day.  *
        *                                                           *
        *************************************************************


0 sent ACK to 0 
now end server 0 ... 
