srun -N 1 --ntasks-per-node 16 --cpus-per-task 4 --cpu_bind=cores --nodelist nid00462 /global/project/projectdirs/jcesr/qchem/qc44/cnl_qc441/dist/exe/qcprog.cori.haswell.exe .pt_n2_neutral_20.0.in.49169.qcin.1 /global/cscratch1/sd/bwood/qchem/nx/qchem49169/
Process 1 of 16 is on nid00462 - thread support 0
Process 2 of 16 is on nid00462 - thread support 0
Process 3 of 16 is on nid00462 - thread support 0
Process 4 of 16 is on nid00462 - thread support 0
Process 5 of 16 is on nid00462 - thread support 0
Process 6 of 16 is on nid00462 - thread support 0
Process 0 of 16 is on nid00462 - thread support 0
initial socket setup ...start
Process 15 of 16 is on nid00462 - thread support 0
initial socket setup ...done 
now start server 0 ... 
nid00462 10.128.1
Q-Chem Developer Version! Running on 10.128.1.*
                  Welcome to Q-Chem
     A Quantum Leap Into The Future Of Chemistry


 Q-Chem 4.4, Q-Chem, Inc., Pleasanton, CA (2016)

 Y. Shao,  Z. Gan,  E. Epifanovsky,  A. T. B. Gilbert,  M. Wormit,  
 J. Kussmann,  A. W. Lange,  A. Behn,  J. Deng,  X. Feng,  D. Ghosh,  
 M. Goldey,  P. R. Horn,  L. D. Jacobson,  I. Kaliman,  F. Rob,  
 R. Z. Khaliullin,  T. Kus,  A. Landau,  J. Liu,  E. I. Proynov,  Y. M. Rhee,  
 R. M. Richard,  M. A. Rohrdanz,  R. P. Steele,  E. J. Sundstrom,  
 H. L. Woodcock III,  P. M. Zimmerman,  D. Zuev,  B. Albrecht,  E. Alguire,  
 B. Austin,  S. A. Baeppler,  G. J. O. Beran,  Y. A. Bernard,  
 E. J. Berquist,  K. Brandhorst,  K. B. Bravaya,  S. T. Brown,  D. Casanova,  
 C.-M. Chang,  Y. Chen,  S. H. Chien,  K. D. Closser,  M. P. Coons,  
 D. L. Crittenden,  S. Dasgupta,  M. Diedenhofen,  R. A. DiStasio Jr.,  
 H. Do,  A. D. Dutoi,  R. G. Edgar,  P.-T. Fang,  S. Fatehi,  Q. Feng,  
 L. Fusti-Molnar,  A. Ghysels,  A. Golubeva-Zadorozhnaya,  J. Gomes,  
 A. Gunina,  M. W. D. Hanson-Heine,  P. H. P. Harbach,  A. W. Hauser,  
 J. E. Herr,  E. G. Hohenstein,  Z. C. Holden,  K. Hui,  T.-C. Jagau,  H. Ji,  
 B. Kaduk,  K. Khistyaev,  Jaehoon Kim,  Jihan Kim,  R. A. King,  
 P. Klunzinger,  K. Koh,  D. Kosenkov,  T. Kowalczyk,  C. M. Krauter,  
 A. Kunitsa,  K. U. Lao,  A. Laurent,  K. V. Lawler,  J. Lee,  D. Lefrancois,  
 S. Lehtola,  S. V. Levchenko,  C. Y. Lin,  Y.-S. Lin,  F. Liu,  E. Livshits,  
 R. C. Lochan,  A. Luenser,  P. Manohar,  S. F. Manzer,  S.-P. Mao,  Y. Mao,  
 N. Mardirossian,  A. V. Marenich,  L. A. Martinez-Martinez,  S. A. Maurer,  
 N. J. Mayhall,  J.-M. Mewes,  A. F. Morrison,  K. Nanda,  T. S. Nguyen-Beck,  
 C. M. Oana,  R. Olivares-Amaya,  D. P. O'Neill,  J. A. Parkhill,  
 T. M. Perrine,  R. Peverati,  P. A. Pieniazek,  F. Plasser,  A. Prociuk,  
 D. R. Rehn,  E. Rosta,  N. J. Russ,  N. Sergueev,  S. M. Sharada,  
 S. Sharma,  D. W. Small,  A. Sodt,  T. Stauch,  T. Stein,  D. Stuck,  
 Y.-C. Su,  A. J. W. Thom,  T. Tsuchimochi,  L. Vogt,  O. Vydrov,  T. Wang,  
 M. A. Watson,  J. Wenzel,  A. White,  C. F. Williams,  V. Vanovschi,  
 K. Yao,  S. Yeganeh,  S. R. Yost,  Z.-Q. You,  I. Y. Zhang,  X. Zhang,  
 Y. Zhao,  B. R. Brooks,  G. K. L. Chan,  D. M. Chipman,  C. J. Cramer,  
 W. A. Goddard III,  M. S. Gordon,  W. J. Hehre,  A. Klamt,  
 H. F. Schaefer III,  M. W. Schmidt,  C. D. Sherrill,  D. G. Truhlar,  
 A. Warshel,  X. Xu,  A. Aspuru-Guzik,  R. Baer,  A. T. Bell,  N. A. Besley,  
 J.-D. Chai,  A. Dreuw,  B. D. Dunietz,  T. R. Furlani,  S. R. Gwaltney,  
 C.-P. Hsu,  Y. Jung,  J. Kong,  D. S. Lambrecht,  W. Liang,  C. Ochsenfeld,  
 V. A. Rassolov,  L. V. Slipchenko,  J. E. Subotnik,  T. Van Voorhis,  
 J. M. Herbert,  A. I. Krylov,  P. M. W. Gill,  M. Head-Gordon

 Contributors to earlier versions of Q-Chem not listed above: 
 R. D. Adamson,  J. Baker,  E. F. C. Byrd,  A. K. Chakraborty,  C.-L. Cheng,  
 H. Dachsel,  R. J. Doerksen,  G. Hawkins,  A. Heyden,  S. Hirata,  
 G. Kedziora,  F. J. Keil,  C. Kelley,  P. P. Korambath,  W. Kurlancheek,  
 A. M. Lee,  M. S. Lee,  D. Liotard,  I. Lotan,  P. E. Maslen,  N. Nair,  
 D. Neuhauser,  R. Olson,  B. Peters,  J. Ritchie,  N. E. Schultz,  
 N. Shenvi,  A. C. Simmonett,  K. S. Thanthiriwatte,  Q. Wu,  W. Zhang

 Please cite Q-Chem as follows:
 Y. Shao et al., Mol. Phys. 113, 184-215 (2015)
 DOI: 10.1080/00268976.2014.952696

 Q-Chem 4.4.2 for Intel X86 EM64T Linux

 Parts of Q-Chem use Armadillo 5.200.1 (Boston Tea Smuggler).
 http://arma.sourceforge.net/

 Q-Chem begins on Wed May 31 02:24:50 2017  

Host: nid00447
0

     Scratch files written to /global/cscratch1/sd/bwood/qchem/nx/qchem49169.0//
 Parallel job on  16  processors

Checking the input file for inconsistencies... 	...done.

--------------------------------------------------------------
User input:
--------------------------------------------------------------
$molecule
 0  1
 S           0.00238887        0.06077275        0.00183269
 C           1.73707619        0.03315849        0.00323229
 H           2.27612737        0.05289032        0.94042557
 C           2.24169204       -0.01546201       -1.26965798
 H           3.30285780       -0.04005365       -1.48972496
 C           1.22479222       -0.01612968       -2.26811464
 H           1.42674790       -0.02650987       -3.33334501
 C          -0.05393771        0.02880388       -1.75170966
 C          -1.32450815        0.04889988       -2.45636342
 C          -1.60536476       -0.33665453       -3.75116294
 H          -0.85263467       -0.73860961       -4.42022767
 C          -2.97768999       -0.18575937       -4.10448834
 H          -3.38242070       -0.44557594       -5.07597331
 C          -3.73889760        0.31201522       -3.07983347
 H          -4.80071483        0.51670925       -3.06861781
 S          -2.78295918        0.62217778       -1.66579096
$end


$rem
         jobtype = opt
        exchange = b3lyp
           basis = 6-31++g**
  max_scf_cycles = 150
      mem_static = 775
       mem_total = 7750
      sym_ignore = true
        symmetry = false
          thresh = 12
$end


$opt
CONSTRAINT
tors 6 8 9 10 20.0
ENDCONSTRAINT
$end

--------------------------------------------------------------
 ----------------------------------------------------------------
             Standard Nuclear Orientation (Angstroms)
    I     Atom           X                Y                Z
 ----------------------------------------------------------------
    1      S       0.0023888700     0.0607727500     0.0018326900
    2      C       1.7370761900     0.0331584900     0.0032322900
    3      H       2.2761273700     0.0528903200     0.9404255700
    4      C       2.2416920400    -0.0154620100    -1.2696579800
    5      H       3.3028578000    -0.0400536500    -1.4897249600
    6      C       1.2247922200    -0.0161296800    -2.2681146400
    7      H       1.4267479000    -0.0265098700    -3.3333450100
    8      C      -0.0539377100     0.0288038800    -1.7517096600
    9      C      -1.3245081500     0.0488998800    -2.4563634200
   10      C      -1.6053647600    -0.3366545300    -3.7511629400
   11      H      -0.8526346700    -0.7386096100    -4.4202276700
   12      C      -2.9776899900    -0.1857593700    -4.1044883400
   13      H      -3.3824207000    -0.4455759400    -5.0759733100
   14      C      -3.7388976000     0.3120152200    -3.0798334700
   15      H      -4.8007148300     0.5167092500    -3.0686178100
   16      S      -2.7829591800     0.6221777800    -1.6657909600
 ----------------------------------------------------------------
 Nuclear Repulsion Energy =   632.7205728604 hartrees
 There are       43 alpha and       43 beta electrons
 Requested basis set is 6-31++G(d,p)
 There are 76 shells and 234 basis functions

 Total QAlloc Memory Limit   7750 MB
 Mega-Array Size       758 MB
 MEM_STATIC part       775 MB
 A cutoff of  1.0D-12 yielded   2527 shell pairs
 There are     24869 function pairs

 Q-Chem warning in module /project/projectdirs/jcesr/qchem/qc44/cnl_qc441/compile/cori/qc_src/libqints/qchem/aobasis.C, line 68:

 Using reconstructed effective core potential

 
 -------------------------------------------------------
 OpenMP Integral Computing Module                       
 Release: version 1.0, May 2013, Q-Chem Inc. Pittsburgh 
 -------------------------------------------------------
 Integral Job Info:
 Integral job number is                      11
 Integral operator is                         1
 short-range coefficients                     0
 long-range coefficients              100000000
 Omega coefficients                           0
 if combine SR and LR in K                    0
 Integral screening is                        0
 Integral computing path is                   2
 max size of driver memory is            800000
 size of driver memory is                593474
 size of scratch memory is             15166112
 max col of scratch BK array               1296
 max len of scratch array in speh3          155
 max len of scratch index in speh4           18
 max int batch size is                      520
 min int batch size is                       52
 fixed nKL is                                52
 max L of basis functions is                  2
 order of int derivative is                   0
 number of shells is                         76
 number of basis is                         234
 number of cartesian basis is               234
 number of contracted shell pairs          2527
 number of primitive shell pairs           8243
 maxK2 (contraction) of shell pair           36
 max number of K2 of shell pair               1
 max number of CS2 of shell pair            258
 max number of PS2 of shell pair           1500
 mem total for path MDJ                   51992
 -------------------------------------------------------
 Smallest overlap matrix eigenvalue = 9.31E-07
 Linear dependence detected in AO basis
 Number of orthogonalized atomic orbitals = 233
 Maximum deviation from orthogonality = 9.301E-11

 Scale SEOQF with 1.000000e-01/1.000000e-01/1.000000e-01

 Standard Electronic Orientation quadrupole field applied
 Nucleus-field energy     =    -0.0000000335 hartrees
 Guess from superposition of atomic densities
 Warning:  Energy on first SCF cycle will be non-variational
 A restricted hybrid HF-DFT SCF calculation will be
 performed using Pulay DIIS extrapolation
 Exchange:     0.2000 Hartree-Fock + 0.0800 Slater + 0.7200 B88
 Correlation:  0.1900 VWN1RPA + 0.8100 LYP
 Using SG-1 standard quadrature grid
 SCF converges when DIIS error is below 1.0E-08
 ---------------------------------------
  Cycle       Energy         DIIS Error
 ---------------------------------------
    1   -1107.1662479750      4.41E-02
    2   -1104.6640341790      4.79E-03
    3   -1104.3806065912      7.55E-03
    4   -1104.8289639737      1.08E-03
    5   -1104.8374401210      4.89E-04
    6   -1104.8390510556      1.41E-04
    7   -1104.8391990862      3.06E-05
    8   -1104.8392057414      3.23E-06
    9   -1104.8392057535      3.05E-06
   10   -1104.8392058172      8.44E-07
   11   -1104.8392058230      3.73E-07
   12   -1104.8392058231      7.18E-08
   13   -1104.8392058229      4.29E-08
   14   -1104.8392058220      4.25E-09 Convergence criterion met
 ---------------------------------------
 SCF time:  CPU 7.70 s  wall 7.28 s
 SCF   energy in the final basis set = -1104.8392058220
 Total energy in the final basis set = -1104.8392058220
 
 --------------------------------------------------------------
 
                    Orbital Energies (a.u.)
 --------------------------------------------------------------
 
 Alpha MOs
 -- Occupied --
-88.919 -88.919 -10.239 -10.239 -10.225 -10.225 -10.205 -10.205
-10.204 -10.204  -7.979  -7.979  -5.943  -5.943  -5.940  -5.939
 -5.936  -5.936  -0.901  -0.878  -0.771  -0.749  -0.737  -0.705
 -0.604  -0.580  -0.554  -0.533  -0.527  -0.477  -0.421  -0.419
 -0.408  -0.404  -0.401  -0.376  -0.374  -0.360  -0.343  -0.281
 -0.265  -0.258  -0.213
 -- Virtual --
 -0.058  -0.014  -0.004  -0.000   0.005   0.014   0.019   0.027
  0.027   0.037   0.039   0.045   0.049   0.060   0.063   0.070
  0.075   0.084   0.087   0.095   0.102   0.104   0.107   0.112
  0.116   0.122   0.126   0.129   0.137   0.139   0.141   0.144
  0.146   0.154   0.161   0.162   0.167   0.178   0.183   0.185
  0.187   0.194   0.194   0.207   0.212   0.221   0.221   0.242
  0.246   0.260   0.263   0.268   0.271   0.283   0.302   0.308
  0.312   0.318   0.327   0.349   0.360   0.374   0.383   0.419
  0.447   0.467   0.494   0.533   0.539   0.554   0.565   0.568
  0.598   0.620   0.632   0.654   0.661   0.671   0.672   0.682
  0.702   0.718   0.722   0.725   0.735   0.751   0.753   0.792
  0.801   0.818   0.830   0.847   0.886   0.919   0.934   0.951
  0.955   0.955   0.963   0.974   0.988   0.992   1.003   1.011
  1.036   1.037   1.077   1.082   1.103   1.110   1.129   1.168
  1.171   1.186   1.188   1.247   1.251   1.329   1.339   1.355
  1.356   1.369   1.379   1.447   1.495   1.509   1.556   1.591
  1.653   1.693   1.715   1.782   1.861   1.873   1.888   1.913
  1.924   1.968   1.988   2.013   2.021   2.072   2.081   2.128
  2.135   2.176   2.180   2.239   2.245   2.284   2.293   2.363
  2.366   2.418   2.453   2.466   2.474   2.504   2.507   2.520
  2.542   2.574   2.578   2.594   2.682   2.690   2.722   2.762
  2.791   2.853   2.940   2.975   3.139   3.214   3.270   3.272
  3.395   3.431   3.709   3.754   3.942   4.015   4.232   4.300
  4.303   4.327   4.403   4.544   4.647   4.733
 --------------------------------------------------------------
 
          Ground-State Mulliken Net Atomic Charges

     Atom                 Charge (a.u.)
  ----------------------------------------
      1 S                    -0.131062
      2 C                     0.009991
      3 H                     0.196807
      4 C                    -0.342253
      5 H                     0.121148
      6 C                     0.346309
      7 H                     0.118765
      8 C                    -0.321181
      9 C                    -0.317957
     10 C                     0.349521
     11 H                     0.118947
     12 C                    -0.344260
     13 H                     0.121079
     14 C                     0.010287
     15 H                     0.196811
     16 S                    -0.132952
  ----------------------------------------
  Sum of atomic charges =    -0.000000

 -----------------------------------------------------------------
                    Cartesian Multipole Moments
 -----------------------------------------------------------------
    Charge (ESU x 10^10)
                -0.0000
    Dipole Moment (Debye)
         X       0.4728      Y      -0.2054      Z      -0.8585
       Tot       1.0014
    Quadrupole Moments (Debye-Ang)
        XX     -63.4147     XY      -0.8265     YY     -78.1856
        XZ       3.0149     YZ       2.1463     ZZ     -63.4612
    Octopole Moments (Debye-Ang^2)
       XXX     157.9676    XXY      -1.2102    XYY      63.4792
       YYY     -23.7755    XXZ     107.0918    XYZ      -0.5795
       YYZ     142.8374    XZZ      50.6670    YZZ     -20.3379
       ZZZ     352.6791
    Hexadecapole Moments (Debye-Ang^3)
      XXXX   -1814.1041   XXXY      28.7905   XXYY    -400.5145
      XYYY      72.5800   YYYY    -147.7754   XXXZ    -559.6933
      XXYZ      -2.0150   XYYZ    -243.4368   YYYZ      17.1324
      XXZZ    -636.6345   XYZZ      40.5640   YYZZ    -453.9776
      XZZZ    -595.7852   YZZZ      87.2365   ZZZZ   -2142.9199
 -----------------------------------------------------------------
 Calculating analytic gradient of the SCF energy
 Gradient of SCF Energy
            1           2           3           4           5           6
    1  -0.0021803  -0.0000293   0.0000271   0.0005093  -0.0000056   0.0001370
    2   0.0002344   0.0000954   0.0000845   0.0002365   0.0000113  -0.0003487
    3  -0.0004526  -0.0005666   0.0000502   0.0002565   0.0000329   0.0013120
            7           8           9          10          11          12
    1  -0.0000059   0.0002943   0.0007656  -0.0010843   0.0002088  -0.0004501
    2  -0.0002149  -0.0000743  -0.0004411   0.0008669   0.0001125  -0.0003606
    3  -0.0002028  -0.0010590  -0.0007852   0.0002851  -0.0001911  -0.0002215
           13          14          15          16
    1  -0.0000252   0.0004949  -0.0000844   0.0014282
    2  -0.0000064  -0.0002519  -0.0000701   0.0001262
    3   0.0000582  -0.0002241   0.0000113   0.0016967
 Max gradient component =       2.180E-03
 RMS gradient           =       6.139E-04
 Gradient time:  CPU 2.12 s  wall 2.11 s
 Geometry Optimization Parameters
   NAtoms,    NIC,     NZ,  NCons,   NDum,   NFix, NCnnct, MaxDiis
       16     111       0       1       0       0       0       0


** CONSTRAINED OPTIMIZATION IN DELOCALIZED INTERNAL COORDINATES **
   Searching for a Minimum

   Optimization Cycle:   1

                       Coordinates (Angstroms)
     ATOM                X               Y               Z
      1  S         0.0023888700    0.0607727500    0.0018326900
      2  C         1.7370761900    0.0331584900    0.0032322900
      3  H         2.2761273700    0.0528903200    0.9404255700
      4  C         2.2416920400   -0.0154620100   -1.2696579800
      5  H         3.3028578000   -0.0400536500   -1.4897249600
      6  C         1.2247922200   -0.0161296800   -2.2681146400
      7  H         1.4267479000   -0.0265098700   -3.3333450100
      8  C        -0.0539377100    0.0288038800   -1.7517096600
      9  C        -1.3245081500    0.0488998800   -2.4563634200
     10  C        -1.6053647600   -0.3366545300   -3.7511629400
     11  H        -0.8526346700   -0.7386096100   -4.4202276700
     12  C        -2.9776899900   -0.1857593700   -4.1044883400
     13  H        -3.3824207000   -0.4455759400   -5.0759733100
     14  C        -3.7388976000    0.3120152200   -3.0798334700
     15  H        -4.8007148300    0.5167092500   -3.0686178100
     16  S        -2.7829591800    0.6221777800   -1.6657909600
   Point Group: c1    Number of degrees of freedom:    42


   Energy is  -1104.839205822

              Constraints and their Current Values
                                        Value     Constraint
   Dihedral:        6   8   9  10       20.000       20.000

 Attempting to Generate Delocalized Internal Coordinates

 41 Hessian modes will be used to form the next step
  Hessian Eigenvalues:
     0.045000    0.045000    0.045000    0.045000    0.045000    0.045000
     0.045002    0.045002    0.045003    0.045004    0.045011    0.045012
     0.159943    0.159949    0.159991    0.159992    0.160000    0.160000
     0.221282    0.221282    0.237835    0.237839    0.250000    0.250000
     0.294264    0.294663    0.312518    0.312618    0.354736    0.354850
     0.355125    0.355132    0.358226    0.358329    0.378510    0.404854
     0.404909    0.463547    0.463616    0.497922    0.497945

 Minimum Search - Taking Simple RFO Step
 Searching for Lamda that Minimizes Along All modes
 Value Taken    Lamda =  -0.00038914
 Step Taken.  Stepsize is  0.049422

                             Maximum     Tolerance    Cnvgd?
         Gradient           0.008232      0.000300      NO
         Displacement       0.035021      0.001200      NO
         Energy change     *********      0.000001      NO


 New Cartesian Coordinates Obtained by Inverse Iteration

 Displacement from previous Coordinates is:  0.245776
 ----------------------------------------------------------------
             Standard Nuclear Orientation (Angstroms)
    I     Atom           X                Y                Z
 ----------------------------------------------------------------
    1      S       0.0233460932     0.0574409619     0.0283388033
    2      C       1.7570962665     0.0242027127    -0.0007347901
    3      H       2.3131974882     0.0347671707     0.9264951084
    4      C       2.2370613840    -0.0160912602    -1.2834689695
    5      H       3.2938797906    -0.0420767067    -1.5234605411
    6      C       1.2027566841    -0.0062874111    -2.2635310250
    7      H       1.3864978706    -0.0095973045    -3.3317909036
    8      C      -0.0672623740     0.0363408530    -1.7254023376
    9      C      -1.3400355959     0.0524338060    -2.4302219358
   10      C      -1.5990468085    -0.3408474779    -3.7273805642
   11      H      -0.8351090564    -0.7468587829    -4.3805812301
   12      C      -2.9638355555    -0.1883010572    -4.1077160854
   13      H      -3.3494607057    -0.4518190257    -5.0860263557
   14      C      -3.7450037667     0.3154473862    -3.1011247445
   15      H      -4.8062145352     0.5227428299    -3.1117353061
   16      S      -2.8153123794     0.6291762158    -1.6711787430
 ----------------------------------------------------------------
 Nuclear Repulsion Energy =   631.5270227612 hartrees
 There are       43 alpha and       43 beta electrons
 Applying Cartesian multipole field
    Component          Value
    ---------          -----
     (2,0,0)        1.00000E-11
     (0,2,0)        2.00000E-11
     (0,0,2)       -3.00000E-11
 Nucleus-field energy     =    -0.0000000333 hartrees
 Requested basis set is 6-31++G(d,p)
 There are 76 shells and 234 basis functions
 A cutoff of  1.0D-12 yielded   2529 shell pairs
 There are     24877 function pairs

 Q-Chem warning in module /project/projectdirs/jcesr/qchem/qc44/cnl_qc441/compile/cori/qc_src/libqints/qchem/aobasis.C, line 68:

 Using reconstructed effective core potential

 Smallest overlap matrix eigenvalue = 9.15E-07
 Linear dependence detected in AO basis
 Number of orthogonalized atomic orbitals = 233
 Maximum deviation from orthogonality = 3.053E-11
 Guess MOs from SCF MO coefficient file
 Reading MOs from coefficient file
 Reading MOs from coefficient file
 A restricted hybrid HF-DFT SCF calculation will be
 performed using Pulay DIIS extrapolation
 Exchange:     0.2000 Hartree-Fock + 0.0800 Slater + 0.7200 B88
 Correlation:  0.1900 VWN1RPA + 0.8100 LYP
 Using SG-1 standard quadrature grid
 SCF converges when DIIS error is below 1.0E-08
 Geometry optimization detected.  Setting ReadMinima to 0
 Setting SaveMinima to 0
 ---------------------------------------
  Cycle       Energy         DIIS Error
 ---------------------------------------
    1   -1104.8304719898      9.29E-04
    2   -1104.8388905326      2.61E-04
    3   -1104.8372151754      5.38E-04
    4   -1104.8394305692      3.78E-05
    5   -1104.8394396328      1.52E-05
    6   -1104.8394410531      5.37E-06
    7   -1104.8394412525      1.84E-06
    8   -1104.8394412763      4.41E-07
    9   -1104.8394412777      8.94E-08
   10   -1104.8394412765      2.98E-08
   11   -1104.8394412770      1.02E-08
   12   -1104.8394412762      1.80E-09 Convergence criterion met
 ---------------------------------------
 SCF time:  CPU 6.74 s  wall 6.26 s
 SCF   energy in the final basis set = -1104.8394412762
 Total energy in the final basis set = -1104.8394412762
 
 --------------------------------------------------------------
 
                    Orbital Energies (a.u.)
 --------------------------------------------------------------
 
 Alpha MOs
 -- Occupied --
-88.920 -88.920 -10.239 -10.239 -10.225 -10.225 -10.205 -10.205
-10.203 -10.203  -7.979  -7.979  -5.944  -5.943  -5.940  -5.940
 -5.936  -5.936  -0.900  -0.878  -0.771  -0.749  -0.737  -0.705
 -0.604  -0.579  -0.554  -0.533  -0.527  -0.477  -0.421  -0.418
 -0.408  -0.403  -0.401  -0.376  -0.374  -0.359  -0.344  -0.281
 -0.264  -0.258  -0.213
 -- Virtual --
 -0.058  -0.014  -0.004  -0.000   0.004   0.014   0.019   0.027
  0.027   0.037   0.039   0.046   0.048   0.059   0.062   0.070
  0.075   0.082   0.088   0.095   0.102   0.103   0.107   0.112
  0.115   0.123   0.126   0.130   0.137   0.139   0.141   0.144
  0.146   0.152   0.161   0.162   0.167   0.178   0.183   0.185
  0.187   0.194   0.195   0.207   0.212   0.221   0.221   0.241
  0.246   0.260   0.263   0.267   0.272   0.281   0.303   0.308
  0.312   0.317   0.326   0.349   0.359   0.375   0.383   0.419
  0.445   0.466   0.495   0.532   0.537   0.554   0.565   0.568
  0.599   0.623   0.632   0.653   0.661   0.670   0.670   0.680
  0.703   0.716   0.722   0.724   0.735   0.751   0.752   0.792
  0.799   0.817   0.830   0.846   0.885   0.919   0.934   0.952
  0.954   0.955   0.962   0.975   0.988   0.994   1.007   1.010
  1.035   1.038   1.077   1.081   1.102   1.107   1.129   1.167
  1.170   1.186   1.187   1.248   1.251   1.331   1.339   1.355
  1.356   1.368   1.379   1.444   1.493   1.508   1.552   1.588
  1.654   1.693   1.716   1.781   1.863   1.873   1.887   1.912
  1.923   1.968   1.987   2.011   2.020   2.071   2.080   2.130
  2.136   2.176   2.179   2.238   2.243   2.285   2.295   2.363
  2.366   2.419   2.454   2.466   2.473   2.506   2.506   2.520
  2.540   2.572   2.578   2.595   2.681   2.690   2.721   2.761
  2.793   2.855   2.936   2.971   3.140   3.212   3.270   3.272
  3.396   3.430   3.709   3.754   3.943   4.013   4.234   4.300
  4.301   4.327   4.402   4.541   4.646   4.730
 --------------------------------------------------------------
 
          Ground-State Mulliken Net Atomic Charges

     Atom                 Charge (a.u.)
  ----------------------------------------
      1 S                    -0.110203
      2 C                     0.004003
      3 H                     0.196507
      4 C                    -0.339631
      5 H                     0.120946
      6 C                     0.315993
      7 H                     0.118427
      8 C                    -0.307662
      9 C                    -0.303343
     10 C                     0.316940
     11 H                     0.118510
     12 C                    -0.339806
     13 H                     0.120937
     14 C                     0.003706
     15 H                     0.196522
     16 S                    -0.111846
  ----------------------------------------
  Sum of atomic charges =     0.000000

 -----------------------------------------------------------------
                    Cartesian Multipole Moments
 -----------------------------------------------------------------
    Charge (ESU x 10^10)
                -0.0000
    Dipole Moment (Debye)
         X       0.4850      Y      -0.2089      Z      -0.8798
       Tot       1.0261
    Quadrupole Moments (Debye-Ang)
        XX     -63.4412     XY      -0.8846     YY     -78.1824
        XZ       3.0934     YZ       2.0831     ZZ     -63.4493
    Octopole Moments (Debye-Ang^2)
       XXX     158.8273    XXY      -1.1180    XYY      63.6985
       YYY     -24.0450    XXZ     106.4857    XYZ      -0.4258
       YYZ     142.3290    XZZ      50.6569    YZZ     -20.2419
       ZZZ     351.4160
    Hexadecapole Moments (Debye-Ang^3)
      XXXX   -1826.1517   XXXY      29.1393   XXYY    -402.6480
      XYYY      74.5072   YYYY    -148.7772   XXXZ    -560.5559
      XXYZ      -2.9673   XYYZ    -244.4441   YYYZ      18.5615
      XXZZ    -636.2962   XYZZ      40.3733   YYZZ    -452.9676
      XZZZ    -598.0796   YZZZ      87.5810   ZZZZ   -2139.0565
 -----------------------------------------------------------------
 Calculating analytic gradient of the SCF energy
 Gradient of SCF Energy
            1           2           3           4           5           6
    1   0.0000299   0.0002157   0.0000792   0.0000417  -0.0000379  -0.0003144
    2   0.0001641   0.0001068  -0.0000070   0.0002106  -0.0000133  -0.0002849
    3   0.0003919   0.0001505   0.0000011   0.0003533   0.0000444   0.0005848
            7           8           9          10          11          12
    1  -0.0000406   0.0005064   0.0006215  -0.0001895   0.0001484  -0.0003816
    2  -0.0002507  -0.0002054  -0.0002794   0.0005330   0.0002091  -0.0000887
    3  -0.0000755  -0.0010588  -0.0010764   0.0004667  -0.0000593   0.0001799
           13          14          15          16
    1   0.0000011  -0.0003647  -0.0000316  -0.0002836
    2   0.0000183  -0.0000857  -0.0000142  -0.0000126
    3   0.0000356  -0.0000733  -0.0000893   0.0002245
 Max gradient component =       1.076E-03
 RMS gradient           =       3.278E-04
 Gradient time:  CPU 2.10 s  wall 2.09 s
 Geometry Optimization Parameters
   NAtoms,    NIC,     NZ,  NCons,   NDum,   NFix, NCnnct, MaxDiis
       16     111       0       1       0       0       0       0

 Cartesian Hessian Update
 Hessian Updated using BFGS Update


** CONSTRAINED OPTIMIZATION IN DELOCALIZED INTERNAL COORDINATES **
   Searching for a Minimum

   Optimization Cycle:   2

                       Coordinates (Angstroms)
     ATOM                X               Y               Z
      1  S         0.0233460932    0.0574409619    0.0283388033
      2  C         1.7570962665    0.0242027127   -0.0007347901
      3  H         2.3131974882    0.0347671707    0.9264951084
      4  C         2.2370613840   -0.0160912602   -1.2834689695
      5  H         3.2938797906   -0.0420767067   -1.5234605411
      6  C         1.2027566841   -0.0062874111   -2.2635310250
      7  H         1.3864978706   -0.0095973045   -3.3317909036
      8  C        -0.0672623740    0.0363408530   -1.7254023376
      9  C        -1.3400355959    0.0524338060   -2.4302219358
     10  C        -1.5990468085   -0.3408474779   -3.7273805642
     11  H        -0.8351090564   -0.7468587829   -4.3805812301
     12  C        -2.9638355555   -0.1883010572   -4.1077160854
     13  H        -3.3494607057   -0.4518190257   -5.0860263557
     14  C        -3.7450037667    0.3154473862   -3.1011247445
     15  H        -4.8062145352    0.5227428299   -3.1117353061
     16  S        -2.8153123794    0.6291762158   -1.6711787430
   Point Group: c1    Number of degrees of freedom:    42


   Energy is  -1104.839441276

              Constraints and their Current Values
                                        Value     Constraint
   Dihedral:        6   8   9  10       20.000       20.000
 Hessian Updated using BFGS Update

 40 Hessian modes will be used to form the next step
  Hessian Eigenvalues:
     0.037042    0.045000    0.045000    0.045000    0.045001    0.045002
     0.045002    0.045004    0.045005    0.045011    0.045130    0.159608
     0.159949    0.159964    0.159992    0.160000    0.160002    0.198234
     0.221283    0.222588    0.237837    0.249995    0.255615    0.294443
     0.309142    0.312578    0.314736    0.354700    0.354827    0.355130
     0.355140    0.358222    0.358327    0.388897    0.404871    0.409902
     0.463593    0.464289    0.497928    0.499053

 Minimum Search - Taking Simple RFO Step
 Searching for Lamda that Minimizes Along All modes
 Value Taken    Lamda =  -0.00007090
 Step Taken.  Stepsize is  0.036184

                             Maximum     Tolerance    Cnvgd?
         Gradient           0.001818      0.000300      NO
         Displacement       0.027459      0.001200      NO
         Energy change     -0.000235      0.000001      NO


 New Cartesian Coordinates Obtained by Inverse Iteration

 Displacement from previous Coordinates is:  0.118143
 ----------------------------------------------------------------
             Standard Nuclear Orientation (Angstroms)
    I     Atom           X                Y                Z
 ----------------------------------------------------------------
    1      S       0.0281951978     0.0531098863     0.0379058033
    2      C       1.7615370839     0.0178114827    -0.0052222910
    3      H       2.3238168286     0.0225967740     0.9182203179
    4      C       2.2330354231    -0.0150203211    -1.2915837142
    5      H       3.2881367767    -0.0398165423    -1.5395153979
    6      C       1.1919239709     0.0021937235    -2.2632694233
    7      H       1.3675898183     0.0065863127    -3.3327095868
    8      C      -0.0739950368     0.0412813878    -1.7140185474
    9      C      -1.3466846500     0.0516819784    -2.4172942787
   10      C      -1.5951030702    -0.3472845237    -3.7154197733
   11      H      -0.8274379795    -0.7591924523    -4.3602545791
   12      C      -2.9551007798    -0.1907931799    -4.1080874437
   13      H      -3.3335527698    -0.4567626553    -5.0886260852
   14      C      -3.7422493718     0.3194314655    -3.1091773301
   15      H      -4.8025205609     0.5304780248    -3.1287683475
   16      S      -2.8250360805     0.6343715488    -1.6716989429
 ----------------------------------------------------------------
 Nuclear Repulsion Energy =   631.4362461416 hartrees
 There are       43 alpha and       43 beta electrons
 Applying Cartesian multipole field
    Component          Value
    ---------          -----
     (2,0,0)        1.00000E-11
     (0,2,0)        2.00000E-11
     (0,0,2)       -3.00000E-11
 Nucleus-field energy     =    -0.0000000332 hartrees
 Requested basis set is 6-31++G(d,p)
 There are 76 shells and 234 basis functions
 A cutoff of  1.0D-12 yielded   2529 shell pairs
 There are     24877 function pairs

 Q-Chem warning in module /project/projectdirs/jcesr/qchem/qc44/cnl_qc441/compile/cori/qc_src/libqints/qchem/aobasis.C, line 68:

 Using reconstructed effective core potential

 Smallest overlap matrix eigenvalue = 8.88E-07
 Linear dependence detected in AO basis
 Number of orthogonalized atomic orbitals = 233
 Maximum deviation from orthogonality = 1.468E-10
 Guess MOs from SCF MO coefficient file
 Reading MOs from coefficient file
 Reading MOs from coefficient file
 A restricted hybrid HF-DFT SCF calculation will be
 performed using Pulay DIIS extrapolation
 Exchange:     0.2000 Hartree-Fock + 0.0800 Slater + 0.7200 B88
 Correlation:  0.1900 VWN1RPA + 0.8100 LYP
 Using SG-1 standard quadrature grid
 SCF converges when DIIS error is below 1.0E-08
 Geometry optimization detected.  Setting ReadMinima to 0
 Setting SaveMinima to 0
 ---------------------------------------
  Cycle       Energy         DIIS Error
 ---------------------------------------
    1   -1104.8389591279      4.66E-04
    2   -1104.8393339310      1.35E-04
    3   -1104.8389274024      2.68E-04
    4   -1104.8394782219      2.43E-05
    5   -1104.8394822836      7.99E-06
    6   -1104.8394826659      3.29E-06
    7   -1104.8394827449      9.52E-07
    8   -1104.8394827521      2.74E-07
    9   -1104.8394827531      4.57E-08
   10   -1104.8394827528      9.84E-09 Convergence criterion met
 ---------------------------------------
 SCF time:  CPU 5.66 s  wall 5.45 s
 SCF   energy in the final basis set = -1104.8394827528
 Total energy in the final basis set = -1104.8394827528
 
 --------------------------------------------------------------
 
                    Orbital Energies (a.u.)
 --------------------------------------------------------------
 
 Alpha MOs
 -- Occupied --
-88.920 -88.920 -10.239 -10.239 -10.225 -10.225 -10.205 -10.205
-10.203 -10.203  -7.979  -7.979  -5.944  -5.944  -5.940  -5.940
 -5.937  -5.937  -0.900  -0.878  -0.771  -0.749  -0.737  -0.705
 -0.604  -0.579  -0.554  -0.533  -0.527  -0.477  -0.421  -0.418
 -0.408  -0.403  -0.401  -0.376  -0.374  -0.359  -0.344  -0.281
 -0.264  -0.259  -0.213
 -- Virtual --
 -0.057  -0.014  -0.004  -0.000   0.004   0.014   0.019   0.026
  0.027   0.037   0.038   0.046   0.048   0.059   0.062   0.070
  0.074   0.082   0.088   0.095   0.102   0.103   0.107   0.112
  0.115   0.124   0.126   0.130   0.137   0.139   0.141   0.145
  0.145   0.152   0.161   0.162   0.167   0.178   0.183   0.185
  0.187   0.194   0.195   0.208   0.213   0.221   0.221   0.241
  0.246   0.260   0.263   0.266   0.271   0.280   0.304   0.309
  0.312   0.317   0.325   0.349   0.359   0.375   0.382   0.419
  0.445   0.466   0.496   0.531   0.536   0.554   0.565   0.568
  0.600   0.624   0.632   0.653   0.661   0.669   0.670   0.680
  0.704   0.715   0.722   0.725   0.735   0.751   0.753   0.792
  0.798   0.817   0.830   0.846   0.885   0.919   0.935   0.952
  0.954   0.956   0.962   0.975   0.988   0.993   1.009   1.009
  1.035   1.040   1.078   1.081   1.101   1.106   1.129   1.167
  1.170   1.186   1.187   1.248   1.251   1.332   1.340   1.355
  1.356   1.367   1.379   1.442   1.493   1.509   1.552   1.585
  1.657   1.693   1.716   1.783   1.863   1.875   1.887   1.911
  1.924   1.968   1.987   2.012   2.020   2.071   2.080   2.132
  2.136   2.178   2.180   2.239   2.243   2.286   2.297   2.363
  2.366   2.419   2.455   2.466   2.473   2.505   2.506   2.520
  2.540   2.572   2.578   2.595   2.680   2.690   2.721   2.762
  2.795   2.857   2.935   2.969   3.140   3.212   3.270   3.272
  3.397   3.430   3.710   3.754   3.944   4.011   4.236   4.300
  4.301   4.328   4.402   4.541   4.646   4.730
 --------------------------------------------------------------
 
          Ground-State Mulliken Net Atomic Charges

     Atom                 Charge (a.u.)
  ----------------------------------------
      1 S                    -0.101350
      2 C                     0.001638
      3 H                     0.196067
      4 C                    -0.340273
      5 H                     0.120724
      6 C                     0.309810
      7 H                     0.118948
      8 C                    -0.307446
      9 C                    -0.303050
     10 C                     0.310135
     11 H                     0.119036
     12 C                    -0.339550
     13 H                     0.120731
     14 C                     0.001177
     15 H                     0.196113
     16 S                    -0.102710
  ----------------------------------------
  Sum of atomic charges =     0.000000

 -----------------------------------------------------------------
                    Cartesian Multipole Moments
 -----------------------------------------------------------------
    Charge (ESU x 10^10)
                -0.0000
    Dipole Moment (Debye)
         X       0.4858      Y      -0.2077      Z      -0.8820
       Tot       1.0282
    Quadrupole Moments (Debye-Ang)
        XX     -63.5104     XY      -0.9180     YY     -78.1545
        XZ       3.0776     YZ       2.0503     ZZ     -63.4630
    Octopole Moments (Debye-Ang^2)
       XXX     159.5068    XXY      -0.9939    XYY      63.7334
       YYY     -24.1142    XXZ     106.3901    XYZ      -0.4046
       YYZ     142.0458    XZZ      50.7347    YZZ     -20.2292
       ZZZ     350.9193
    Hexadecapole Moments (Debye-Ang^3)
      XXXX   -1829.0349   XXXY      29.1086   XXYY    -402.5785
      XYYY      75.2955   YYYY    -149.6234   XXXZ    -561.1630
      XXYZ      -3.5241   XYYZ    -244.2787   YYYZ      19.2522
      XXZZ    -635.7654   XYZZ      40.4796   YYZZ    -452.0965
      XZZZ    -597.9963   YZZZ      88.0131   ZZZZ   -2136.1785
 -----------------------------------------------------------------
 Calculating analytic gradient of the SCF energy
 Gradient of SCF Energy
            1           2           3           4           5           6
    1  -0.0000038  -0.0001821  -0.0000156  -0.0000179   0.0000102  -0.0000881
    2   0.0002507   0.0000754  -0.0000534   0.0000832  -0.0000131  -0.0002799
    3   0.0005418  -0.0001395  -0.0000384  -0.0001017  -0.0000563   0.0001026
            7           8           9          10          11          12
    1   0.0000557   0.0001064   0.0001506   0.0000360   0.0000289   0.0000478
    2  -0.0002067   0.0001149  -0.0001904   0.0002741   0.0001622  -0.0000881
    3  -0.0000145  -0.0003161  -0.0002434   0.0000291  -0.0001142  -0.0000020
           13          14          15          16
    1   0.0000594   0.0001929   0.0000609  -0.0004411
    2  -0.0000238  -0.0001103   0.0000458  -0.0000405
    3  -0.0000520   0.0000880  -0.0000404   0.0003570
 Max gradient component =       5.418E-04
 RMS gradient           =       1.676E-04
 Gradient time:  CPU 2.13 s  wall 2.10 s
 Geometry Optimization Parameters
   NAtoms,    NIC,     NZ,  NCons,   NDum,   NFix, NCnnct, MaxDiis
       16     111       0       1       0       0       0       0

 Cartesian Hessian Update
 Hessian Updated using BFGS Update


** CONSTRAINED OPTIMIZATION IN DELOCALIZED INTERNAL COORDINATES **
   Searching for a Minimum

   Optimization Cycle:   3

                       Coordinates (Angstroms)
     ATOM                X               Y               Z
      1  S         0.0281951978    0.0531098863    0.0379058033
      2  C         1.7615370839    0.0178114827   -0.0052222910
      3  H         2.3238168286    0.0225967740    0.9182203179
      4  C         2.2330354231   -0.0150203211   -1.2915837142
      5  H         3.2881367767   -0.0398165423   -1.5395153979
      6  C         1.1919239709    0.0021937235   -2.2632694233
      7  H         1.3675898183    0.0065863127   -3.3327095868
      8  C        -0.0739950368    0.0412813878   -1.7140185474
      9  C        -1.3466846500    0.0516819784   -2.4172942787
     10  C        -1.5951030702   -0.3472845237   -3.7154197733
     11  H        -0.8274379795   -0.7591924523   -4.3602545791
     12  C        -2.9551007798   -0.1907931799   -4.1080874437
     13  H        -3.3335527698   -0.4567626553   -5.0886260852
     14  C        -3.7422493718    0.3194314655   -3.1091773301
     15  H        -4.8025205609    0.5304780248   -3.1287683475
     16  S        -2.8250360805    0.6343715488   -1.6716989429
   Point Group: c1    Number of degrees of freedom:    42


   Energy is  -1104.839482753

              Constraints and their Current Values
                                        Value     Constraint
   Dihedral:        6   8   9  10       20.000       20.000
 Hessian Updated using BFGS Update

 39 Hessian modes will be used to form the next step
  Hessian Eigenvalues:
     0.022054    0.045000    0.045001    0.045001    0.045002    0.045003
     0.045005    0.045011    0.045041    0.045980    0.159695    0.159949
     0.159965    0.159992    0.160000    0.160711    0.221271    0.222201
     0.237828    0.240406    0.250016    0.274352    0.294442    0.311311
     0.312638    0.314119    0.354670    0.354816    0.355130    0.355225
     0.358269    0.358480    0.388767    0.404895    0.427458    0.462982
     0.463635    0.497937    0.499816

 Minimum Search - Taking Simple RFO Step
 Searching for Lamda that Minimizes Along All modes
 Value Taken    Lamda =  -0.00002002
 Step Taken.  Stepsize is  0.027409

                             Maximum     Tolerance    Cnvgd?
         Gradient           0.000601      0.000300      NO
         Displacement       0.023307      0.001200      NO
         Energy change     -0.000041      0.000001      NO


 New Cartesian Coordinates Obtained by Inverse Iteration

 Displacement from previous Coordinates is:  0.052787
 ----------------------------------------------------------------
             Standard Nuclear Orientation (Angstroms)
    I     Atom           X                Y                Z
 ----------------------------------------------------------------
    1      S       0.0301505504     0.0470793734     0.0391520341
    2      C       1.7634830762     0.0135273518    -0.0058275441
    3      H       2.3268042315     0.0155447543     0.9170485250
    4      C       2.2328239384    -0.0132056961    -1.2931480665
    5      H       3.2876183497    -0.0352836096    -1.5425417537
    6      C       1.1900056258     0.0078427718    -2.2632264968
    7      H       1.3635813121     0.0190107394    -3.3328594792
    8      C      -0.0752802979     0.0437956462    -1.7115225579
    9      C      -1.3485745854     0.0493415366    -2.4138744331
   10      C      -1.5952704016    -0.3525796872    -3.7117872187
   11      H      -0.8277256235    -0.7703059339    -4.3528556308
   12      C      -2.9539767356    -0.1926404983    -4.1081164437
   13      H      -3.3316307650    -0.4608552820    -5.0883186227
   14      C      -3.7418341464     0.3232044075    -3.1126333969
   15      H      -4.8015789943     0.5369939354    -3.1344355296
   16      S      -2.8260407344     0.6392031006    -1.6745730056
 ----------------------------------------------------------------
 Nuclear Repulsion Energy =   631.4014304076 hartrees
 There are       43 alpha and       43 beta electrons
 Applying Cartesian multipole field
    Component          Value
    ---------          -----
     (2,0,0)        1.00000E-11
     (0,2,0)        2.00000E-11
     (0,0,2)       -3.00000E-11
 Nucleus-field energy     =    -0.0000000332 hartrees
 Requested basis set is 6-31++G(d,p)
 There are 76 shells and 234 basis functions
 A cutoff of  1.0D-12 yielded   2529 shell pairs
 There are     24877 function pairs

 Q-Chem warning in module /project/projectdirs/jcesr/qchem/qc44/cnl_qc441/compile/cori/qc_src/libqints/qchem/aobasis.C, line 68:

 Using reconstructed effective core potential

 Smallest overlap matrix eigenvalue = 8.79E-07
 Linear dependence detected in AO basis
 Number of orthogonalized atomic orbitals = 233
 Maximum deviation from orthogonality = 6.630E-11
 Guess MOs from SCF MO coefficient file
 Reading MOs from coefficient file
 Reading MOs from coefficient file
 A restricted hybrid HF-DFT SCF calculation will be
 performed using Pulay DIIS extrapolation
 Exchange:     0.2000 Hartree-Fock + 0.0800 Slater + 0.7200 B88
 Correlation:  0.1900 VWN1RPA + 0.8100 LYP
 Using SG-1 standard quadrature grid
 SCF converges when DIIS error is below 1.0E-08
 Geometry optimization detected.  Setting ReadMinima to 0
 Setting SaveMinima to 0
 ---------------------------------------
  Cycle       Energy         DIIS Error
 ---------------------------------------
    1   -1104.8401176166      2.14E-04
    2   -1104.8394760459      5.01E-05
    3   -1104.8394129238      1.04E-04
    4   -1104.8394968374      9.31E-06
    5   -1104.8394974165      3.60E-06
    6   -1104.8394974935      1.57E-06
    7   -1104.8394975117      4.13E-07
    8   -1104.8394975134      1.18E-07
    9   -1104.8394975154      1.94E-08
   10   -1104.8394975154      6.49E-09 Convergence criterion met
 ---------------------------------------
 SCF time:  CPU 5.61 s  wall 5.25 s
 SCF   energy in the final basis set = -1104.8394975154
 Total energy in the final basis set = -1104.8394975154
 
 --------------------------------------------------------------
 
                    Orbital Energies (a.u.)
 --------------------------------------------------------------
 
 Alpha MOs
 -- Occupied --
-88.920 -88.920 -10.239 -10.239 -10.225 -10.225 -10.205 -10.205
-10.203 -10.203  -7.979  -7.979  -5.944  -5.944  -5.940  -5.940
 -5.937  -5.937  -0.900  -0.878  -0.771  -0.749  -0.737  -0.705
 -0.604  -0.579  -0.554  -0.533  -0.527  -0.477  -0.421  -0.418
 -0.409  -0.403  -0.401  -0.377  -0.374  -0.359  -0.344  -0.281
 -0.264  -0.259  -0.213
 -- Virtual --
 -0.057  -0.014  -0.004  -0.000   0.004   0.014   0.019   0.026
  0.027   0.037   0.038   0.046   0.048   0.059   0.062   0.070
  0.074   0.082   0.088   0.095   0.102   0.103   0.107   0.112
  0.115   0.124   0.126   0.130   0.137   0.139   0.140   0.145
  0.145   0.152   0.161   0.162   0.166   0.179   0.183   0.185
  0.187   0.194   0.194   0.208   0.213   0.221   0.221   0.241
  0.246   0.259   0.263   0.266   0.271   0.278   0.304   0.309
  0.312   0.317   0.324   0.349   0.358   0.375   0.383   0.419
  0.445   0.466   0.496   0.531   0.536   0.554   0.565   0.568
  0.601   0.625   0.631   0.653   0.662   0.668   0.671   0.680
  0.704   0.715   0.722   0.725   0.735   0.750   0.753   0.792
  0.797   0.817   0.830   0.847   0.885   0.918   0.936   0.952
  0.953   0.956   0.962   0.974   0.988   0.992   1.009   1.009
  1.036   1.041   1.077   1.081   1.101   1.106   1.129   1.167
  1.170   1.184   1.187   1.247   1.251   1.331   1.340   1.355
  1.356   1.367   1.379   1.441   1.492   1.510   1.552   1.584
  1.659   1.693   1.717   1.783   1.863   1.875   1.887   1.911
  1.924   1.967   1.986   2.012   2.020   2.071   2.079   2.133
  2.137   2.180   2.180   2.238   2.242   2.285   2.297   2.363
  2.366   2.419   2.455   2.466   2.472   2.505   2.507   2.520
  2.540   2.571   2.578   2.595   2.680   2.690   2.721   2.762
  2.795   2.856   2.934   2.968   3.140   3.212   3.270   3.272
  3.397   3.430   3.710   3.754   3.944   4.011   4.236   4.299
  4.301   4.327   4.402   4.540   4.646   4.729
 --------------------------------------------------------------
 
          Ground-State Mulliken Net Atomic Charges

     Atom                 Charge (a.u.)
  ----------------------------------------
      1 S                    -0.098828
      2 C                     0.003515
      3 H                     0.196017
      4 C                    -0.343972
      5 H                     0.120569
      6 C                     0.312983
      7 H                     0.119800
      8 C                    -0.312159
      9 C                    -0.307976
     10 C                     0.313370
     11 H                     0.119902
     12 C                    -0.342906
     13 H                     0.120579
     14 C                     0.003165
     15 H                     0.196106
     16 S                    -0.100164
  ----------------------------------------
  Sum of atomic charges =     0.000000

 -----------------------------------------------------------------
                    Cartesian Multipole Moments
 -----------------------------------------------------------------
    Charge (ESU x 10^10)
                 0.0000
    Dipole Moment (Debye)
         X       0.4853      Y      -0.2064      Z      -0.8815
       Tot       1.0273
    Quadrupole Moments (Debye-Ang)
        XX     -63.5124     XY      -0.9248     YY     -78.1339
        XZ       3.0994     YZ       2.0304     ZZ     -63.4861
    Octopole Moments (Debye-Ang^2)
       XXX     159.5467    XXY      -0.8556    XYY      63.6752
       YYY     -24.0711    XXZ     106.3321    XYZ      -0.4318
       YYZ     141.9717    XZZ      50.6634    YZZ     -20.2240
       ZZZ     351.1106
    Hexadecapole Moments (Debye-Ang^3)
      XXXX   -1829.5630   XXXY      29.0887   XXYY    -402.5203
      XYYY      75.7186   YYYY    -150.3903   XXXZ    -561.2262
      XXYZ      -3.8340   XYYZ    -244.2690   YYYZ      19.7563
      XXZZ    -635.4217   XYZZ      40.7307   YYZZ    -451.8712
      XZZZ    -598.3008   YZZZ      88.5491   ZZZZ   -2137.3679
 -----------------------------------------------------------------
 Calculating analytic gradient of the SCF energy
 Gradient of SCF Energy
            1           2           3           4           5           6
    1   0.0001664  -0.0000238  -0.0000047   0.0000323   0.0000019  -0.0000503
    2   0.0002202   0.0000788  -0.0000580  -0.0000075  -0.0000024  -0.0004236
    3  -0.0000160  -0.0000260   0.0000101  -0.0000062  -0.0000014  -0.0001179
            7           8           9          10          11          12
    1   0.0000254  -0.0001907  -0.0000618   0.0002063  -0.0000192  -0.0000206
    2  -0.0001276   0.0006211  -0.0004760   0.0003313   0.0001104   0.0000090
    3   0.0000372   0.0000533   0.0003915  -0.0001631  -0.0000460  -0.0000202
           13          14          15          16
    1   0.0000097   0.0000440   0.0000084  -0.0001234
    2  -0.0000086  -0.0000970   0.0000731  -0.0002433
    3  -0.0000077   0.0000159  -0.0000259  -0.0000778
 Max gradient component =       6.211E-04
 RMS gradient           =       1.710E-04
 Gradient time:  CPU 2.09 s  wall 2.09 s
 Geometry Optimization Parameters
   NAtoms,    NIC,     NZ,  NCons,   NDum,   NFix, NCnnct, MaxDiis
       16     111       0       1       0       0       0       0

 Cartesian Hessian Update
 Hessian Updated using BFGS Update


** CONSTRAINED OPTIMIZATION IN DELOCALIZED INTERNAL COORDINATES **
   Searching for a Minimum

   Optimization Cycle:   4

                       Coordinates (Angstroms)
     ATOM                X               Y               Z
      1  S         0.0301505504    0.0470793734    0.0391520341
      2  C         1.7634830762    0.0135273518   -0.0058275441
      3  H         2.3268042315    0.0155447543    0.9170485250
      4  C         2.2328239384   -0.0132056961   -1.2931480665
      5  H         3.2876183497   -0.0352836096   -1.5425417537
      6  C         1.1900056258    0.0078427718   -2.2632264968
      7  H         1.3635813121    0.0190107394   -3.3328594792
      8  C        -0.0752802979    0.0437956462   -1.7115225579
      9  C        -1.3485745854    0.0493415366   -2.4138744331
     10  C        -1.5952704016   -0.3525796872   -3.7117872187
     11  H        -0.8277256235   -0.7703059339   -4.3528556308
     12  C        -2.9539767356   -0.1926404983   -4.1081164437
     13  H        -3.3316307650   -0.4608552820   -5.0883186227
     14  C        -3.7418341464    0.3232044075   -3.1126333969
     15  H        -4.8015789943    0.5369939354   -3.1344355296
     16  S        -2.8260407344    0.6392031006   -1.6745730056
   Point Group: c1    Number of degrees of freedom:    42


   Energy is  -1104.839497515

              Constraints and their Current Values
                                        Value     Constraint
   Dihedral:        6   8   9  10       20.000       20.000
 Hessian Updated using BFGS Update

 41 Hessian modes will be used to form the next step
  Hessian Eigenvalues:
     0.010312    0.045000    0.045000    0.045000    0.045001    0.045002
     0.045003    0.045004    0.045011    0.045014    0.045017    0.046122
     0.159841    0.159949    0.159992    0.160000    0.160295    0.160564
     0.221281    0.222387    0.237834    0.246156    0.250005    0.288109
     0.294448    0.308564    0.312618    0.316512    0.354784    0.355024
     0.355130    0.355429    0.358282    0.358925    0.388997    0.404925
     0.435149    0.463626    0.473350    0.497936    0.499961

 Minimum Search - Taking Simple RFO Step
 Searching for Lamda that Minimizes Along All modes
 Value Taken    Lamda =  -0.00001934
 Step Taken.  Stepsize is  0.039345

                             Maximum     Tolerance    Cnvgd?
         Gradient           0.000759      0.000300      NO
         Displacement       0.033297      0.001200      NO
         Energy change     -0.000015      0.000001      NO


 New Cartesian Coordinates Obtained by Inverse Iteration

 Displacement from previous Coordinates is:  0.067687
 ----------------------------------------------------------------
             Standard Nuclear Orientation (Angstroms)
    I     Atom           X                Y                Z
 ----------------------------------------------------------------
    1      S       0.0300086924     0.0366259182     0.0384856477
    2      C       1.7634317912     0.0077440259    -0.0061873517
    3      H       2.3264817147     0.0070578107     0.9168506581
    4      C       2.2328079612    -0.0099786423    -1.2937451555
    5      H       3.2877198129    -0.0271698238    -1.5429875579
    6      C       1.1900732065     0.0149034901    -2.2638399410
    7      H       1.3630513691     0.0357062286    -3.3334252218
    8      C      -0.0751794972     0.0465585067    -1.7114629621
    9      C      -1.3493302782     0.0454476545    -2.4126130191
   10      C      -1.5962938224    -0.3598199743    -3.7095950093
   11      H      -0.8304049720    -0.7861658731    -4.3469635246
   12      C      -2.9540291105    -0.1954400863    -4.1074000066
   13      H      -3.3328444120    -0.4673749486    -5.0861174125
   14      C      -3.7402257406     0.3288923655    -3.1148816357
   15      H      -4.7993150447     0.5458182776    -3.1374478650
   16      S      -2.8233968703     0.6478679806    -1.6781892631
 ----------------------------------------------------------------
 Nuclear Repulsion Energy =   631.4318509536 hartrees
 There are       43 alpha and       43 beta electrons
 Applying Cartesian multipole field
    Component          Value
    ---------          -----
     (2,0,0)        1.00000E-11
     (0,2,0)        2.00000E-11
     (0,0,2)       -3.00000E-11
 Nucleus-field energy     =    -0.0000000332 hartrees
 Requested basis set is 6-31++G(d,p)
 There are 76 shells and 234 basis functions
 A cutoff of  1.0D-12 yielded   2529 shell pairs
 There are     24877 function pairs

 Q-Chem warning in module /project/projectdirs/jcesr/qchem/qc44/cnl_qc441/compile/cori/qc_src/libqints/qchem/aobasis.C, line 68:

 Using reconstructed effective core potential

 Smallest overlap matrix eigenvalue = 8.73E-07
 Linear dependence detected in AO basis
 Number of orthogonalized atomic orbitals = 233
 Maximum deviation from orthogonality = 1.606E-10
 Guess MOs from SCF MO coefficient file
 Reading MOs from coefficient file
 Reading MOs from coefficient file
 A restricted hybrid HF-DFT SCF calculation will be
 performed using Pulay DIIS extrapolation
 Exchange:     0.2000 Hartree-Fock + 0.0800 Slater + 0.7200 B88
 Correlation:  0.1900 VWN1RPA + 0.8100 LYP
 Using SG-1 standard quadrature grid
 SCF converges when DIIS error is below 1.0E-08
 Geometry optimization detected.  Setting ReadMinima to 0
 Setting SaveMinima to 0
 ---------------------------------------
  Cycle       Energy         DIIS Error
 ---------------------------------------
    1   -1104.8411092122      2.87E-04
    2   -1104.8394942933      4.05E-05
    3   -1104.8394522905      8.47E-05
    4   -1104.8395090204      8.97E-06
    5   -1104.8395095500      3.81E-06
    6   -1104.8395096326      2.04E-06
    7   -1104.8395096630      4.48E-07
    8   -1104.8395096631      1.40E-07
    9   -1104.8395096655      2.37E-08
   10   -1104.8395096652      1.10E-08
   11   -1104.8395096649      2.77E-09 Convergence criterion met
 ---------------------------------------
 SCF time:  CPU 6.10 s  wall 5.81 s
 SCF   energy in the final basis set = -1104.8395096649
 Total energy in the final basis set = -1104.8395096649
 
 --------------------------------------------------------------
 
                    Orbital Energies (a.u.)
 --------------------------------------------------------------
 
 Alpha MOs
 -- Occupied --
-88.920 -88.920 -10.239 -10.239 -10.225 -10.225 -10.205 -10.205
-10.203 -10.203  -7.979  -7.979  -5.944  -5.944  -5.940  -5.940
 -5.937  -5.937  -0.900  -0.878  -0.771  -0.749  -0.737  -0.705
 -0.604  -0.579  -0.554  -0.533  -0.527  -0.477  -0.421  -0.418
 -0.409  -0.403  -0.401  -0.377  -0.374  -0.359  -0.344  -0.281
 -0.264  -0.259  -0.213
 -- Virtual --
 -0.057  -0.013  -0.004  -0.000   0.004   0.014   0.019   0.026
  0.027   0.037   0.038   0.046   0.047   0.059   0.061   0.070
  0.074   0.081   0.088   0.095   0.102   0.104   0.107   0.112
  0.115   0.124   0.126   0.130   0.137   0.139   0.140   0.145
  0.145   0.152   0.162   0.162   0.166   0.179   0.182   0.185
  0.187   0.194   0.194   0.208   0.213   0.220   0.221   0.241
  0.247   0.258   0.263   0.265   0.271   0.277   0.304   0.309
  0.312   0.317   0.324   0.350   0.358   0.374   0.383   0.420
  0.445   0.466   0.496   0.531   0.536   0.553   0.564   0.569
  0.601   0.625   0.629   0.653   0.662   0.667   0.671   0.680
  0.705   0.714   0.722   0.726   0.736   0.750   0.753   0.792
  0.796   0.817   0.830   0.847   0.885   0.918   0.936   0.952
  0.953   0.957   0.962   0.972   0.989   0.990   1.009   1.010
  1.036   1.042   1.077   1.081   1.100   1.106   1.128   1.167
  1.170   1.183   1.187   1.246   1.251   1.330   1.339   1.355
  1.356   1.367   1.380   1.440   1.492   1.511   1.552   1.581
  1.663   1.693   1.718   1.783   1.864   1.875   1.887   1.911
  1.924   1.965   1.985   2.013   2.020   2.070   2.078   2.133
  2.137   2.180   2.182   2.238   2.242   2.284   2.298   2.363
  2.366   2.419   2.455   2.465   2.473   2.505   2.507   2.520
  2.540   2.571   2.579   2.595   2.680   2.690   2.721   2.762
  2.794   2.856   2.934   2.967   3.140   3.212   3.270   3.272
  3.397   3.430   3.710   3.753   3.945   4.010   4.237   4.299
  4.301   4.327   4.402   4.540   4.646   4.729
 --------------------------------------------------------------
 
          Ground-State Mulliken Net Atomic Charges

     Atom                 Charge (a.u.)
  ----------------------------------------
      1 S                    -0.097030
      2 C                     0.006084
      3 H                     0.195891
      4 C                    -0.348885
      5 H                     0.120346
      6 C                     0.320482
      7 H                     0.121141
      8 C                    -0.320384
      9 C                    -0.316390
     10 C                     0.321047
     11 H                     0.121256
     12 C                    -0.347366
     13 H                     0.120365
     14 C                     0.005866
     15 H                     0.196029
     16 S                    -0.098453
  ----------------------------------------
  Sum of atomic charges =     0.000000

 -----------------------------------------------------------------
                    Cartesian Multipole Moments
 -----------------------------------------------------------------
    Charge (ESU x 10^10)
                -0.0000
    Dipole Moment (Debye)
         X       0.4841      Y      -0.2047      Z      -0.8793
       Tot       1.0244
    Quadrupole Moments (Debye-Ang)
        XX     -63.5215     XY      -0.9220     YY     -78.1018
        XZ       3.1112     YZ       2.0139     ZZ     -63.5164
    Octopole Moments (Debye-Ang^2)
       XXX     159.5308    XXY      -0.6633    XYY      63.5590
       YYY     -23.9930    XXZ     106.3429    XYZ      -0.5201
       YYZ     141.9089    XZZ      50.6080    YZZ     -20.2711
       ZZZ     351.5236
    Hexadecapole Moments (Debye-Ang^3)
      XXXX   -1828.8473   XXXY      29.3465   XXYY    -402.1319
      XYYY      76.3561   YYYY    -151.6787   XXXZ    -561.3397
      XXYZ      -4.0551   XYYZ    -244.0984   YYYZ      20.5119
      XXZZ    -635.0799   XYZZ      41.3395   YYZZ    -451.6604
      XZZZ    -598.6470   YZZZ      89.6226   ZZZZ   -2139.6666
 -----------------------------------------------------------------
 Calculating analytic gradient of the SCF energy
 Gradient of SCF Energy
            1           2           3           4           5           6
    1   0.0000950   0.0000523  -0.0000333  -0.0000372  -0.0000063   0.0001097
    2   0.0001065   0.0000845  -0.0000381  -0.0000632   0.0000098  -0.0007621
    3  -0.0003519   0.0000582   0.0000275  -0.0000534   0.0000205  -0.0001999
            7           8           9          10          11          12
    1   0.0000065  -0.0001136  -0.0004816   0.0002400  -0.0000292   0.0000952
    2  -0.0000119   0.0014899  -0.0012251   0.0006085   0.0000040   0.0000364
    3   0.0000305   0.0003324   0.0007941  -0.0004512   0.0000043  -0.0000214
           13          14          15          16
    1  -0.0000157  -0.0000721   0.0000051   0.0001850
    2  -0.0000085  -0.0000673   0.0000680  -0.0002315
    3   0.0000175   0.0000129   0.0000133  -0.0002333
 Max gradient component =       1.490E-03
 RMS gradient           =       3.626E-04
 Gradient time:  CPU 2.07 s  wall 2.08 s
 Geometry Optimization Parameters
   NAtoms,    NIC,     NZ,  NCons,   NDum,   NFix, NCnnct, MaxDiis
       16     111       0       1       0       0       0       0

 Cartesian Hessian Update
 Hessian Updated using BFGS Update


** CONSTRAINED OPTIMIZATION IN DELOCALIZED INTERNAL COORDINATES **
   Searching for a Minimum

   Optimization Cycle:   5

                       Coordinates (Angstroms)
     ATOM                X               Y               Z
      1  S         0.0300086924    0.0366259182    0.0384856477
      2  C         1.7634317912    0.0077440259   -0.0061873517
      3  H         2.3264817147    0.0070578107    0.9168506581
      4  C         2.2328079612   -0.0099786423   -1.2937451555
      5  H         3.2877198129   -0.0271698238   -1.5429875579
      6  C         1.1900732065    0.0149034901   -2.2638399410
      7  H         1.3630513691    0.0357062286   -3.3334252218
      8  C        -0.0751794972    0.0465585067   -1.7114629621
      9  C        -1.3493302782    0.0454476545   -2.4126130191
     10  C        -1.5962938224   -0.3598199743   -3.7095950093
     11  H        -0.8304049720   -0.7861658731   -4.3469635246
     12  C        -2.9540291105   -0.1954400863   -4.1074000066
     13  H        -3.3328444120   -0.4673749486   -5.0861174125
     14  C        -3.7402257406    0.3288923655   -3.1148816357
     15  H        -4.7993150447    0.5458182776   -3.1374478650
     16  S        -2.8233968703    0.6478679806   -1.6781892631
   Point Group: c1    Number of degrees of freedom:    42


   Energy is  -1104.839509665

              Constraints and their Current Values
                                        Value     Constraint
   Dihedral:        6   8   9  10       20.000       20.000
 Hessian Updated using BFGS Update

 41 Hessian modes will be used to form the next step
  Hessian Eigenvalues:
     0.008553    0.044787    0.045000    0.045000    0.045000    0.045001
     0.045002    0.045004    0.045008    0.045011    0.045099    0.045343
     0.159821    0.159956    0.159992    0.160000    0.160167    0.160792
     0.219070    0.221291    0.223662    0.237845    0.250006    0.284740
     0.294448    0.312509    0.314088    0.322373    0.354778    0.354961
     0.355130    0.355418    0.358282    0.358892    0.389002    0.404925
     0.435088    0.463625    0.474439    0.497931    0.501538

 Minimum Search - Taking Simple RFO Step
 Searching for Lamda that Minimizes Along All modes
 Value Taken    Lamda =  -0.00000439
 Step Taken.  Stepsize is  0.015130

                             Maximum     Tolerance    Cnvgd?
         Gradient           0.000414      0.000300      NO
         Displacement       0.011964      0.001200      NO
         Energy change     -0.000012      0.000001      NO


 New Cartesian Coordinates Obtained by Inverse Iteration

 Displacement from previous Coordinates is:  0.026628
 ----------------------------------------------------------------
             Standard Nuclear Orientation (Angstroms)
    I     Atom           X                Y                Z
 ----------------------------------------------------------------
    1      S       0.0291609302     0.0321269866     0.0374553700
    2      C       1.7626866641     0.0056322316    -0.0059140690
    3      H       2.3252041240     0.0045084077     0.9174476437
    4      C       2.2332127640    -0.0084934308    -1.2930672235
    5      H       3.2883775895    -0.0236125496    -1.5414262266
    6      C       1.1912995567     0.0171734219    -2.2640878518
    7      H       1.3650616391     0.0412184115    -3.3335131402
    8      C      -0.0743375548     0.0473476578    -1.7129707070
    9      C      -1.3487527515     0.0438504313    -2.4137071781
   10      C      -1.5972295540    -0.3622910055    -3.7099216063
   11      H      -0.8325126069    -0.7916856467    -4.3467104781
   12      C      -2.9550936958    -0.1965859485    -4.1069183925
   13      H      -3.3351511655    -0.4701089348    -5.0847258349
   14      C      -3.7396102765     0.3311579358    -3.1149014995
   15      H      -4.7985850765     0.5486634859    -3.1370257889
   16      S      -2.8211757861     0.6517714561    -1.6795326373
 ----------------------------------------------------------------
 Nuclear Repulsion Energy =   631.4303762976 hartrees
 There are       43 alpha and       43 beta electrons
 Applying Cartesian multipole field
    Component          Value
    ---------          -----
     (2,0,0)        1.00000E-11
     (0,2,0)        2.00000E-11
     (0,0,2)       -3.00000E-11
 Nucleus-field energy     =    -0.0000000332 hartrees
 Requested basis set is 6-31++G(d,p)
 There are 76 shells and 234 basis functions
 A cutoff of  1.0D-12 yielded   2529 shell pairs
 There are     24877 function pairs

 Q-Chem warning in module /project/projectdirs/jcesr/qchem/qc44/cnl_qc441/compile/cori/qc_src/libqints/qchem/aobasis.C, line 68:

 Using reconstructed effective core potential

 Smallest overlap matrix eigenvalue = 8.72E-07
 Linear dependence detected in AO basis
 Number of orthogonalized atomic orbitals = 233
 Maximum deviation from orthogonality = 7.328E-11
 Guess MOs from SCF MO coefficient file
 Reading MOs from coefficient file
 Reading MOs from coefficient file
 A restricted hybrid HF-DFT SCF calculation will be
 performed using Pulay DIIS extrapolation
 Exchange:     0.2000 Hartree-Fock + 0.0800 Slater + 0.7200 B88
 Correlation:  0.1900 VWN1RPA + 0.8100 LYP
 Using SG-1 standard quadrature grid
 SCF converges when DIIS error is below 1.0E-08
 Geometry optimization detected.  Setting ReadMinima to 0
 Setting SaveMinima to 0
 ---------------------------------------
  Cycle       Energy         DIIS Error
 ---------------------------------------
    1   -1104.8401816631      1.20E-04
    2   -1104.8395118841      6.67E-06
    3   -1104.8395117270      9.35E-06
    4   -1104.8395124184      2.53E-06
    5   -1104.8395124531      1.40E-06
    6   -1104.8395124652      4.32E-07
    7   -1104.8395124652      1.57E-07
    8   -1104.8395124668      3.87E-08
    9   -1104.8395124666      8.30E-09 Convergence criterion met
 ---------------------------------------
 SCF time:  CPU 5.04 s  wall 4.86 s
 SCF   energy in the final basis set = -1104.8395124666
 Total energy in the final basis set = -1104.8395124666
 
 --------------------------------------------------------------
 
                    Orbital Energies (a.u.)
 --------------------------------------------------------------
 
 Alpha MOs
 -- Occupied --
-88.920 -88.920 -10.239 -10.239 -10.225 -10.225 -10.205 -10.205
-10.203 -10.203  -7.979  -7.979  -5.944  -5.944  -5.940  -5.940
 -5.937  -5.937  -0.900  -0.878  -0.771  -0.749  -0.737  -0.705
 -0.604  -0.579  -0.554  -0.533  -0.527  -0.477  -0.421  -0.418
 -0.409  -0.403  -0.401  -0.377  -0.374  -0.359  -0.344  -0.280
 -0.264  -0.259  -0.213
 -- Virtual --
 -0.057  -0.013  -0.004  -0.000   0.004   0.014   0.018   0.026
  0.027   0.037   0.038   0.047   0.047   0.059   0.061   0.070
  0.074   0.081   0.088   0.095   0.102   0.104   0.107   0.112
  0.115   0.124   0.126   0.130   0.137   0.139   0.140   0.145
  0.145   0.152   0.161   0.162   0.166   0.179   0.182   0.185
  0.187   0.194   0.194   0.208   0.213   0.220   0.221   0.241
  0.247   0.258   0.263   0.265   0.270   0.276   0.304   0.309
  0.312   0.317   0.323   0.350   0.358   0.374   0.383   0.420
  0.445   0.466   0.496   0.531   0.536   0.553   0.564   0.569
  0.601   0.625   0.628   0.653   0.662   0.667   0.671   0.680
  0.705   0.714   0.722   0.726   0.737   0.750   0.752   0.792
  0.796   0.818   0.830   0.848   0.885   0.918   0.936   0.951
  0.953   0.957   0.962   0.972   0.989   0.990   1.009   1.010
  1.036   1.042   1.076   1.081   1.100   1.106   1.128   1.167
  1.170   1.182   1.187   1.245   1.251   1.329   1.339   1.355
  1.356   1.367   1.381   1.440   1.492   1.512   1.552   1.580
  1.664   1.693   1.718   1.783   1.864   1.875   1.887   1.911
  1.924   1.964   1.985   2.013   2.020   2.070   2.078   2.133
  2.137   2.180   2.183   2.238   2.242   2.283   2.298   2.363
  2.366   2.419   2.454   2.465   2.473   2.504   2.507   2.520
  2.540   2.571   2.579   2.594   2.680   2.690   2.721   2.762
  2.794   2.856   2.934   2.968   3.140   3.212   3.270   3.272
  3.397   3.429   3.710   3.753   3.945   4.010   4.237   4.300
  4.301   4.327   4.402   4.540   4.646   4.729
 --------------------------------------------------------------
 
          Ground-State Mulliken Net Atomic Charges

     Atom                 Charge (a.u.)
  ----------------------------------------
      1 S                    -0.097191
      2 C                     0.007338
      3 H                     0.195852
      4 C                    -0.350698
      5 H                     0.120264
      6 C                     0.324446
      7 H                     0.121641
      8 C                    -0.324074
      9 C                    -0.320077
     10 C                     0.325127
     11 H                     0.121756
     12 C                    -0.349104
     13 H                     0.120284
     14 C                     0.007143
     15 H                     0.195995
     16 S                    -0.098701
  ----------------------------------------
  Sum of atomic charges =     0.000000

 -----------------------------------------------------------------
                    Cartesian Multipole Moments
 -----------------------------------------------------------------
    Charge (ESU x 10^10)
                -0.0000
    Dipole Moment (Debye)
         X       0.4841      Y      -0.2047      Z      -0.8792
       Tot       1.0244
    Quadrupole Moments (Debye-Ang)
        XX     -63.5193     XY      -0.9145     YY     -78.0911
        XZ       3.1157     YZ       2.0132     ZZ     -63.5229
    Octopole Moments (Debye-Ang^2)
       XXX     159.4793    XXY      -0.6046    XYY      63.5080
       YYY     -23.9665    XXZ     106.3536    XYZ      -0.5734
       YYZ     141.9057    XZZ      50.5766    YZZ     -20.3121
       ZZZ     351.7167
    Hexadecapole Moments (Debye-Ang^3)
      XXXX   -1828.2306   XXXY      29.5852   XXYY    -401.9637
      XYYY      76.6210   YYYY    -152.2358   XXXZ    -561.3442
      XXYZ      -4.0299   XYYZ    -244.0290   YYYZ      20.8226
      XXZZ    -634.9662   XYZZ      41.6672   YYZZ    -451.6548
      XZZZ    -598.7549   YZZZ      90.1492   ZZZZ   -2140.8103
 -----------------------------------------------------------------
 Calculating analytic gradient of the SCF energy
 Gradient of SCF Energy
            1           2           3           4           5           6
    1   0.0000145   0.0000577  -0.0000235  -0.0000480   0.0000023   0.0000827
    2   0.0000359   0.0000625  -0.0000173  -0.0000320   0.0000091  -0.0009276
    3  -0.0002464   0.0000537   0.0000156  -0.0000357   0.0000177  -0.0000806
            7           8           9          10          11          12
    1  -0.0000050   0.0000460  -0.0004651   0.0001906  -0.0000158   0.0000815
    2   0.0000212   0.0018638  -0.0016910   0.0008136  -0.0000290   0.0000148
    3   0.0000181   0.0001071   0.0006774  -0.0004304   0.0000223   0.0000001
           13          14          15          16
    1  -0.0000167  -0.0000776   0.0000069   0.0001696
    2  -0.0000122  -0.0000423   0.0000378  -0.0001073
    3   0.0000090   0.0000001   0.0000064  -0.0001343
 Max gradient component =       1.864E-03
 RMS gradient           =       4.314E-04
 Gradient time:  CPU 2.07 s  wall 2.08 s
 Geometry Optimization Parameters
   NAtoms,    NIC,     NZ,  NCons,   NDum,   NFix, NCnnct, MaxDiis
       16     111       0       1       0       0       0       0

 Cartesian Hessian Update
 Hessian Updated using BFGS Update


** CONSTRAINED OPTIMIZATION IN DELOCALIZED INTERNAL COORDINATES **
   Searching for a Minimum

   Optimization Cycle:   6

                       Coordinates (Angstroms)
     ATOM                X               Y               Z
      1  S         0.0291609302    0.0321269866    0.0374553700
      2  C         1.7626866641    0.0056322316   -0.0059140690
      3  H         2.3252041240    0.0045084077    0.9174476437
      4  C         2.2332127640   -0.0084934308   -1.2930672235
      5  H         3.2883775895   -0.0236125496   -1.5414262266
      6  C         1.1912995567    0.0171734219   -2.2640878518
      7  H         1.3650616391    0.0412184115   -3.3335131402
      8  C        -0.0743375548    0.0473476578   -1.7129707070
      9  C        -1.3487527515    0.0438504313   -2.4137071781
     10  C        -1.5972295540   -0.3622910055   -3.7099216063
     11  H        -0.8325126069   -0.7916856467   -4.3467104781
     12  C        -2.9550936958   -0.1965859485   -4.1069183925
     13  H        -3.3351511655   -0.4701089348   -5.0847258349
     14  C        -3.7396102765    0.3311579358   -3.1149014995
     15  H        -4.7985850765    0.5486634859   -3.1370257889
     16  S        -2.8211757861    0.6517714561   -1.6795326373
   Point Group: c1    Number of degrees of freedom:    42


   Energy is  -1104.839512467

              Constraints and their Current Values
                                        Value     Constraint
   Dihedral:        6   8   9  10       20.000       20.000
 Hessian Updated using BFGS Update

 40 Hessian modes will be used to form the next step
  Hessian Eigenvalues:
     0.008762    0.042098    0.045000    0.045000    0.045001    0.045002
     0.045004    0.045011    0.045023    0.045041    0.045792    0.155417
     0.159940    0.159990    0.159995    0.160011    0.160694    0.186087
     0.221290    0.224265    0.237845    0.250006    0.281267    0.294443
     0.305007    0.312578    0.314831    0.354751    0.354860    0.355130
     0.355294    0.358279    0.358767    0.389372    0.404914    0.434811
     0.463584    0.463675    0.497933    0.499380

 Minimum Search - Taking Simple RFO Step
 Searching for Lamda that Minimizes Along All modes
 Value Taken    Lamda =   0.00000000
 Step Taken.  Stepsize is  0.004151

                             Maximum     Tolerance    Cnvgd?
         Gradient           0.000225      0.000300     YES
         Displacement       0.002166      0.001200      NO
         Energy change     -0.000003      0.000001      NO


 New Cartesian Coordinates Obtained by Inverse Iteration

 Displacement from previous Coordinates is:  0.007155
 ----------------------------------------------------------------
             Standard Nuclear Orientation (Angstroms)
    I     Atom           X                Y                Z
 ----------------------------------------------------------------
    1      S       0.0287394962     0.0310556025     0.0371805703
    2      C       1.7622854151     0.0051226694    -0.0057498116
    3      H       2.3246826199     0.0041795157     0.9176911578
    4      C       2.2334066026    -0.0081158159    -1.2926553592
    5      H       3.2886609094    -0.0228465865    -1.5406522102
    6      C       1.1918752207     0.0176274175    -2.2641284652
    7      H       1.3661519510     0.0420128878    -3.3334965731
    8      C      -0.0739319920     0.0475502331    -1.7137873290
    9      C      -1.3483314675     0.0435235057    -2.4144164782
   10      C      -1.5975833603    -0.3627514160    -3.7102619574
   11      H      -0.8332323097    -0.7925314140    -4.3472833666
   12      C      -2.9556317347    -0.1968826657    -4.1067254395
   13      H      -3.3360863071    -0.4707903223    -5.0842710552
   14      C      -3.7394609862     0.3317003546    -3.1146669768
   15      H      -4.7985004232     0.5489274914    -3.1365559581
   16      S      -2.8204888343     0.6528914528    -1.6797403681
 ----------------------------------------------------------------
 Nuclear Repulsion Energy =   631.4138601796 hartrees
 There are       43 alpha and       43 beta electrons
 Applying Cartesian multipole field
    Component          Value
    ---------          -----
     (2,0,0)        1.00000E-11
     (0,2,0)        2.00000E-11
     (0,0,2)       -3.00000E-11
 Nucleus-field energy     =    -0.0000000332 hartrees
 Requested basis set is 6-31++G(d,p)
 There are 76 shells and 234 basis functions
 A cutoff of  1.0D-12 yielded   2529 shell pairs
 There are     24877 function pairs

 Q-Chem warning in module /project/projectdirs/jcesr/qchem/qc44/cnl_qc441/compile/cori/qc_src/libqints/qchem/aobasis.C, line 68:

 Using reconstructed effective core potential

 Smallest overlap matrix eigenvalue = 8.72E-07
 Linear dependence detected in AO basis
 Number of orthogonalized atomic orbitals = 233
 Maximum deviation from orthogonality = 1.298E-10
 Guess MOs from SCF MO coefficient file
 Reading MOs from coefficient file
 Reading MOs from coefficient file
 A restricted hybrid HF-DFT SCF calculation will be
 performed using Pulay DIIS extrapolation
 Exchange:     0.2000 Hartree-Fock + 0.0800 Slater + 0.7200 B88
 Correlation:  0.1900 VWN1RPA + 0.8100 LYP
 Using SG-1 standard quadrature grid
 SCF converges when DIIS error is below 1.0E-08
 Geometry optimization detected.  Setting ReadMinima to 0
 Setting SaveMinima to 0
 ---------------------------------------
  Cycle       Energy         DIIS Error
 ---------------------------------------
    1   -1104.8395981379      3.71E-05
    2   -1104.8395128130      4.81E-06
    3   -1104.8395123281      9.37E-06
    4   -1104.8395129888      1.34E-06
    5   -1104.8395130008      4.67E-07
    6   -1104.8395130027      1.83E-07
    7   -1104.8395130039      6.94E-08
    8   -1104.8395130036      1.47E-08
    9   -1104.8395130038      3.59E-09 Convergence criterion met
 ---------------------------------------
 SCF time:  CPU 4.94 s  wall 5.75 s
 SCF   energy in the final basis set = -1104.8395130038
 Total energy in the final basis set = -1104.8395130038
 
 --------------------------------------------------------------
 
                    Orbital Energies (a.u.)
 --------------------------------------------------------------
 
 Alpha MOs
 -- Occupied --
-88.920 -88.920 -10.239 -10.239 -10.225 -10.225 -10.205 -10.205
-10.203 -10.203  -7.979  -7.979  -5.944  -5.944  -5.940  -5.940
 -5.937  -5.936  -0.900  -0.878  -0.771  -0.749  -0.737  -0.705
 -0.604  -0.579  -0.554  -0.533  -0.527  -0.477  -0.421  -0.418
 -0.409  -0.403  -0.401  -0.377  -0.374  -0.359  -0.344  -0.280
 -0.264  -0.259  -0.213
 -- Virtual --
 -0.057  -0.014  -0.004  -0.000   0.004   0.014   0.018   0.026
  0.027   0.037   0.038   0.047   0.047   0.059   0.061   0.070
  0.074   0.081   0.088   0.095   0.102   0.104   0.107   0.112
  0.115   0.124   0.126   0.130   0.137   0.139   0.140   0.145
  0.145   0.152   0.161   0.162   0.166   0.179   0.183   0.185
  0.187   0.194   0.194   0.208   0.213   0.220   0.221   0.241
  0.247   0.258   0.264   0.265   0.270   0.276   0.304   0.309
  0.312   0.317   0.323   0.350   0.358   0.374   0.383   0.420
  0.445   0.466   0.496   0.531   0.536   0.553   0.564   0.569
  0.601   0.625   0.628   0.653   0.662   0.667   0.672   0.681
  0.704   0.714   0.722   0.726   0.737   0.750   0.752   0.792
  0.796   0.818   0.830   0.848   0.885   0.918   0.936   0.951
  0.953   0.957   0.962   0.972   0.989   0.990   1.009   1.010
  1.036   1.042   1.076   1.081   1.100   1.106   1.128   1.167
  1.170   1.182   1.187   1.245   1.251   1.329   1.339   1.355
  1.356   1.367   1.381   1.440   1.492   1.512   1.552   1.580
  1.664   1.693   1.718   1.783   1.864   1.874   1.887   1.911
  1.924   1.964   1.985   2.013   2.020   2.070   2.078   2.133
  2.138   2.180   2.183   2.238   2.242   2.283   2.298   2.363
  2.366   2.419   2.454   2.465   2.473   2.504   2.507   2.520
  2.540   2.571   2.579   2.594   2.680   2.691   2.721   2.762
  2.794   2.856   2.935   2.968   3.140   3.212   3.270   3.272
  3.397   3.429   3.710   3.753   3.945   4.010   4.237   4.300
  4.301   4.327   4.402   4.540   4.646   4.730
 --------------------------------------------------------------
 
          Ground-State Mulliken Net Atomic Charges

     Atom                 Charge (a.u.)
  ----------------------------------------
      1 S                    -0.097471
      2 C                     0.007774
      3 H                     0.195846
      4 C                    -0.351151
      5 H                     0.120233
      6 C                     0.325817
      7 H                     0.121741
      8 C                    -0.325164
      9 C                    -0.321162
     10 C                     0.326536
     11 H                     0.121853
     12 C                    -0.349642
     13 H                     0.120252
     14 C                     0.007575
     15 H                     0.195981
     16 S                    -0.099019
  ----------------------------------------
  Sum of atomic charges =     0.000000

 -----------------------------------------------------------------
                    Cartesian Multipole Moments
 -----------------------------------------------------------------
    Charge (ESU x 10^10)
                -0.0000
    Dipole Moment (Debye)
         X       0.4846      Y      -0.2051      Z      -0.8799
       Tot       1.0253
    Quadrupole Moments (Debye-Ang)
        XX     -63.5172     XY      -0.9105     YY     -78.0903
        XZ       3.1158     YZ       2.0158     ZZ     -63.5205
    Octopole Moments (Debye-Ang^2)
       XXX     159.4631    XXY      -0.6044    XYY      63.4993
       YYY     -23.9699    XXZ     106.3543    XYZ      -0.5918
       YYZ     141.9100    XZZ      50.5694    YZZ     -20.3326
       ZZZ     351.7458
    Hexadecapole Moments (Debye-Ang^3)
      XXXX   -1828.0391   XXXY      29.7136   XXYY    -401.9368
      XYYY      76.7044   YYYY    -152.3859   XXXZ    -561.3371
      XXYZ      -3.9704   XYYZ    -244.0175   YYYZ      20.9080
      XXZZ    -634.9482   XYZZ      41.7752   YYZZ    -451.6785
      XZZZ    -598.7667   YZZZ      90.3130   ZZZZ   -2141.0323
 -----------------------------------------------------------------
 Calculating analytic gradient of the SCF energy
 Gradient of SCF Energy
            1           2           3           4           5           6
    1  -0.0000175   0.0000215  -0.0000093  -0.0000236   0.0000015   0.0000188
    2   0.0000106   0.0000382  -0.0000035  -0.0000037   0.0000036  -0.0009568
    3  -0.0000621   0.0000201   0.0000046  -0.0000137   0.0000083   0.0000106
            7           8           9          10          11          12
    1  -0.0000033   0.0001233  -0.0003318   0.0001648  -0.0000018   0.0000334
    2   0.0000152   0.0019530  -0.0018701   0.0008791  -0.0000280  -0.0000025
    3   0.0000033  -0.0001354   0.0005194  -0.0003443   0.0000151   0.0000036
           13          14          15          16
    1  -0.0000047  -0.0000332   0.0000057   0.0000562
    2  -0.0000119  -0.0000238   0.0000150  -0.0000144
    3   0.0000020  -0.0000008  -0.0000059  -0.0000248
 Max gradient component =       1.953E-03
 RMS gradient           =       4.466E-04
 Gradient time:  CPU 2.07 s  wall 2.08 s
 Geometry Optimization Parameters
   NAtoms,    NIC,     NZ,  NCons,   NDum,   NFix, NCnnct, MaxDiis
       16     111       0       1       0       0       0       0

 Cartesian Hessian Update
 Hessian Updated using BFGS Update


** CONSTRAINED OPTIMIZATION IN DELOCALIZED INTERNAL COORDINATES **
   Searching for a Minimum

   Optimization Cycle:   7

                       Coordinates (Angstroms)
     ATOM                X               Y               Z
      1  S         0.0287394962    0.0310556025    0.0371805703
      2  C         1.7622854151    0.0051226694   -0.0057498116
      3  H         2.3246826199    0.0041795157    0.9176911578
      4  C         2.2334066026   -0.0081158159   -1.2926553592
      5  H         3.2886609094   -0.0228465865   -1.5406522102
      6  C         1.1918752207    0.0176274175   -2.2641284652
      7  H         1.3661519510    0.0420128878   -3.3334965731
      8  C        -0.0739319920    0.0475502331   -1.7137873290
      9  C        -1.3483314675    0.0435235057   -2.4144164782
     10  C        -1.5975833603   -0.3627514160   -3.7102619574
     11  H        -0.8332323097   -0.7925314140   -4.3472833666
     12  C        -2.9556317347   -0.1968826657   -4.1067254395
     13  H        -3.3360863071   -0.4707903223   -5.0842710552
     14  C        -3.7394609862    0.3317003546   -3.1146669768
     15  H        -4.7985004232    0.5489274914   -3.1365559581
     16  S        -2.8204888343    0.6528914528   -1.6797403681
   Point Group: c1    Number of degrees of freedom:    42


   Energy is  -1104.839513004

              Constraints and their Current Values
                                        Value     Constraint
   Dihedral:        6   8   9  10       20.000       20.000
 Hessian Updated using BFGS Update

 41 Hessian modes will be used to form the next step
  Hessian Eigenvalues:
     0.009078    0.037381    0.045000    0.045000    0.045000    0.045002
     0.045002    0.045004    0.045009    0.045012    0.045034    0.046117
     0.151387    0.159935    0.159991    0.159996    0.160033    0.160544
     0.185232    0.221290    0.225340    0.237853    0.250006    0.272566
     0.289294    0.294481    0.312564    0.315301    0.354750    0.354850
     0.355130    0.355317    0.358278    0.358811    0.388906    0.404918
     0.435100    0.461382    0.463637    0.497933    0.498126

 Minimum Search - Taking Simple RFO Step
 Searching for Lamda that Minimizes Along All modes
 Value Taken    Lamda =   0.00000000
 Step Taken.  Stepsize is  0.001210

                             Maximum     Tolerance    Cnvgd?
         Gradient           0.000048      0.000300     YES
         Displacement       0.000979      0.001200     YES
         Energy change     -0.000001      0.000001     YES

 Final energy is   -1104.83951300383     


 ******************************
 **  OPTIMIZATION CONVERGED  **
 ******************************

                       Coordinates (Angstroms)
     ATOM                X               Y               Z
      1  S         0.0287394962    0.0310556025    0.0371805703
      2  C         1.7622854151    0.0051226694   -0.0057498116
      3  H         2.3246826199    0.0041795157    0.9176911578
      4  C         2.2334066026   -0.0081158159   -1.2926553592
      5  H         3.2886609094   -0.0228465865   -1.5406522102
      6  C         1.1918752207    0.0176274175   -2.2641284652
      7  H         1.3661519510    0.0420128878   -3.3334965731
      8  C        -0.0739319920    0.0475502331   -1.7137873290
      9  C        -1.3483314675    0.0435235057   -2.4144164782
     10  C        -1.5975833603   -0.3627514160   -3.7102619574
     11  H        -0.8332323097   -0.7925314140   -4.3472833666
     12  C        -2.9556317347   -0.1968826657   -4.1067254395
     13  H        -3.3360863071   -0.4707903223   -5.0842710552
     14  C        -3.7394609862    0.3317003546   -3.1146669768
     15  H        -4.7985004232    0.5489274914   -3.1365559581
     16  S        -2.8204888343    0.6528914528   -1.6797403681

Z-matrix Print:
$molecule
0 1
S 
C  1 1.734271
H  2 1.081219 1 119.920947
C  2 1.370495 1 111.531019 3 -179.821522 0
H  4 1.084104 2 123.336030 1 179.865126 0
C  4 1.424504 2 112.883718 1 0.654964 0
H  6 1.083751 4 123.762612 2 178.103261 0
C  6 1.380594 4 113.509614 2 -0.134009 0
C  8 1.454301 6 127.686128 4 -178.250771 0
C  9 1.380725 8 127.672943 6 20.000001 0
H  10 1.083854 9 122.750162 8 3.638041 0
C  10 1.424427 9 113.519918 8 -178.057931 0
H  12 1.084143 10 123.787793 9 -179.356451 0
C  12 1.370390 10 112.876451 9 -0.129020 0
H  14 1.081310 12 128.537620 10 -179.127309 0
S  14 1.733980 12 111.554410 10 0.648995 0
$end

 
 --------------------------------------------------------------
 
                    Orbital Energies (a.u.)
 --------------------------------------------------------------
 
 Alpha MOs
 -- Occupied --
-88.920 -88.920 -10.239 -10.239 -10.225 -10.225 -10.205 -10.205
-10.203 -10.203  -7.979  -7.979  -5.944  -5.944  -5.940  -5.940
 -5.937  -5.936  -0.900  -0.878  -0.771  -0.749  -0.737  -0.705
 -0.604  -0.579  -0.554  -0.533  -0.527  -0.477  -0.421  -0.418
 -0.409  -0.403  -0.401  -0.377  -0.374  -0.359  -0.344  -0.280
 -0.264  -0.259  -0.213
 -- Virtual --
 -0.057  -0.014  -0.004  -0.000   0.004   0.014   0.018   0.026
  0.027   0.037   0.038   0.047   0.047   0.059   0.061   0.070
  0.074   0.081   0.088   0.095   0.102   0.104   0.107   0.112
  0.115   0.124   0.126   0.130   0.137   0.139   0.140   0.145
  0.145   0.152   0.161   0.162   0.166   0.179   0.183   0.185
  0.187   0.194   0.194   0.208   0.213   0.220   0.221   0.241
  0.247   0.258   0.264   0.265   0.270   0.276   0.304   0.309
  0.312   0.317   0.323   0.350   0.358   0.374   0.383   0.420
  0.445   0.466   0.496   0.531   0.536   0.553   0.564   0.569
  0.601   0.625   0.628   0.653   0.662   0.667   0.672   0.681
  0.704   0.714   0.722   0.726   0.737   0.750   0.752   0.792
  0.796   0.818   0.830   0.848   0.885   0.918   0.936   0.951
  0.953   0.957   0.962   0.972   0.989   0.990   1.009   1.010
  1.036   1.042   1.076   1.081   1.100   1.106   1.128   1.167
  1.170   1.182   1.187   1.245   1.251   1.329   1.339   1.355
  1.356   1.367   1.381   1.440   1.492   1.512   1.552   1.580
  1.664   1.693   1.718   1.783   1.864   1.874   1.887   1.911
  1.924   1.964   1.985   2.013   2.020   2.070   2.078   2.133
  2.138   2.180   2.183   2.238   2.242   2.283   2.298   2.363
  2.366   2.419   2.454   2.465   2.473   2.504   2.507   2.520
  2.540   2.571   2.579   2.594   2.680   2.691   2.721   2.762
  2.794   2.856   2.935   2.968   3.140   3.212   3.270   3.272
  3.397   3.429   3.710   3.753   3.945   4.010   4.237   4.300
  4.301   4.327   4.402   4.540   4.646   4.730
 --------------------------------------------------------------
 
          Ground-State Mulliken Net Atomic Charges

     Atom                 Charge (a.u.)
  ----------------------------------------
      1 S                    -0.097471
      2 C                     0.007774
      3 H                     0.195846
      4 C                    -0.351151
      5 H                     0.120233
      6 C                     0.325817
      7 H                     0.121741
      8 C                    -0.325164
      9 C                    -0.321162
     10 C                     0.326536
     11 H                     0.121853
     12 C                    -0.349642
     13 H                     0.120252
     14 C                     0.007575
     15 H                     0.195981
     16 S                    -0.099019
  ----------------------------------------
  Sum of atomic charges =     0.000000

 -----------------------------------------------------------------
                    Cartesian Multipole Moments
 -----------------------------------------------------------------
    Charge (ESU x 10^10)
                -0.0000
    Dipole Moment (Debye)
         X       0.4846      Y      -0.2051      Z      -0.8799
       Tot       1.0253
    Quadrupole Moments (Debye-Ang)
        XX     -63.5172     XY      -0.9105     YY     -78.0903
        XZ       3.1158     YZ       2.0158     ZZ     -63.5205
    Octopole Moments (Debye-Ang^2)
       XXX     159.4631    XXY      -0.6044    XYY      63.4993
       YYY     -23.9699    XXZ     106.3543    XYZ      -0.5918
       YYZ     141.9100    XZZ      50.5694    YZZ     -20.3326
       ZZZ     351.7458
    Hexadecapole Moments (Debye-Ang^3)
      XXXX   -1828.0391   XXXY      29.7136   XXYY    -401.9368
      XYYY      76.7044   YYYY    -152.3859   XXXZ    -561.3371
      XXYZ      -3.9704   XYYZ    -244.0175   YYYZ      20.9080
      XXZZ    -634.9482   XYZZ      41.7752   YYZZ    -451.6785
      XZZZ    -598.7667   YZZZ      90.3130   ZZZZ   -2141.0323
 -----------------------------------------------------------------
Archival summary:
1\1\nid00462\OPT\ProcedureUnspecified\BasisUnspecified\286\bwood\WedMay3102:25:492017WedMay3102:25:492017\0\\#,OPT,ProcedureUnspecified,BasisUnspecified,\\0,1\S\C,1,1.73427\H,2,1.08122,1,119.921\C,2,1.37049,1,111.531,3,-179.822,0\H,4,1.0841,2,123.336,1,179.865,0\C,4,1.4245,2,112.884,1,0.654964,0\H,6,1.08375,4,123.763,2,178.103,0\C,6,1.38059,4,113.51,2,-0.134009,0\C,8,1.4543,6,127.686,4,-178.251,0\C,9,1.38072,8,127.673,6,20,0\H,10,1.08385,9,122.75,8,3.63804,0\C,10,1.42443,9,113.52,8,-178.058,0\H,12,1.08414,10,123.788,9,-179.356,0\C,12,1.37039,10,112.876,9,-0.12902,0\H,14,1.08131,12,128.538,10,-179.127,0\S,14,1.73398,12,111.554,10,0.648995,0\\\@

 Total job time:  58.99s(wall), 58.15s(cpu) 
 Wed May 31 02:25:49 2017

        *************************************************************
        *                                                           *
        *  Thank you very much for using Q-Chem.  Have a nice day.  *
        *                                                           *
        *************************************************************


0 sent ACK to 0 
now end server 0 ... 
