srun -N 1 --ntasks-per-node 16 --cpus-per-task 4 --cpu_bind=cores --nodelist nid00481 /global/project/projectdirs/jcesr/qchem/qc44/cnl_qc441/dist/exe/qcprog.cori.haswell.exe .pt_n2_neutral_80.0.in.48525.qcin.1 /global/cscratch1/sd/bwood/qchem/nx/qchem48525/
Process 2 of 16 is on nid00481 - thread support 0
Process 3 of 16 is on nid00481 - thread support 0
Process 4 of 16 is on nid00481 - thread support 0
Process 5 of 16 is on nid00481 - thread support 0
Process 6 of 16 is on nid00481 - thread support 0
Process 0 of 16 is on nid00481 - thread support 0
Process 1 of 16 is on nid00481 - thread support 0
Process 15 of 16 is on nid00481 - thread support 0
initial socket setup ...start
initial socket setup ...done 
now start server 0 ... 
nid00481 10.128.1
Q-Chem Developer Version! Running on 10.128.1.*
                  Welcome to Q-Chem
     A Quantum Leap Into The Future Of Chemistry


 Q-Chem 4.4, Q-Chem, Inc., Pleasanton, CA (2016)

 Y. Shao,  Z. Gan,  E. Epifanovsky,  A. T. B. Gilbert,  M. Wormit,  
 J. Kussmann,  A. W. Lange,  A. Behn,  J. Deng,  X. Feng,  D. Ghosh,  
 M. Goldey,  P. R. Horn,  L. D. Jacobson,  I. Kaliman,  F. Rob,  
 R. Z. Khaliullin,  T. Kus,  A. Landau,  J. Liu,  E. I. Proynov,  Y. M. Rhee,  
 R. M. Richard,  M. A. Rohrdanz,  R. P. Steele,  E. J. Sundstrom,  
 H. L. Woodcock III,  P. M. Zimmerman,  D. Zuev,  B. Albrecht,  E. Alguire,  
 B. Austin,  S. A. Baeppler,  G. J. O. Beran,  Y. A. Bernard,  
 E. J. Berquist,  K. Brandhorst,  K. B. Bravaya,  S. T. Brown,  D. Casanova,  
 C.-M. Chang,  Y. Chen,  S. H. Chien,  K. D. Closser,  M. P. Coons,  
 D. L. Crittenden,  S. Dasgupta,  M. Diedenhofen,  R. A. DiStasio Jr.,  
 H. Do,  A. D. Dutoi,  R. G. Edgar,  P.-T. Fang,  S. Fatehi,  Q. Feng,  
 L. Fusti-Molnar,  A. Ghysels,  A. Golubeva-Zadorozhnaya,  J. Gomes,  
 A. Gunina,  M. W. D. Hanson-Heine,  P. H. P. Harbach,  A. W. Hauser,  
 J. E. Herr,  E. G. Hohenstein,  Z. C. Holden,  K. Hui,  T.-C. Jagau,  H. Ji,  
 B. Kaduk,  K. Khistyaev,  Jaehoon Kim,  Jihan Kim,  R. A. King,  
 P. Klunzinger,  K. Koh,  D. Kosenkov,  T. Kowalczyk,  C. M. Krauter,  
 A. Kunitsa,  K. U. Lao,  A. Laurent,  K. V. Lawler,  J. Lee,  D. Lefrancois,  
 S. Lehtola,  S. V. Levchenko,  C. Y. Lin,  Y.-S. Lin,  F. Liu,  E. Livshits,  
 R. C. Lochan,  A. Luenser,  P. Manohar,  S. F. Manzer,  S.-P. Mao,  Y. Mao,  
 N. Mardirossian,  A. V. Marenich,  L. A. Martinez-Martinez,  S. A. Maurer,  
 N. J. Mayhall,  J.-M. Mewes,  A. F. Morrison,  K. Nanda,  T. S. Nguyen-Beck,  
 C. M. Oana,  R. Olivares-Amaya,  D. P. O'Neill,  J. A. Parkhill,  
 T. M. Perrine,  R. Peverati,  P. A. Pieniazek,  F. Plasser,  A. Prociuk,  
 D. R. Rehn,  E. Rosta,  N. J. Russ,  N. Sergueev,  S. M. Sharada,  
 S. Sharma,  D. W. Small,  A. Sodt,  T. Stauch,  T. Stein,  D. Stuck,  
 Y.-C. Su,  A. J. W. Thom,  T. Tsuchimochi,  L. Vogt,  O. Vydrov,  T. Wang,  
 M. A. Watson,  J. Wenzel,  A. White,  C. F. Williams,  V. Vanovschi,  
 K. Yao,  S. Yeganeh,  S. R. Yost,  Z.-Q. You,  I. Y. Zhang,  X. Zhang,  
 Y. Zhao,  B. R. Brooks,  G. K. L. Chan,  D. M. Chipman,  C. J. Cramer,  
 W. A. Goddard III,  M. S. Gordon,  W. J. Hehre,  A. Klamt,  
 H. F. Schaefer III,  M. W. Schmidt,  C. D. Sherrill,  D. G. Truhlar,  
 A. Warshel,  X. Xu,  A. Aspuru-Guzik,  R. Baer,  A. T. Bell,  N. A. Besley,  
 J.-D. Chai,  A. Dreuw,  B. D. Dunietz,  T. R. Furlani,  S. R. Gwaltney,  
 C.-P. Hsu,  Y. Jung,  J. Kong,  D. S. Lambrecht,  W. Liang,  C. Ochsenfeld,  
 V. A. Rassolov,  L. V. Slipchenko,  J. E. Subotnik,  T. Van Voorhis,  
 J. M. Herbert,  A. I. Krylov,  P. M. W. Gill,  M. Head-Gordon

 Contributors to earlier versions of Q-Chem not listed above: 
 R. D. Adamson,  J. Baker,  E. F. C. Byrd,  A. K. Chakraborty,  C.-L. Cheng,  
 H. Dachsel,  R. J. Doerksen,  G. Hawkins,  A. Heyden,  S. Hirata,  
 G. Kedziora,  F. J. Keil,  C. Kelley,  P. P. Korambath,  W. Kurlancheek,  
 A. M. Lee,  M. S. Lee,  D. Liotard,  I. Lotan,  P. E. Maslen,  N. Nair,  
 D. Neuhauser,  R. Olson,  B. Peters,  J. Ritchie,  N. E. Schultz,  
 N. Shenvi,  A. C. Simmonett,  K. S. Thanthiriwatte,  Q. Wu,  W. Zhang

 Please cite Q-Chem as follows:
 Y. Shao et al., Mol. Phys. 113, 184-215 (2015)
 DOI: 10.1080/00268976.2014.952696

 Q-Chem 4.4.2 for Intel X86 EM64T Linux

 Parts of Q-Chem use Armadillo 5.200.1 (Boston Tea Smuggler).
 http://arma.sourceforge.net/

 Q-Chem begins on Wed May 31 02:24:46 2017  

Host: nid00447
0

     Scratch files written to /global/cscratch1/sd/bwood/qchem/nx/qchem48525.0//
 Parallel job on  16  processors

Checking the input file for inconsistencies... 	...done.

--------------------------------------------------------------
User input:
--------------------------------------------------------------
$molecule
 0  1
 S           0.00238887        0.06077275        0.00183269
 C           1.73707619        0.03315849        0.00323229
 H           2.27612737        0.05289032        0.94042557
 C           2.24169204       -0.01546201       -1.26965798
 H           3.30285780       -0.04005365       -1.48972496
 C           1.22479222       -0.01612968       -2.26811464
 H           1.42674790       -0.02650987       -3.33334501
 C          -0.05393771        0.02880388       -1.75170966
 C          -1.32450815        0.04889988       -2.45636342
 C          -2.02195127       -1.00044189       -3.01894087
 H          -1.67406669       -2.02656826       -2.97582407
 C          -3.24945867       -0.60670806       -3.62646369
 H          -3.93172527       -1.29663994       -4.10978649
 C          -3.48550511        0.73903708       -3.52455057
 H          -4.33511797        1.30222605       -3.88573949
 S          -2.19692440        1.55297043       -2.69593273
$end


$rem
         jobtype = opt
        exchange = b3lyp
           basis = 6-31++g**
  max_scf_cycles = 150
      mem_static = 775
       mem_total = 7750
      sym_ignore = true
        symmetry = false
          thresh = 12
$end


$opt
CONSTRAINT
tors 6 8 9 10 80.0
ENDCONSTRAINT
$end

--------------------------------------------------------------
 ----------------------------------------------------------------
             Standard Nuclear Orientation (Angstroms)
    I     Atom           X                Y                Z
 ----------------------------------------------------------------
    1      S       0.0023888700     0.0607727500     0.0018326900
    2      C       1.7370761900     0.0331584900     0.0032322900
    3      H       2.2761273700     0.0528903200     0.9404255700
    4      C       2.2416920400    -0.0154620100    -1.2696579800
    5      H       3.3028578000    -0.0400536500    -1.4897249600
    6      C       1.2247922200    -0.0161296800    -2.2681146400
    7      H       1.4267479000    -0.0265098700    -3.3333450100
    8      C      -0.0539377100     0.0288038800    -1.7517096600
    9      C      -1.3245081500     0.0488998800    -2.4563634200
   10      C      -2.0219512700    -1.0004418900    -3.0189408700
   11      H      -1.6740666900    -2.0265682600    -2.9758240700
   12      C      -3.2494586700    -0.6067080600    -3.6264636900
   13      H      -3.9317252700    -1.2966399400    -4.1097864900
   14      C      -3.4855051100     0.7390370800    -3.5245505700
   15      H      -4.3351179700     1.3022260500    -3.8857394900
   16      S      -2.1969244000     1.5529704300    -2.6959327300
 ----------------------------------------------------------------
 Nuclear Repulsion Energy =   629.0737833567 hartrees
 There are       43 alpha and       43 beta electrons
 Requested basis set is 6-31++G(d,p)
 There are 76 shells and 234 basis functions

 Total QAlloc Memory Limit   7750 MB
 Mega-Array Size       758 MB
 MEM_STATIC part       775 MB
 A cutoff of  1.0D-12 yielded   2527 shell pairs
 There are     24917 function pairs

 Q-Chem warning in module /project/projectdirs/jcesr/qchem/qc44/cnl_qc441/compile/cori/qc_src/libqints/qchem/aobasis.C, line 68:

 Using reconstructed effective core potential

 
 -------------------------------------------------------
 OpenMP Integral Computing Module                       
 Release: version 1.0, May 2013, Q-Chem Inc. Pittsburgh 
 -------------------------------------------------------
 Integral Job Info:
 Integral job number is                      11
 Integral operator is                         1
 short-range coefficients                     0
 long-range coefficients              100000000
 Omega coefficients                           0
 if combine SR and LR in K                    0
 Integral screening is                        0
 Integral computing path is                   2
 max size of driver memory is            800000
 size of driver memory is                593474
 size of scratch memory is             15166112
 max col of scratch BK array               1296
 max len of scratch array in speh3          155
 max len of scratch index in speh4           18
 max int batch size is                      520
 min int batch size is                       52
 fixed nKL is                                52
 max L of basis functions is                  2
 order of int derivative is                   0
 number of shells is                         76
 number of basis is                         234
 number of cartesian basis is               234
 number of contracted shell pairs          2527
 number of primitive shell pairs           8213
 maxK2 (contraction) of shell pair           36
 max number of K2 of shell pair               1
 max number of CS2 of shell pair            264
 max number of PS2 of shell pair           1500
 mem total for path MDJ                   52408
 -------------------------------------------------------
 Smallest overlap matrix eigenvalue = 1.13E-06

 Scale SEOQF with 1.000000e-01/1.000000e-01/1.000000e-01

 Standard Electronic Orientation quadrupole field applied
 Nucleus-field energy     =    -0.0000000338 hartrees
 Guess from superposition of atomic densities
 Warning:  Energy on first SCF cycle will be non-variational
 A restricted hybrid HF-DFT SCF calculation will be
 performed using Pulay DIIS extrapolation
 Exchange:     0.2000 Hartree-Fock + 0.0800 Slater + 0.7200 B88
 Correlation:  0.1900 VWN1RPA + 0.8100 LYP
 Using SG-1 standard quadrature grid
 SCF converges when DIIS error is below 1.0E-08
 ---------------------------------------
  Cycle       Energy         DIIS Error
 ---------------------------------------
    1   -1107.1682876934      4.40E-02
    2   -1104.6684858791      4.66E-03
    3   -1104.4201259121      7.14E-03
    4   -1104.8284370991      9.99E-04
    5   -1104.8355017394      4.67E-04
    6   -1104.8369757181      1.30E-04
    7   -1104.8370890903      4.55E-05
    8   -1104.8371004961      1.96E-05
    9   -1104.8371034952      2.41E-06
   10   -1104.8371035364      8.99E-07
   11   -1104.8371035409      4.45E-07
   12   -1104.8371035430      4.77E-08
   13   -1104.8371035430      3.24E-08
   14   -1104.8371035428      6.70E-09 Convergence criterion met
 ---------------------------------------
 SCF time:  CPU 7.55 s  wall 7.19 s
 SCF   energy in the final basis set = -1104.8371035428
 Total energy in the final basis set = -1104.8371035428
 
 --------------------------------------------------------------
 
                    Orbital Energies (a.u.)
 --------------------------------------------------------------
 
 Alpha MOs
 -- Occupied --
-88.919 -88.919 -10.235 -10.235 -10.225 -10.224 -10.204 -10.204
-10.203 -10.203  -7.978  -7.978  -5.942  -5.942  -5.938  -5.938
 -5.935  -5.935  -0.898  -0.877  -0.770  -0.742  -0.740  -0.704
 -0.602  -0.567  -0.564  -0.534  -0.523  -0.477  -0.418  -0.414
 -0.413  -0.405  -0.394  -0.374  -0.374  -0.350  -0.350  -0.264
 -0.257  -0.248  -0.237
 -- Virtual --
 -0.038  -0.030  -0.005  -0.003   0.006   0.013   0.020   0.023
  0.026   0.034   0.035   0.042   0.045   0.046   0.065   0.068
  0.071   0.072   0.082   0.102   0.102   0.107   0.107   0.114
  0.115   0.118   0.125   0.128   0.132   0.132   0.138   0.143
  0.146   0.151   0.158   0.162   0.166   0.174   0.179   0.183
  0.184   0.190   0.192   0.206   0.214   0.218   0.220   0.229
  0.245   0.250   0.253   0.267   0.272   0.274   0.296   0.300
  0.307   0.317   0.327   0.331   0.355   0.364   0.372   0.393
  0.431   0.471   0.477   0.493   0.522   0.531   0.553   0.576
  0.581   0.587   0.612   0.640   0.648   0.660   0.673   0.677
  0.686   0.698   0.726   0.726   0.740   0.761   0.768   0.770
  0.789   0.803   0.806   0.829   0.842   0.897   0.908   0.940
  0.949   0.957   0.962   0.968   0.968   0.988   0.995   1.017
  1.020   1.023   1.044   1.047   1.079   1.097   1.100   1.107
  1.131   1.184   1.216   1.220   1.238   1.284   1.319   1.348
  1.353   1.361   1.365   1.389   1.462   1.471   1.482   1.527
  1.567   1.692   1.695   1.791   1.830   1.843   1.880   1.884
  1.915   1.924   1.953   1.963   2.016   2.020   2.063   2.094
  2.128   2.165   2.189   2.198   2.212   2.249   2.264   2.338
  2.366   2.370   2.429   2.442   2.462   2.482   2.492   2.510
  2.516   2.525   2.583   2.587   2.618   2.641   2.697   2.705
  2.761   2.822   2.869   2.875   2.940   3.162   3.179   3.271
  3.272   3.401   3.429   3.721   3.742   3.965   3.972   4.284
  4.309   4.320   4.330   4.436   4.535   4.661   4.713
 --------------------------------------------------------------
 
          Ground-State Mulliken Net Atomic Charges

     Atom                 Charge (a.u.)
  ----------------------------------------
      1 S                     0.044916
      2 C                    -0.030025
      3 H                     0.188055
      4 C                    -0.410477
      5 H                     0.117817
      6 C                     0.365607
      7 H                     0.133977
      8 C                    -0.412535
      9 C                    -0.404546
     10 C                     0.362696
     11 H                     0.133724
     12 C                    -0.408236
     13 H                     0.117848
     14 C                    -0.030773
     15 H                     0.188056
     16 S                     0.043897
  ----------------------------------------
  Sum of atomic charges =     0.000000

 -----------------------------------------------------------------
                    Cartesian Multipole Moments
 -----------------------------------------------------------------
    Charge (ESU x 10^10)
                 0.0000
    Dipole Moment (Debye)
         X       0.2712      Y      -0.5144      Z      -0.5063
       Tot       0.7711
    Quadrupole Moments (Debye-Ang)
        XX     -64.0541     XY       0.0496     YY     -73.6076
        XZ       4.9161     YZ       1.8463     ZZ     -68.5287
    Octopole Moments (Debye-Ang^2)
       XXX     156.2078    XXY     -10.3989    XYY      44.6992
       YYY     -49.7261    XXZ     106.3937    XYZ       0.4159
       YYZ     135.0848    XZZ      41.8964    YZZ     -21.4610
       ZZZ     418.5417
    Hexadecapole Moments (Debye-Ang^3)
      XXXX   -1737.8834   XXXY      71.2834   XXYY    -359.5939
      XYYY     106.6479   YYYY    -366.1736   XXXZ    -596.9914
      XXYZ      19.2143   XYYZ    -208.7830   YYYZ     120.3199
      XXZZ    -579.7135   XYZZ      35.7805   YYZZ    -457.3252
      XZZZ    -684.2031   YZZZ     131.9892   ZZZZ   -2531.2957
 -----------------------------------------------------------------
 Calculating analytic gradient of the SCF energy
 Gradient of SCF Energy
            1           2           3           4           5           6
    1  -0.0021957   0.0020405  -0.0004227  -0.0010178  -0.0001059   0.0029448
    2  -0.0011670   0.0006006   0.0003227  -0.0002888   0.0000313  -0.0006641
    3  -0.0004576  -0.0006491  -0.0000157  -0.0006933  -0.0000093  -0.0005150
            7           8           9          10          11          12
    1   0.0010599  -0.0100025   0.0081003  -0.0015872  -0.0010580   0.0012113
    2   0.0004266   0.0014837   0.0021863  -0.0017220  -0.0004717  -0.0001590
    3   0.0000889  -0.0026203   0.0064584  -0.0019870  -0.0001686   0.0004768
           13          14          15          16
    1   0.0000829  -0.0015132   0.0001489   0.0023144
    2   0.0000362  -0.0015379   0.0001300   0.0007932
    3   0.0000818  -0.0003353   0.0004717  -0.0001264
 Max gradient component =       1.000E-02
 RMS gradient           =       2.366E-03
 Gradient time:  CPU 2.07 s  wall 2.08 s
 Geometry Optimization Parameters
   NAtoms,    NIC,     NZ,  NCons,   NDum,   NFix, NCnnct, MaxDiis
       16     111       0       1       0       0       0       0


** CONSTRAINED OPTIMIZATION IN DELOCALIZED INTERNAL COORDINATES **
   Searching for a Minimum

   Optimization Cycle:   1

                       Coordinates (Angstroms)
     ATOM                X               Y               Z
      1  S         0.0023888700    0.0607727500    0.0018326900
      2  C         1.7370761900    0.0331584900    0.0032322900
      3  H         2.2761273700    0.0528903200    0.9404255700
      4  C         2.2416920400   -0.0154620100   -1.2696579800
      5  H         3.3028578000   -0.0400536500   -1.4897249600
      6  C         1.2247922200   -0.0161296800   -2.2681146400
      7  H         1.4267479000   -0.0265098700   -3.3333450100
      8  C        -0.0539377100    0.0288038800   -1.7517096600
      9  C        -1.3245081500    0.0488998800   -2.4563634200
     10  C        -2.0219512700   -1.0004418900   -3.0189408700
     11  H        -1.6740666900   -2.0265682600   -2.9758240700
     12  C        -3.2494586700   -0.6067080600   -3.6264636900
     13  H        -3.9317252700   -1.2966399400   -4.1097864900
     14  C        -3.4855051100    0.7390370800   -3.5245505700
     15  H        -4.3351179700    1.3022260500   -3.8857394900
     16  S        -2.1969244000    1.5529704300   -2.6959327300
   Point Group: c1    Number of degrees of freedom:    42


   Energy is  -1104.837103543

              Constraints and their Current Values
                                        Value     Constraint
   Dihedral:        6   8   9  10       80.000       80.000

 Attempting to Generate Delocalized Internal Coordinates

 41 Hessian modes will be used to form the next step
  Hessian Eigenvalues:
     0.045000    0.045000    0.045000    0.045000    0.045000    0.045000
     0.045002    0.045002    0.045003    0.045004    0.045011    0.045012
     0.159943    0.159949    0.159991    0.159992    0.160000    0.160000
     0.221282    0.221282    0.237835    0.237839    0.250000    0.250000
     0.294264    0.294663    0.312518    0.312618    0.354736    0.354850
     0.355125    0.355132    0.358226    0.358329    0.378510    0.404854
     0.404909    0.463547    0.463616    0.497922    0.497945

 Minimum Search - Taking Simple RFO Step
 Searching for Lamda that Minimizes Along All modes
 Value Taken    Lamda =  -0.00046752
 Step Taken.  Stepsize is  0.057210

                             Maximum     Tolerance    Cnvgd?
         Gradient           0.005055      0.000300      NO
         Displacement       0.027945      0.001200      NO
         Energy change     *********      0.000001      NO


 New Cartesian Coordinates Obtained by Inverse Iteration

 Displacement from previous Coordinates is:  0.122586
 ----------------------------------------------------------------
             Standard Nuclear Orientation (Angstroms)
    I     Atom           X                Y                Z
 ----------------------------------------------------------------
    1      S       0.0160782697     0.0739778494     0.0137016438
    2      C       1.7480671536     0.0265840534     0.0062417396
    3      H       2.2948098816     0.0367326760     0.9394949138
    4      C       2.2447363778    -0.0183341107    -1.2703159852
    5      H       3.3044189109    -0.0504629073    -1.4972057231
    6      C       1.2197057552    -0.0108154202    -2.2628404106
    7      H       1.4076494215    -0.0249585623    -3.3304295745
    8      C      -0.0526979403     0.0342820970    -1.7407219642
    9      C      -1.3340669713     0.0555501994    -2.4520796742
   10      C      -2.0244254415    -0.9951047806    -3.0118791721
   11      H      -1.6637500313    -2.0165004576    -2.9652775622
   12      C      -3.2498585445    -0.6078758003    -3.6317779735
   13      H      -3.9241056159    -1.3012054376    -4.1218300000
   14      C      -3.4908028004     0.7378549534    -3.5363052688
   15      H      -4.3386039122     1.2962320225    -3.9099129962
   16      S      -2.2186673631     1.5542891455    -2.6895250225
 ----------------------------------------------------------------
 Nuclear Repulsion Energy =   628.2376770739 hartrees
 There are       43 alpha and       43 beta electrons
 Applying Cartesian multipole field
    Component          Value
    ---------          -----
     (2,0,0)        1.00000E-11
     (0,2,0)        2.00000E-11
     (0,0,2)       -3.00000E-11
 Nucleus-field energy     =    -0.0000000337 hartrees
 Requested basis set is 6-31++G(d,p)
 There are 76 shells and 234 basis functions
 A cutoff of  1.0D-12 yielded   2525 shell pairs
 There are     24869 function pairs

 Q-Chem warning in module /project/projectdirs/jcesr/qchem/qc44/cnl_qc441/compile/cori/qc_src/libqints/qchem/aobasis.C, line 68:

 Using reconstructed effective core potential

 Smallest overlap matrix eigenvalue = 1.20E-06
 Guess MOs from SCF MO coefficient file
 Reading MOs from coefficient file
 Reading MOs from coefficient file
 A restricted hybrid HF-DFT SCF calculation will be
 performed using Pulay DIIS extrapolation
 Exchange:     0.2000 Hartree-Fock + 0.0800 Slater + 0.7200 B88
 Correlation:  0.1900 VWN1RPA + 0.8100 LYP
 Using SG-1 standard quadrature grid
 SCF converges when DIIS error is below 1.0E-08
 Geometry optimization detected.  Setting ReadMinima to 0
 Setting SaveMinima to 0
 ---------------------------------------
  Cycle       Energy         DIIS Error
 ---------------------------------------
    1   -1104.8402275459      6.75E-04
    2   -1104.8372592817      1.12E-04
    3   -1104.8370448178      2.04E-04
    4   -1104.8373480171      4.11E-05
    5   -1104.8373599190      1.02E-05
    6   -1104.8373605851      2.99E-06
    7   -1104.8373606378      1.22E-06
    8   -1104.8373606481      5.18E-07
    9   -1104.8373606499      5.43E-08
   10   -1104.8373606504      2.63E-08
   11   -1104.8373606494      6.23E-09 Convergence criterion met
 ---------------------------------------
 SCF time:  CPU 6.06 s  wall 5.67 s
 SCF   energy in the final basis set = -1104.8373606494
 Total energy in the final basis set = -1104.8373606494
 
 --------------------------------------------------------------
 
                    Orbital Energies (a.u.)
 --------------------------------------------------------------
 
 Alpha MOs
 -- Occupied --
-88.919 -88.919 -10.236 -10.236 -10.225 -10.225 -10.204 -10.204
-10.203 -10.203  -7.978  -7.978  -5.942  -5.942  -5.938  -5.938
 -5.935  -5.935  -0.898  -0.877  -0.768  -0.742  -0.740  -0.705
 -0.601  -0.567  -0.564  -0.534  -0.523  -0.478  -0.418  -0.414
 -0.413  -0.405  -0.394  -0.375  -0.374  -0.350  -0.350  -0.264
 -0.257  -0.249  -0.237
 -- Virtual --
 -0.038  -0.030  -0.006  -0.002   0.006   0.013   0.020   0.023
  0.026   0.034   0.035   0.041   0.045   0.046   0.065   0.068
  0.071   0.071   0.082   0.102   0.102   0.107   0.108   0.114
  0.115   0.118   0.124   0.128   0.132   0.132   0.138   0.143
  0.145   0.151   0.158   0.162   0.166   0.173   0.179   0.183
  0.184   0.190   0.192   0.205   0.212   0.218   0.220   0.228
  0.245   0.250   0.252   0.266   0.273   0.274   0.297   0.300
  0.306   0.316   0.327   0.331   0.356   0.365   0.372   0.393
  0.431   0.471   0.476   0.493   0.522   0.528   0.552   0.576
  0.581   0.588   0.611   0.640   0.645   0.660   0.672   0.677
  0.685   0.698   0.726   0.726   0.737   0.760   0.768   0.769
  0.790   0.802   0.806   0.828   0.842   0.897   0.908   0.942
  0.949   0.958   0.963   0.968   0.968   0.988   0.994   1.017
  1.019   1.023   1.043   1.046   1.079   1.097   1.101   1.107
  1.130   1.184   1.215   1.218   1.239   1.286   1.323   1.347
  1.352   1.357   1.363   1.392   1.459   1.467   1.485   1.526
  1.567   1.691   1.695   1.785   1.831   1.845   1.877   1.882
  1.915   1.923   1.952   1.963   2.016   2.018   2.062   2.095
  2.128   2.165   2.188   2.198   2.213   2.248   2.261   2.334
  2.366   2.370   2.430   2.442   2.462   2.480   2.492   2.511
  2.515   2.525   2.582   2.586   2.618   2.639   2.696   2.703
  2.758   2.820   2.866   2.874   2.936   3.162   3.178   3.269
  3.271   3.401   3.427   3.720   3.741   3.964   3.972   4.282
  4.308   4.321   4.328   4.434   4.534   4.660   4.710
 --------------------------------------------------------------
 
          Ground-State Mulliken Net Atomic Charges

     Atom                 Charge (a.u.)
  ----------------------------------------
      1 S                     0.046849
      2 C                    -0.032552
      3 H                     0.188663
      4 C                    -0.403083
      5 H                     0.117991
      6 C                     0.344479
      7 H                     0.134085
      8 C                    -0.397006
      9 C                    -0.393933
     10 C                     0.343617
     11 H                     0.133928
     12 C                    -0.402206
     13 H                     0.118009
     14 C                    -0.033223
     15 H                     0.188637
     16 S                     0.045745
  ----------------------------------------
  Sum of atomic charges =     0.000000

 -----------------------------------------------------------------
                    Cartesian Multipole Moments
 -----------------------------------------------------------------
    Charge (ESU x 10^10)
                 0.0000
    Dipole Moment (Debye)
         X       0.2787      Y      -0.5266      Z      -0.5215
       Tot       0.7918
    Quadrupole Moments (Debye-Ang)
        XX     -64.0786     XY      -0.0274     YY     -73.6583
        XZ       5.0145     YZ       1.8498     ZZ     -68.4121
    Octopole Moments (Debye-Ang^2)
       XXX     156.8487    XXY     -10.6329    XYY      44.9456
       YYY     -50.4578    XXZ     106.0158    XYZ       0.5413
       YYZ     134.9528    XZZ      41.3968    YZZ     -21.6680
       ZZZ     416.8676
    Hexadecapole Moments (Debye-Ang^3)
      XXXX   -1749.7634   XXXY      72.0880   XXYY    -361.7527
      XYYY     108.6354   YYYY    -366.6334   XXXZ    -599.2177
      XXYZ      18.7047   XYYZ    -210.3149   YYYZ     121.1267
      XXZZ    -578.7165   XYZZ      35.6239   YYZZ    -457.3493
      XZZZ    -683.5941   YZZZ     132.2065   ZZZZ   -2524.7226
 -----------------------------------------------------------------
 Calculating analytic gradient of the SCF energy
 Gradient of SCF Energy
            1           2           3           4           5           6
    1   0.0001048   0.0009598  -0.0001113  -0.0006371   0.0000382   0.0003975
    2  -0.0001204  -0.0001690   0.0001180   0.0000858   0.0000522   0.0001616
    3  -0.0002080   0.0004338   0.0000982  -0.0000847   0.0000249   0.0003543
            7           8           9          10          11          12
    1   0.0001930  -0.0012590   0.0015388  -0.0005571  -0.0003157   0.0004524
    2   0.0003055  -0.0002864  -0.0002053   0.0000961  -0.0000614   0.0001762
    3   0.0000739  -0.0009613   0.0003933  -0.0000688   0.0001570   0.0004193
           13          14          15          16
    1  -0.0000633  -0.0008423  -0.0000066   0.0001079
    2  -0.0000194  -0.0000381   0.0001117  -0.0002071
    3   0.0000224  -0.0006771   0.0001379  -0.0001152
 Max gradient component =       1.539E-03
 RMS gradient           =       4.427E-04
 Gradient time:  CPU 2.12 s  wall 2.07 s
 Geometry Optimization Parameters
   NAtoms,    NIC,     NZ,  NCons,   NDum,   NFix, NCnnct, MaxDiis
       16     111       0       1       0       0       0       0

 Cartesian Hessian Update
 Hessian Updated using BFGS Update


** CONSTRAINED OPTIMIZATION IN DELOCALIZED INTERNAL COORDINATES **
   Searching for a Minimum

   Optimization Cycle:   2

                       Coordinates (Angstroms)
     ATOM                X               Y               Z
      1  S         0.0160782697    0.0739778494    0.0137016438
      2  C         1.7480671536    0.0265840534    0.0062417396
      3  H         2.2948098816    0.0367326760    0.9394949138
      4  C         2.2447363778   -0.0183341107   -1.2703159852
      5  H         3.3044189109   -0.0504629073   -1.4972057231
      6  C         1.2197057552   -0.0108154202   -2.2628404106
      7  H         1.4076494215   -0.0249585623   -3.3304295745
      8  C        -0.0526979403    0.0342820970   -1.7407219642
      9  C        -1.3340669713    0.0555501994   -2.4520796742
     10  C        -2.0244254415   -0.9951047806   -3.0118791721
     11  H        -1.6637500313   -2.0165004576   -2.9652775622
     12  C        -3.2498585445   -0.6078758003   -3.6317779735
     13  H        -3.9241056159   -1.3012054376   -4.1218300000
     14  C        -3.4908028004    0.7378549534   -3.5363052688
     15  H        -4.3386039122    1.2962320225   -3.9099129962
     16  S        -2.2186673631    1.5542891455   -2.6895250225
   Point Group: c1    Number of degrees of freedom:    42


   Energy is  -1104.837360649

              Constraints and their Current Values
                                        Value     Constraint
   Dihedral:        6   8   9  10       80.000       80.000
 Hessian Updated using BFGS Update

 38 Hessian modes will be used to form the next step
  Hessian Eigenvalues:
     0.040965    0.045000    0.045000    0.045000    0.045002    0.045003
     0.045005    0.045012    0.046427    0.153869    0.159947    0.159989
     0.159992    0.160000    0.160153    0.216489    0.221284    0.229116
     0.237844    0.249884    0.250223    0.294395    0.295675    0.312566
     0.313271    0.354730    0.354845    0.355126    0.355130    0.358236
     0.358341    0.392769    0.404881    0.412498    0.458715    0.463582
     0.497918    0.498363

 Minimum Search - Taking Simple RFO Step
 Searching for Lamda that Minimizes Along All modes
 Value Taken    Lamda =  -0.00004232
 Step Taken.  Stepsize is  0.021378

                             Maximum     Tolerance    Cnvgd?
         Gradient           0.001344      0.000300      NO
         Displacement       0.010853      0.001200      NO
         Energy change     -0.000257      0.000001      NO


 New Cartesian Coordinates Obtained by Inverse Iteration

 Displacement from previous Coordinates is:  0.046993
 ----------------------------------------------------------------
             Standard Nuclear Orientation (Angstroms)
    I     Atom           X                Y                Z
 ----------------------------------------------------------------
    1      S       0.0159386212     0.0789932985     0.0181347090
    2      C       1.7472260607     0.0269899738     0.0044619588
    3      H       2.2971075815     0.0347295856     0.9358629203
    4      C       2.2430039796    -0.0203791731    -1.2725533308
    5      H       3.3020838954    -0.0568823582    -1.5014086912
    6      C       1.2153184170    -0.0104059737    -2.2623455514
    7      H       1.3976711310    -0.0289860704    -3.3308994023
    8      C      -0.0544026619     0.0358477609    -1.7358125273
    9      C      -1.3361764745     0.0596073596    -2.4497024426
   10      C      -2.0220203061    -0.9931076422    -3.0092917751
   11      H      -1.6550180143    -2.0123660098    -2.9638857234
   12      C      -3.2463883859    -0.6085034077    -3.6330551614
   13      H      -3.9171569639    -1.3022974823    -4.1270923021
   14      C      -3.4890786321     0.7369224438    -3.5355064588
   15      H      -4.3367682765     1.2929486202    -3.9128425893
   16      S      -2.2228528213     1.5571345951    -2.6847266624
 ----------------------------------------------------------------
 Nuclear Repulsion Energy =   628.2733775847 hartrees
 There are       43 alpha and       43 beta electrons
 Applying Cartesian multipole field
    Component          Value
    ---------          -----
     (2,0,0)        1.00000E-11
     (0,2,0)        2.00000E-11
     (0,0,2)       -3.00000E-11
 Nucleus-field energy     =    -0.0000000337 hartrees
 Requested basis set is 6-31++G(d,p)
 There are 76 shells and 234 basis functions
 A cutoff of  1.0D-12 yielded   2525 shell pairs
 There are     24869 function pairs

 Q-Chem warning in module /project/projectdirs/jcesr/qchem/qc44/cnl_qc441/compile/cori/qc_src/libqints/qchem/aobasis.C, line 68:

 Using reconstructed effective core potential

 Smallest overlap matrix eigenvalue = 1.20E-06
 Guess MOs from SCF MO coefficient file
 Reading MOs from coefficient file
 Reading MOs from coefficient file
 A restricted hybrid HF-DFT SCF calculation will be
 performed using Pulay DIIS extrapolation
 Exchange:     0.2000 Hartree-Fock + 0.0800 Slater + 0.7200 B88
 Correlation:  0.1900 VWN1RPA + 0.8100 LYP
 Using SG-1 standard quadrature grid
 SCF converges when DIIS error is below 1.0E-08
 Geometry optimization detected.  Setting ReadMinima to 0
 Setting SaveMinima to 0
 ---------------------------------------
  Cycle       Energy         DIIS Error
 ---------------------------------------
    1   -1104.8384510683      1.94E-04
    2   -1104.8373633948      5.03E-05
    3   -1104.8372984325      1.06E-04
    4   -1104.8373829308      9.87E-06
    5   -1104.8373836152      2.82E-06
    6   -1104.8373836635      1.33E-06
    7   -1104.8373836768      3.38E-07
    8   -1104.8373836752      1.12E-07
    9   -1104.8373836773      1.47E-08
   10   -1104.8373836771      7.98E-09 Convergence criterion met
 ---------------------------------------
 SCF time:  CPU 5.40 s  wall 5.92 s
 SCF   energy in the final basis set = -1104.8373836771
 Total energy in the final basis set = -1104.8373836771
 
 --------------------------------------------------------------
 
                    Orbital Energies (a.u.)
 --------------------------------------------------------------
 
 Alpha MOs
 -- Occupied --
-88.919 -88.919 -10.236 -10.235 -10.225 -10.225 -10.204 -10.204
-10.203 -10.203  -7.978  -7.978  -5.942  -5.942  -5.939  -5.938
 -5.935  -5.935  -0.898  -0.877  -0.768  -0.743  -0.740  -0.705
 -0.600  -0.567  -0.564  -0.534  -0.523  -0.477  -0.417  -0.413
 -0.413  -0.405  -0.393  -0.375  -0.375  -0.351  -0.350  -0.264
 -0.257  -0.249  -0.237
 -- Virtual --
 -0.037  -0.029  -0.006  -0.002   0.006   0.013   0.020   0.023
  0.026   0.034   0.035   0.041   0.045   0.046   0.065   0.068
  0.071   0.071   0.082   0.102   0.102   0.107   0.108   0.115
  0.115   0.118   0.124   0.128   0.132   0.132   0.138   0.142
  0.145   0.151   0.158   0.162   0.166   0.173   0.179   0.183
  0.184   0.190   0.192   0.205   0.212   0.218   0.221   0.228
  0.245   0.250   0.252   0.266   0.273   0.274   0.298   0.299
  0.306   0.316   0.327   0.331   0.356   0.365   0.371   0.393
  0.432   0.472   0.477   0.493   0.522   0.528   0.552   0.576
  0.581   0.588   0.611   0.640   0.645   0.660   0.672   0.677
  0.685   0.698   0.726   0.726   0.738   0.760   0.768   0.769
  0.790   0.802   0.806   0.828   0.842   0.897   0.908   0.943
  0.950   0.958   0.963   0.968   0.968   0.988   0.993   1.017
  1.018   1.023   1.044   1.045   1.078   1.097   1.101   1.107
  1.130   1.185   1.216   1.219   1.240   1.287   1.324   1.348
  1.352   1.357   1.362   1.393   1.456   1.465   1.487   1.524
  1.568   1.691   1.694   1.784   1.832   1.846   1.876   1.881
  1.915   1.924   1.952   1.964   2.016   2.018   2.063   2.095
  2.129   2.165   2.188   2.200   2.213   2.248   2.261   2.333
  2.366   2.371   2.431   2.442   2.463   2.479   2.491   2.511
  2.514   2.526   2.581   2.585   2.619   2.639   2.697   2.703
  2.759   2.821   2.866   2.875   2.935   3.162   3.178   3.269
  3.271   3.401   3.426   3.721   3.742   3.964   3.972   4.282
  4.309   4.321   4.328   4.434   4.534   4.661   4.710
 --------------------------------------------------------------
 
          Ground-State Mulliken Net Atomic Charges

     Atom                 Charge (a.u.)
  ----------------------------------------
      1 S                     0.049715
      2 C                    -0.036455
      3 H                     0.188293
      4 C                    -0.400491
      5 H                     0.117986
      6 C                     0.340031
      7 H                     0.134278
      8 C                    -0.392796
      9 C                    -0.392225
     10 C                     0.340080
     11 H                     0.134150
     12 C                    -0.400380
     13 H                     0.117981
     14 C                    -0.037013
     15 H                     0.188275
     16 S                     0.048570
  ----------------------------------------
  Sum of atomic charges =     0.000000

 -----------------------------------------------------------------
                    Cartesian Multipole Moments
 -----------------------------------------------------------------
    Charge (ESU x 10^10)
                 0.0000
    Dipole Moment (Debye)
         X       0.2812      Y      -0.5299      Z      -0.5259
       Tot       0.7978
    Quadrupole Moments (Debye-Ang)
        XX     -64.1539     XY      -0.0606     YY     -73.6474
        XZ       4.9886     YZ       1.8716     ZZ     -68.3745
    Octopole Moments (Debye-Ang^2)
       XXX     157.3886    XXY     -10.8263    XYY      45.0468
       YYY     -50.7678    XXZ     106.0463    XYZ       0.5560
       YYZ     134.7922    XZZ      41.4067    YZZ     -21.9123
       ZZZ     416.1336
    Hexadecapole Moments (Debye-Ang^3)
      XXXX   -1750.7427   XXXY      72.7092   XXYY    -361.8482
      XYYY     109.2944   YYYY    -367.1207   XXXZ    -599.9582
      XXYZ      18.9737   XYYZ    -210.3253   YYYZ     121.1887
      XXZZ    -578.3495   XYZZ      36.0068   YYZZ    -456.8534
      XZZZ    -682.5508   YZZZ     132.9506   ZZZZ   -2519.9968
 -----------------------------------------------------------------
 Calculating analytic gradient of the SCF energy
 Gradient of SCF Energy
            1           2           3           4           5           6
    1  -0.0001275  -0.0000967  -0.0000692  -0.0001371   0.0000342  -0.0000099
    2  -0.0000066  -0.0001329   0.0000629   0.0000373   0.0000042   0.0006472
    3   0.0003871  -0.0000344  -0.0000075  -0.0002343  -0.0000751   0.0002963
            7           8           9          10          11          12
    1   0.0000501   0.0005236   0.0000713  -0.0004549  -0.0000899   0.0001837
    2   0.0001557  -0.0009751  -0.0000988   0.0001626  -0.0000542  -0.0001374
    3  -0.0000182   0.0000277  -0.0011798   0.0005813   0.0001151   0.0001308
           13          14          15          16
    1   0.0000088   0.0001372   0.0000329  -0.0000568
    2  -0.0000849   0.0000307   0.0000187   0.0003706
    3  -0.0000005  -0.0000839   0.0000782   0.0000172
 Max gradient component =       1.180E-03
 RMS gradient           =       2.993E-04
 Gradient time:  CPU 2.06 s  wall 2.07 s
 Geometry Optimization Parameters
   NAtoms,    NIC,     NZ,  NCons,   NDum,   NFix, NCnnct, MaxDiis
       16     111       0       1       0       0       0       0

 Cartesian Hessian Update
 Hessian Updated using BFGS Update


** CONSTRAINED OPTIMIZATION IN DELOCALIZED INTERNAL COORDINATES **
   Searching for a Minimum

   Optimization Cycle:   3

                       Coordinates (Angstroms)
     ATOM                X               Y               Z
      1  S         0.0159386212    0.0789932985    0.0181347090
      2  C         1.7472260607    0.0269899738    0.0044619588
      3  H         2.2971075815    0.0347295856    0.9358629203
      4  C         2.2430039796   -0.0203791731   -1.2725533308
      5  H         3.3020838954   -0.0568823582   -1.5014086912
      6  C         1.2153184170   -0.0104059737   -2.2623455514
      7  H         1.3976711310   -0.0289860704   -3.3308994023
      8  C        -0.0544026619    0.0358477609   -1.7358125273
      9  C        -1.3361764745    0.0596073596   -2.4497024426
     10  C        -2.0220203061   -0.9931076422   -3.0092917751
     11  H        -1.6550180143   -2.0123660098   -2.9638857234
     12  C        -3.2463883859   -0.6085034077   -3.6330551614
     13  H        -3.9171569639   -1.3022974823   -4.1270923021
     14  C        -3.4890786321    0.7369224438   -3.5355064588
     15  H        -4.3367682765    1.2929486202   -3.9128425893
     16  S        -2.2228528213    1.5571345951   -2.6847266624
   Point Group: c1    Number of degrees of freedom:    42


   Energy is  -1104.837383677

              Constraints and their Current Values
                                        Value     Constraint
   Dihedral:        6   8   9  10       80.000       80.000
 Hessian Updated using BFGS Update

 37 Hessian modes will be used to form the next step
  Hessian Eigenvalues:
     0.032316    0.045000    0.045000    0.045001    0.045002    0.045011
     0.045290    0.046420    0.148353    0.159947    0.159992    0.160000
     0.160128    0.160571    0.208700    0.221286    0.224332    0.237839
     0.250004    0.286091    0.294417    0.298797    0.312565    0.314261
     0.354775    0.354936    0.355128    0.355217    0.358266    0.358736
     0.396379    0.404883    0.423498    0.463582    0.479380    0.497912
     0.498578

 Minimum Search - Taking Simple RFO Step
 Searching for Lamda that Minimizes Along All modes
 Value Taken    Lamda =  -0.00000714
 Step Taken.  Stepsize is  0.011716

                             Maximum     Tolerance    Cnvgd?
         Gradient           0.000375      0.000300      NO
         Displacement       0.009212      0.001200      NO
         Energy change     -0.000023      0.000001      NO


 New Cartesian Coordinates Obtained by Inverse Iteration

 Displacement from previous Coordinates is:  0.020082
 ----------------------------------------------------------------
             Standard Nuclear Orientation (Angstroms)
    I     Atom           X                Y                Z
 ----------------------------------------------------------------
    1      S       0.0165431828     0.0813234340     0.0189139157
    2      C       1.7477868314     0.0287575865     0.0046145078
    3      H       2.2986991416     0.0365527650     0.9354796681
    4      C       2.2428606847    -0.0212222169    -1.2724528951
    5      H       3.3017689792    -0.0595155079    -1.5014159567
    6      C       1.2141763434    -0.0116868625    -2.2618601397
    7      H       1.3949674544    -0.0336256001    -3.3305881754
    8      C      -0.0552410255     0.0354206009    -1.7343786263
    9      C      -1.3361679285     0.0609809505    -2.4494804850
   10      C      -2.0209089205    -0.9921328576    -3.0099379887
   11      H      -1.6513104925    -2.0105176566    -2.9667195734
   12      C      -3.2458548222    -0.6081646809    -3.6339485000
   13      H      -3.9156052905    -1.3016217700    -4.1296534222
   14      C      -3.4902154193     0.7366805259    -3.5342992596
   15      H      -4.3383326951     1.2918731133    -3.9121022288
   16      S      -2.2246788733     1.5571436965    -2.6828338707
 ----------------------------------------------------------------
 Nuclear Repulsion Energy =   628.2774550768 hartrees
 There are       43 alpha and       43 beta electrons
 Applying Cartesian multipole field
    Component          Value
    ---------          -----
     (2,0,0)        1.00000E-11
     (0,2,0)        2.00000E-11
     (0,0,2)       -3.00000E-11
 Nucleus-field energy     =    -0.0000000336 hartrees
 Requested basis set is 6-31++G(d,p)
 There are 76 shells and 234 basis functions
 A cutoff of  1.0D-12 yielded   2525 shell pairs
 There are     24869 function pairs

 Q-Chem warning in module /project/projectdirs/jcesr/qchem/qc44/cnl_qc441/compile/cori/qc_src/libqints/qchem/aobasis.C, line 68:

 Using reconstructed effective core potential

 Smallest overlap matrix eigenvalue = 1.21E-06
 Guess MOs from SCF MO coefficient file
 Reading MOs from coefficient file
 Reading MOs from coefficient file
 A restricted hybrid HF-DFT SCF calculation will be
 performed using Pulay DIIS extrapolation
 Exchange:     0.2000 Hartree-Fock + 0.0800 Slater + 0.7200 B88
 Correlation:  0.1900 VWN1RPA + 0.8100 LYP
 Using SG-1 standard quadrature grid
 SCF converges when DIIS error is below 1.0E-08
 Geometry optimization detected.  Setting ReadMinima to 0
 Setting SaveMinima to 0
 ---------------------------------------
  Cycle       Energy         DIIS Error
 ---------------------------------------
    1   -1104.8368666562      9.18E-05
    2   -1104.8373866868      1.43E-05
    3   -1104.8373803558      3.23E-05
    4   -1104.8373883923      2.70E-06
    5   -1104.8373884320      1.16E-06
    6   -1104.8373884408      4.59E-07
    7   -1104.8373884425      1.51E-07
    8   -1104.8373884420      3.23E-08
    9   -1104.8373884407      6.88E-09 Convergence criterion met
 ---------------------------------------
 SCF time:  CPU 4.92 s  wall 4.68 s
 SCF   energy in the final basis set = -1104.8373884407
 Total energy in the final basis set = -1104.8373884407
 
 --------------------------------------------------------------
 
                    Orbital Energies (a.u.)
 --------------------------------------------------------------
 
 Alpha MOs
 -- Occupied --
-88.919 -88.919 -10.236 -10.235 -10.225 -10.225 -10.204 -10.204
-10.203 -10.203  -7.978  -7.978  -5.942  -5.942  -5.939  -5.939
 -5.936  -5.935  -0.898  -0.877  -0.768  -0.743  -0.740  -0.705
 -0.600  -0.567  -0.564  -0.534  -0.523  -0.478  -0.417  -0.413
 -0.413  -0.405  -0.393  -0.375  -0.375  -0.351  -0.350  -0.264
 -0.257  -0.250  -0.237
 -- Virtual --
 -0.037  -0.029  -0.006  -0.002   0.006   0.013   0.020   0.023
  0.026   0.034   0.035   0.041   0.045   0.046   0.065   0.068
  0.071   0.071   0.082   0.102   0.102   0.107   0.108   0.115
  0.115   0.118   0.124   0.128   0.132   0.133   0.138   0.142
  0.145   0.151   0.158   0.162   0.166   0.173   0.179   0.183
  0.184   0.190   0.192   0.205   0.212   0.218   0.221   0.228
  0.245   0.251   0.252   0.266   0.273   0.274   0.298   0.299
  0.306   0.316   0.327   0.331   0.356   0.365   0.372   0.393
  0.432   0.472   0.477   0.492   0.522   0.529   0.552   0.576
  0.581   0.588   0.611   0.640   0.645   0.659   0.672   0.677
  0.685   0.698   0.726   0.726   0.737   0.760   0.768   0.769
  0.790   0.802   0.806   0.828   0.842   0.897   0.908   0.943
  0.950   0.959   0.963   0.968   0.969   0.988   0.993   1.017
  1.018   1.023   1.044   1.046   1.078   1.097   1.101   1.107
  1.130   1.185   1.215   1.219   1.240   1.287   1.325   1.348
  1.352   1.357   1.362   1.393   1.455   1.465   1.488   1.523
  1.568   1.691   1.694   1.784   1.831   1.847   1.876   1.881
  1.915   1.924   1.952   1.964   2.016   2.018   2.062   2.095
  2.129   2.165   2.189   2.200   2.213   2.249   2.261   2.332
  2.366   2.371   2.431   2.441   2.463   2.478   2.491   2.511
  2.514   2.526   2.581   2.585   2.619   2.639   2.697   2.703
  2.759   2.821   2.865   2.875   2.935   3.162   3.178   3.269
  3.271   3.401   3.426   3.721   3.742   3.964   3.972   4.283
  4.309   4.321   4.328   4.434   4.534   4.661   4.710
 --------------------------------------------------------------
 
          Ground-State Mulliken Net Atomic Charges

     Atom                 Charge (a.u.)
  ----------------------------------------
      1 S                     0.049738
      2 C                    -0.036583
      3 H                     0.188313
      4 C                    -0.400702
      5 H                     0.117990
      6 C                     0.338532
      7 H                     0.134325
      8 C                    -0.390579
      9 C                    -0.391003
     10 C                     0.338905
     11 H                     0.134199
     12 C                    -0.400841
     13 H                     0.117974
     14 C                    -0.037185
     15 H                     0.188293
     16 S                     0.048625
  ----------------------------------------
  Sum of atomic charges =     0.000000

 -----------------------------------------------------------------
                    Cartesian Multipole Moments
 -----------------------------------------------------------------
    Charge (ESU x 10^10)
                 0.0000
    Dipole Moment (Debye)
         X       0.2824      Y      -0.5319      Z      -0.5282
       Tot       0.8011
    Quadrupole Moments (Debye-Ang)
        XX     -64.1549     XY      -0.0776     YY     -73.6565
        XZ       5.0007     YZ       1.8885     ZZ     -68.3568
    Octopole Moments (Debye-Ang^2)
       XXX     157.4473    XXY     -10.8505    XYY      45.1060
       YYY     -50.8701    XXZ     106.0042    XYZ       0.5925
       YYZ     134.7687    XZZ      41.3477    YZZ     -22.0256
       ZZZ     415.8838
    Hexadecapole Moments (Debye-Ang^3)
      XXXX   -1751.1044   XXXY      72.7100   XXYY    -362.0345
      XYYY     109.5166   YYYY    -367.1186   XXXZ    -599.8428
      XXYZ      18.9123   XYYZ    -210.4695   YYYZ     121.0033
      XXZZ    -578.1282   XYZZ      36.0912   YYZZ    -456.7127
      XZZZ    -682.1863   YZZZ     133.1555   ZZZZ   -2518.4456
 -----------------------------------------------------------------
 Calculating analytic gradient of the SCF energy
 Gradient of SCF Energy
            1           2           3           4           5           6
    1   0.0000143  -0.0001193   0.0000225   0.0001247  -0.0000082  -0.0001784
    2  -0.0000601  -0.0000480   0.0000403   0.0000132  -0.0000157   0.0008658
    3   0.0001160  -0.0000487  -0.0000063   0.0000641  -0.0000144   0.0000474
            7           8           9          10          11          12
    1  -0.0000270   0.0001696   0.0003411  -0.0003170   0.0000046  -0.0001262
    2   0.0000599  -0.0013020   0.0003645   0.0000064  -0.0000057   0.0000023
    3  -0.0000156   0.0003403  -0.0013077   0.0008637   0.0000683  -0.0000552
           13          14          15          16
    1   0.0000201   0.0001330  -0.0000275  -0.0000263
    2  -0.0000080   0.0000113  -0.0000192   0.0000949
    3  -0.0000058   0.0000176   0.0000134  -0.0000772
 Max gradient component =       1.308E-03
 RMS gradient           =       3.401E-04
 Gradient time:  CPU 2.07 s  wall 2.08 s
 Geometry Optimization Parameters
   NAtoms,    NIC,     NZ,  NCons,   NDum,   NFix, NCnnct, MaxDiis
       16     111       0       1       0       0       0       0

 Cartesian Hessian Update
 Hessian Updated using BFGS Update


** CONSTRAINED OPTIMIZATION IN DELOCALIZED INTERNAL COORDINATES **
   Searching for a Minimum

   Optimization Cycle:   4

                       Coordinates (Angstroms)
     ATOM                X               Y               Z
      1  S         0.0165431828    0.0813234340    0.0189139157
      2  C         1.7477868314    0.0287575865    0.0046145078
      3  H         2.2986991416    0.0365527650    0.9354796681
      4  C         2.2428606847   -0.0212222169   -1.2724528951
      5  H         3.3017689792   -0.0595155079   -1.5014159567
      6  C         1.2141763434   -0.0116868625   -2.2618601397
      7  H         1.3949674544   -0.0336256001   -3.3305881754
      8  C        -0.0552410255    0.0354206009   -1.7343786263
      9  C        -1.3361679285    0.0609809505   -2.4494804850
     10  C        -2.0209089205   -0.9921328576   -3.0099379887
     11  H        -1.6513104925   -2.0105176566   -2.9667195734
     12  C        -3.2458548222   -0.6081646809   -3.6339485000
     13  H        -3.9156052905   -1.3016217700   -4.1296534222
     14  C        -3.4902154193    0.7366805259   -3.5342992596
     15  H        -4.3383326951    1.2918731133   -3.9121022288
     16  S        -2.2246788733    1.5571436965   -2.6828338707
   Point Group: c1    Number of degrees of freedom:    42


   Energy is  -1104.837388441

              Constraints and their Current Values
                                        Value     Constraint
   Dihedral:        6   8   9  10       80.000       80.000
 Hessian Updated using BFGS Update

 40 Hessian modes will be used to form the next step
  Hessian Eigenvalues:
     0.019769    0.044432    0.045000    0.045000    0.045000    0.045002
     0.045002    0.045003    0.045011    0.045035    0.047373    0.158589
     0.159941    0.159991    0.159999    0.160140    0.161051    0.220319
     0.221371    0.222934    0.237836    0.249992    0.279400    0.291227
     0.294451    0.312572    0.314426    0.354753    0.354872    0.355129
     0.355482    0.358274    0.358807    0.382083    0.404882    0.450124
     0.458393    0.463593    0.497934    0.515140

 Minimum Search - Taking Simple RFO Step
 Searching for Lamda that Minimizes Along All modes
 Value Taken    Lamda =  -0.00000304
 Step Taken.  Stepsize is  0.011119

                             Maximum     Tolerance    Cnvgd?
         Gradient           0.000257      0.000300     YES
         Displacement       0.008949      0.001200      NO
         Energy change     -0.000005      0.000001      NO


 New Cartesian Coordinates Obtained by Inverse Iteration

 Displacement from previous Coordinates is:  0.019825
 ----------------------------------------------------------------
             Standard Nuclear Orientation (Angstroms)
    I     Atom           X                Y                Z
 ----------------------------------------------------------------
    1      S       0.0162895239     0.0838523047     0.0186170994
    2      C       1.7475819482     0.0310234469     0.0047455054
    3      H       2.2984509208     0.0397129399     0.9356282961
    4      C       2.2426646369    -0.0216540844    -1.2721895397
    5      H       3.3016143940    -0.0608368073    -1.5007616276
    6      C       1.2141096470    -0.0136849139    -2.2617488176
    7      H       1.3948773768    -0.0387168006    -3.3303908489
    8      C      -0.0555574245     0.0341622880    -1.7341977320
    9      C      -1.3355156610     0.0612633375    -2.4501862041
   10      C      -2.0200053535    -0.9918105576    -3.0116960264
   11      H      -1.6491509836    -2.0098262612    -2.9711203737
   12      C      -3.2455811932    -0.6077386486    -3.6343954505
   13      H      -3.9151286089    -1.3007235454    -4.1310155039
   14      C      -3.4910856047     0.7366965330    -3.5323041621
   15      H      -4.3395622551     1.2918668659    -3.9093331901
   16      S      -2.2255142131     1.5566594231    -2.6803144543
 ----------------------------------------------------------------
 Nuclear Repulsion Energy =   628.3186012143 hartrees
 There are       43 alpha and       43 beta electrons
 Applying Cartesian multipole field
    Component          Value
    ---------          -----
     (2,0,0)        1.00000E-11
     (0,2,0)        2.00000E-11
     (0,0,2)       -3.00000E-11
 Nucleus-field energy     =    -0.0000000336 hartrees
 Requested basis set is 6-31++G(d,p)
 There are 76 shells and 234 basis functions
 A cutoff of  1.0D-12 yielded   2525 shell pairs
 There are     24869 function pairs

 Q-Chem warning in module /project/projectdirs/jcesr/qchem/qc44/cnl_qc441/compile/cori/qc_src/libqints/qchem/aobasis.C, line 68:

 Using reconstructed effective core potential

 Smallest overlap matrix eigenvalue = 1.21E-06
 Guess MOs from SCF MO coefficient file
 Reading MOs from coefficient file
 Reading MOs from coefficient file
 A restricted hybrid HF-DFT SCF calculation will be
 performed using Pulay DIIS extrapolation
 Exchange:     0.2000 Hartree-Fock + 0.0800 Slater + 0.7200 B88
 Correlation:  0.1900 VWN1RPA + 0.8100 LYP
 Using SG-1 standard quadrature grid
 SCF converges when DIIS error is below 1.0E-08
 Geometry optimization detected.  Setting ReadMinima to 0
 Setting SaveMinima to 0
 ---------------------------------------
  Cycle       Energy         DIIS Error
 ---------------------------------------
    1   -1104.8367410420      8.67E-05
    2   -1104.8373897621      8.18E-06
    3   -1104.8373889752      1.39E-05
    4   -1104.8373903761      3.45E-06
    5   -1104.8373904556      9.37E-07
    6   -1104.8373904605      5.04E-07
    7   -1104.8373904634      1.49E-07
    8   -1104.8373904608      4.90E-08
    9   -1104.8373904604      6.99E-09 Convergence criterion met
 ---------------------------------------
 SCF time:  CPU 4.95 s  wall 4.66 s
 SCF   energy in the final basis set = -1104.8373904604
 Total energy in the final basis set = -1104.8373904604
 
 --------------------------------------------------------------
 
                    Orbital Energies (a.u.)
 --------------------------------------------------------------
 
 Alpha MOs
 -- Occupied --
-88.919 -88.919 -10.236 -10.235 -10.225 -10.225 -10.204 -10.204
-10.203 -10.203  -7.978  -7.978  -5.942  -5.942  -5.939  -5.939
 -5.936  -5.935  -0.898  -0.877  -0.768  -0.743  -0.740  -0.705
 -0.600  -0.567  -0.564  -0.534  -0.523  -0.478  -0.417  -0.413
 -0.413  -0.405  -0.394  -0.375  -0.375  -0.351  -0.350  -0.264
 -0.257  -0.250  -0.237
 -- Virtual --
 -0.038  -0.029  -0.006  -0.002   0.006   0.013   0.020   0.024
  0.026   0.034   0.035   0.042   0.045   0.046   0.065   0.068
  0.071   0.071   0.082   0.101   0.102   0.107   0.108   0.115
  0.115   0.118   0.124   0.128   0.132   0.133   0.138   0.142
  0.145   0.151   0.158   0.162   0.166   0.173   0.179   0.183
  0.184   0.190   0.192   0.205   0.213   0.218   0.221   0.228
  0.245   0.251   0.252   0.266   0.273   0.274   0.298   0.299
  0.306   0.315   0.327   0.331   0.356   0.365   0.372   0.393
  0.432   0.471   0.477   0.492   0.522   0.529   0.552   0.576
  0.581   0.588   0.611   0.640   0.645   0.659   0.672   0.677
  0.685   0.698   0.726   0.726   0.737   0.760   0.768   0.769
  0.790   0.802   0.806   0.828   0.842   0.897   0.908   0.943
  0.950   0.959   0.963   0.968   0.969   0.988   0.993   1.017
  1.018   1.023   1.044   1.045   1.078   1.097   1.101   1.107
  1.130   1.185   1.215   1.219   1.240   1.287   1.325   1.348
  1.352   1.357   1.362   1.393   1.453   1.465   1.489   1.522
  1.569   1.692   1.694   1.784   1.831   1.848   1.876   1.881
  1.915   1.924   1.952   1.963   2.016   2.018   2.062   2.095
  2.129   2.165   2.189   2.201   2.213   2.249   2.261   2.332
  2.366   2.371   2.432   2.441   2.463   2.478   2.491   2.511
  2.514   2.526   2.581   2.585   2.619   2.639   2.697   2.703
  2.759   2.820   2.865   2.875   2.935   3.162   3.178   3.269
  3.271   3.401   3.426   3.721   3.742   3.964   3.973   4.283
  4.309   4.321   4.328   4.434   4.534   4.661   4.710
 --------------------------------------------------------------
 
          Ground-State Mulliken Net Atomic Charges

     Atom                 Charge (a.u.)
  ----------------------------------------
      1 S                     0.049474
      2 C                    -0.036650
      3 H                     0.188347
      4 C                    -0.401475
      5 H                     0.117976
      6 C                     0.338394
      7 H                     0.134364
      8 C                    -0.389052
      9 C                    -0.390172
     10 C                     0.338976
     11 H                     0.134235
     12 C                    -0.401779
     13 H                     0.117953
     14 C                    -0.037298
     15 H                     0.188324
     16 S                     0.048382
  ----------------------------------------
  Sum of atomic charges =     0.000000

 -----------------------------------------------------------------
                    Cartesian Multipole Moments
 -----------------------------------------------------------------
    Charge (ESU x 10^10)
                 0.0000
    Dipole Moment (Debye)
         X       0.2825      Y      -0.5319      Z      -0.5283
       Tot       0.8011
    Quadrupole Moments (Debye-Ang)
        XX     -64.1543     XY      -0.0891     YY     -73.6594
        XZ       5.0017     YZ       1.9066     ZZ     -68.3532
    Octopole Moments (Debye-Ang^2)
       XXX     157.4552    XXY     -10.8463    XYY      45.1330
       YYY     -50.9325    XXZ     105.9892    XYZ       0.6189
       YYZ     134.7464    XZZ      41.3622    YZZ     -22.1290
       ZZZ     415.7862
    Hexadecapole Moments (Debye-Ang^3)
      XXXX   -1751.1101   XXXY      72.6095   XXYY    -362.0720
      XYYY     109.5617   YYYY    -367.0200   XXXZ    -599.6340
      XXYZ      18.8019   XYYZ    -210.4720   YYYZ     120.6141
      XXZZ    -578.0963   XYZZ      36.1768   YYZZ    -456.5219
      XZZZ    -682.0647   YZZZ     133.1853   ZZZZ   -2517.4000
 -----------------------------------------------------------------
 Calculating analytic gradient of the SCF energy
 Gradient of SCF Energy
            1           2           3           4           5           6
    1   0.0000313  -0.0000644   0.0000381   0.0001106  -0.0000145  -0.0000460
    2  -0.0000611  -0.0000123   0.0000196   0.0000204  -0.0000154   0.0010077
    3  -0.0000393  -0.0000305  -0.0000097   0.0001006   0.0000082  -0.0001117
            7           8           9          10          11          12
    1  -0.0000273  -0.0003118   0.0007136  -0.0003977   0.0000248  -0.0001335
    2  -0.0000082  -0.0015606   0.0008126  -0.0001931   0.0000080   0.0000311
    3  -0.0000054   0.0005704  -0.0013015   0.0009269   0.0000112  -0.0000466
           13          14          15          16
    1   0.0000121   0.0000751  -0.0000290   0.0000186
    2   0.0000134   0.0000016  -0.0000294  -0.0000342
    3  -0.0000042   0.0000229  -0.0000126  -0.0000788
 Max gradient component =       1.561E-03
 RMS gradient           =       4.052E-04
 Gradient time:  CPU 2.09 s  wall 2.08 s
 Geometry Optimization Parameters
   NAtoms,    NIC,     NZ,  NCons,   NDum,   NFix, NCnnct, MaxDiis
       16     111       0       1       0       0       0       0

 Cartesian Hessian Update
 Hessian Updated using BFGS Update


** CONSTRAINED OPTIMIZATION IN DELOCALIZED INTERNAL COORDINATES **
   Searching for a Minimum

   Optimization Cycle:   5

                       Coordinates (Angstroms)
     ATOM                X               Y               Z
      1  S         0.0162895239    0.0838523047    0.0186170994
      2  C         1.7475819482    0.0310234469    0.0047455054
      3  H         2.2984509208    0.0397129399    0.9356282961
      4  C         2.2426646369   -0.0216540844   -1.2721895397
      5  H         3.3016143940   -0.0608368073   -1.5007616276
      6  C         1.2141096470   -0.0136849139   -2.2617488176
      7  H         1.3948773768   -0.0387168006   -3.3303908489
      8  C        -0.0555574245    0.0341622880   -1.7341977320
      9  C        -1.3355156610    0.0612633375   -2.4501862041
     10  C        -2.0200053535   -0.9918105576   -3.0116960264
     11  H        -1.6491509836   -2.0098262612   -2.9711203737
     12  C        -3.2455811932   -0.6077386486   -3.6343954505
     13  H        -3.9151286089   -1.3007235454   -4.1310155039
     14  C        -3.4910856047    0.7366965330   -3.5323041621
     15  H        -4.3395622551    1.2918668659   -3.9093331901
     16  S        -2.2255142131    1.5566594231   -2.6803144543
   Point Group: c1    Number of degrees of freedom:    42


   Energy is  -1104.837390460

              Constraints and their Current Values
                                        Value     Constraint
   Dihedral:        6   8   9  10       80.000       80.000
 Hessian Updated using BFGS Update

 38 Hessian modes will be used to form the next step
  Hessian Eigenvalues:
     0.012179    0.043027    0.045000    0.045000    0.045003    0.045004
     0.045011    0.045462    0.047608    0.155021    0.159945    0.159991
     0.160000    0.160096    0.161613    0.219282    0.221291    0.230156
     0.237846    0.250001    0.281012    0.294306    0.296814    0.312570
     0.314680    0.354757    0.354870    0.355129    0.355490    0.358273
     0.358947    0.399877    0.404884    0.444311    0.463581    0.477785
     0.497934    0.512604

 Minimum Search - Taking Simple RFO Step
 Searching for Lamda that Minimizes Along All modes
 Value Taken    Lamda =  -0.00000131
 Step Taken.  Stepsize is  0.008982

                             Maximum     Tolerance    Cnvgd?
         Gradient           0.000163      0.000300     YES
         Displacement       0.007189      0.001200      NO
         Energy change     -0.000002      0.000001      NO


 New Cartesian Coordinates Obtained by Inverse Iteration

 Displacement from previous Coordinates is:  0.019227
 ----------------------------------------------------------------
             Standard Nuclear Orientation (Angstroms)
    I     Atom           X                Y                Z
 ----------------------------------------------------------------
    1      S       0.0158117940     0.0859644192     0.0177972501
    2      C       1.7471573938     0.0331820678     0.0049381279
    3      H       2.2974129812     0.0432406422     0.9361510233
    4      C       2.2427173287    -0.0219190919    -1.2717336082
    5      H       3.3018041657    -0.0613133544    -1.4997229747
    6      C       1.2147475258    -0.0157313656    -2.2617330395
    7      H       1.3961846632    -0.0428738792    -3.3302009517
    8      C      -0.0553086319     0.0326133975    -1.7348365633
    9      C      -1.3347254799     0.0607034903    -2.4514545577
   10      C      -2.0195339155    -0.9918699846    -3.0138073385
   11      H      -1.6483572891    -2.0098421655    -2.9753274512
   12      C      -3.2456869075    -0.6073064741    -3.6347836831
   13      H      -3.9155023125    -1.2998174457    -4.1317450251
   14      C      -3.4918319982     0.7368528805    -3.5302878215
   15      H      -4.3406440126     1.2924638146    -3.9058594832
   16      S      -2.2257581552     1.5558985691    -2.6780569337
 ----------------------------------------------------------------
 Nuclear Repulsion Energy =   628.3541607934 hartrees
 There are       43 alpha and       43 beta electrons
 Applying Cartesian multipole field
    Component          Value
    ---------          -----
     (2,0,0)        1.00000E-11
     (0,2,0)        2.00000E-11
     (0,0,2)       -3.00000E-11
 Nucleus-field energy     =    -0.0000000336 hartrees
 Requested basis set is 6-31++G(d,p)
 There are 76 shells and 234 basis functions
 A cutoff of  1.0D-12 yielded   2525 shell pairs
 There are     24869 function pairs

 Q-Chem warning in module /project/projectdirs/jcesr/qchem/qc44/cnl_qc441/compile/cori/qc_src/libqints/qchem/aobasis.C, line 68:

 Using reconstructed effective core potential

 Smallest overlap matrix eigenvalue = 1.22E-06
 Guess MOs from SCF MO coefficient file
 Reading MOs from coefficient file
 Reading MOs from coefficient file
 A restricted hybrid HF-DFT SCF calculation will be
 performed using Pulay DIIS extrapolation
 Exchange:     0.2000 Hartree-Fock + 0.0800 Slater + 0.7200 B88
 Correlation:  0.1900 VWN1RPA + 0.8100 LYP
 Using SG-1 standard quadrature grid
 SCF converges when DIIS error is below 1.0E-08
 Geometry optimization detected.  Setting ReadMinima to 0
 Setting SaveMinima to 0
 ---------------------------------------
  Cycle       Energy         DIIS Error
 ---------------------------------------
    1   -1104.8368367444      7.67E-05
    2   -1104.8373904486      9.65E-06
    3   -1104.8373891465      1.66E-05
    4   -1104.8373913196      2.70E-06
    5   -1104.8373913671      1.04E-06
    6   -1104.8373913735      5.96E-07
    7   -1104.8373913757      1.55E-07
    8   -1104.8373913741      4.04E-08
    9   -1104.8373913745      6.45E-09 Convergence criterion met
 ---------------------------------------
 SCF time:  CPU 5.01 s  wall 4.74 s
 SCF   energy in the final basis set = -1104.8373913745
 Total energy in the final basis set = -1104.8373913745
 
 --------------------------------------------------------------
 
                    Orbital Energies (a.u.)
 --------------------------------------------------------------
 
 Alpha MOs
 -- Occupied --
-88.919 -88.919 -10.236 -10.235 -10.225 -10.225 -10.204 -10.204
-10.203 -10.203  -7.978  -7.978  -5.942  -5.942  -5.939  -5.939
 -5.936  -5.935  -0.898  -0.877  -0.768  -0.743  -0.740  -0.705
 -0.600  -0.567  -0.564  -0.534  -0.523  -0.478  -0.417  -0.413
 -0.413  -0.405  -0.394  -0.375  -0.375  -0.351  -0.350  -0.264
 -0.257  -0.250  -0.236
 -- Virtual --
 -0.038  -0.029  -0.006  -0.002   0.006   0.013   0.020   0.024
  0.026   0.034   0.035   0.042   0.045   0.046   0.065   0.068
  0.071   0.071   0.083   0.101   0.102   0.107   0.108   0.115
  0.115   0.118   0.124   0.128   0.132   0.133   0.138   0.142
  0.145   0.151   0.158   0.162   0.166   0.173   0.179   0.183
  0.184   0.190   0.192   0.205   0.213   0.218   0.221   0.228
  0.245   0.251   0.252   0.266   0.273   0.274   0.298   0.299
  0.306   0.315   0.327   0.331   0.356   0.365   0.372   0.393
  0.432   0.471   0.477   0.492   0.522   0.529   0.552   0.576
  0.581   0.588   0.611   0.640   0.645   0.659   0.672   0.677
  0.686   0.698   0.726   0.726   0.737   0.760   0.768   0.769
  0.789   0.802   0.805   0.828   0.842   0.897   0.907   0.943
  0.950   0.959   0.963   0.968   0.969   0.988   0.993   1.017
  1.018   1.023   1.044   1.045   1.079   1.097   1.101   1.107
  1.130   1.184   1.215   1.219   1.240   1.286   1.325   1.348
  1.352   1.357   1.361   1.393   1.453   1.465   1.489   1.522
  1.569   1.692   1.694   1.784   1.830   1.848   1.876   1.881
  1.915   1.924   1.952   1.963   2.017   2.018   2.062   2.095
  2.129   2.165   2.189   2.201   2.213   2.250   2.261   2.332
  2.366   2.371   2.432   2.441   2.463   2.478   2.491   2.511
  2.514   2.526   2.581   2.586   2.619   2.639   2.697   2.703
  2.759   2.820   2.865   2.875   2.935   3.162   3.178   3.269
  3.271   3.401   3.426   3.721   3.742   3.964   3.973   4.283
  4.309   4.321   4.328   4.434   4.534   4.661   4.710
 --------------------------------------------------------------
 
          Ground-State Mulliken Net Atomic Charges

     Atom                 Charge (a.u.)
  ----------------------------------------
      1 S                     0.048949
      2 C                    -0.036525
      3 H                     0.188405
      4 C                    -0.402375
      5 H                     0.117961
      6 C                     0.339087
      7 H                     0.134397
      8 C                    -0.388348
      9 C                    -0.389827
     10 C                     0.339794
     11 H                     0.134266
     12 C                    -0.402774
     13 H                     0.117935
     14 C                    -0.037189
     15 H                     0.188383
     16 S                     0.047862
  ----------------------------------------
  Sum of atomic charges =     0.000000

 -----------------------------------------------------------------
                    Cartesian Multipole Moments
 -----------------------------------------------------------------
    Charge (ESU x 10^10)
                 0.0000
    Dipole Moment (Debye)
         X       0.2819      Y      -0.5308      Z      -0.5271
       Tot       0.7994
    Quadrupole Moments (Debye-Ang)
        XX     -64.1489     XY      -0.0942     YY     -73.6598
        XZ       4.9986     YZ       1.9221     ZZ     -68.3588
    Octopole Moments (Debye-Ang^2)
       XXX     157.4161    XXY     -10.8220    XYY      45.1378
       YYY     -50.9529    XXZ     105.9854    XYZ       0.6334
       YYZ     134.7366    XZZ      41.4063    YZZ     -22.2030
       ZZZ     415.8042
    Hexadecapole Moments (Debye-Ang^3)
      XXXX   -1751.0252   XXXY      72.4575   XXYY    -362.0543
      XYYY     109.5053   YYYY    -366.8692   XXXZ    -599.4239
      XXYZ      18.6821   XYYZ    -210.4297   YYYZ     120.1759
      XXZZ    -578.1993   XYZZ      36.2604   YYZZ    -456.3769
      XZZZ    -682.1510   YZZZ     133.1027   ZZZZ   -2516.9996
 -----------------------------------------------------------------
 Calculating analytic gradient of the SCF energy
 Gradient of SCF Energy
            1           2           3           4           5           6
    1   0.0000253  -0.0000022   0.0000202   0.0000206  -0.0000040   0.0000657
    2  -0.0000381   0.0000043   0.0000098   0.0000132  -0.0000046   0.0010896
    3  -0.0000914   0.0000052  -0.0000078   0.0000340   0.0000102  -0.0001110
            7           8           9          10          11          12
    1  -0.0000126  -0.0004982   0.0008848  -0.0005103   0.0000186  -0.0000338
    2  -0.0000349  -0.0017271   0.0009965  -0.0002460   0.0000093   0.0000111
    3   0.0000036   0.0006565  -0.0013526   0.0009368  -0.0000157  -0.0000036
           13          14          15          16
    1  -0.0000016   0.0000086  -0.0000126   0.0000316
    2   0.0000075   0.0000049  -0.0000200  -0.0000756
    3   0.0000016   0.0000006  -0.0000129  -0.0000536
 Max gradient component =       1.727E-03
 RMS gradient           =       4.495E-04
 Gradient time:  CPU 2.07 s  wall 2.05 s
 Geometry Optimization Parameters
   NAtoms,    NIC,     NZ,  NCons,   NDum,   NFix, NCnnct, MaxDiis
       16     111       0       1       0       0       0       0

 Cartesian Hessian Update
 Hessian Updated using BFGS Update


** CONSTRAINED OPTIMIZATION IN DELOCALIZED INTERNAL COORDINATES **
   Searching for a Minimum

   Optimization Cycle:   6

                       Coordinates (Angstroms)
     ATOM                X               Y               Z
      1  S         0.0158117940    0.0859644192    0.0177972501
      2  C         1.7471573938    0.0331820678    0.0049381279
      3  H         2.2974129812    0.0432406422    0.9361510233
      4  C         2.2427173287   -0.0219190919   -1.2717336082
      5  H         3.3018041657   -0.0613133544   -1.4997229747
      6  C         1.2147475258   -0.0157313656   -2.2617330395
      7  H         1.3961846632   -0.0428738792   -3.3302009517
      8  C        -0.0553086319    0.0326133975   -1.7348365633
      9  C        -1.3347254799    0.0607034903   -2.4514545577
     10  C        -2.0195339155   -0.9918699846   -3.0138073385
     11  H        -1.6483572891   -2.0098421655   -2.9753274512
     12  C        -3.2456869075   -0.6073064741   -3.6347836831
     13  H        -3.9155023125   -1.2998174457   -4.1317450251
     14  C        -3.4918319982    0.7368528805   -3.5302878215
     15  H        -4.3406440126    1.2924638146   -3.9058594832
     16  S        -2.2257581552    1.5558985691   -2.6780569337
   Point Group: c1    Number of degrees of freedom:    42


   Energy is  -1104.837391375

              Constraints and their Current Values
                                        Value     Constraint
   Dihedral:        6   8   9  10       80.000       80.000
 Hessian Updated using BFGS Update

 39 Hessian modes will be used to form the next step
  Hessian Eigenvalues:
     0.008608    0.040227    0.045000    0.045001    0.045002    0.045004
     0.045011    0.045038    0.045567    0.046704    0.149929    0.159950
     0.159991    0.160001    0.160110    0.160778    0.208343    0.221290
     0.225961    0.237848    0.250035    0.284546    0.294378    0.301603
     0.312561    0.314807    0.354780    0.355104    0.355133    0.355431
     0.358272    0.358888    0.400459    0.404892    0.445968    0.463593
     0.484455    0.497933    0.511759

 Minimum Search - Taking Simple RFO Step
 Searching for Lamda that Minimizes Along All modes
 Value Taken    Lamda =   0.00000000
 Step Taken.  Stepsize is  0.007040

                             Maximum     Tolerance    Cnvgd?
         Gradient           0.000134      0.000300     YES
         Displacement       0.005326      0.001200      NO
         Energy change     -0.000001      0.000001     YES

 Final energy is   -1104.83739137454     


 ******************************
 **  OPTIMIZATION CONVERGED  **
 ******************************

                       Coordinates (Angstroms)
     ATOM                X               Y               Z
      1  S         0.0158117940    0.0859644192    0.0177972501
      2  C         1.7471573938    0.0331820678    0.0049381279
      3  H         2.2974129812    0.0432406422    0.9361510233
      4  C         2.2427173287   -0.0219190919   -1.2717336082
      5  H         3.3018041657   -0.0613133544   -1.4997229747
      6  C         1.2147475258   -0.0157313656   -2.2617330395
      7  H         1.3961846632   -0.0428738792   -3.3302009517
      8  C        -0.0553086319    0.0326133975   -1.7348365633
      9  C        -1.3347254799    0.0607034903   -2.4514545577
     10  C        -2.0195339155   -0.9918699846   -3.0138073385
     11  H        -1.6483572891   -2.0098421655   -2.9753274512
     12  C        -3.2456869075   -0.6073064741   -3.6347836831
     13  H        -3.9155023125   -1.2998174457   -4.1317450251
     14  C        -3.4918319982    0.7368528805   -3.5302878215
     15  H        -4.3406440126    1.2924638146   -3.9058594832
     16  S        -2.2257581552    1.5558985691   -2.6780569337

Z-matrix Print:
$molecule
0 1
S 
C  1 1.732073
H  2 1.081776 1 120.099066
C  2 1.370500 1 111.716560 3 179.854831 0
H  4 1.084064 2 123.402262 1 179.973106 0
C  4 1.427218 2 112.668357 1 0.273483 0
H  6 1.084214 4 124.232056 2 179.253732 0
C  6 1.375905 4 113.534245 2 -0.535151 0
C  8 1.466710 6 128.257814 4 179.776684 0
C  9 1.375863 8 128.227550 6 80.000000 0
H  10 1.084103 9 122.195147 8 -0.238758 0
C  10 1.427186 9 113.540182 8 179.582607 0
H  12 1.084065 10 123.914366 9 179.745667 0
C  12 1.370586 10 112.677116 9 -0.512891 0
H  14 1.081684 12 128.195430 10 -179.902602 0
S  14 1.732198 12 111.686631 10 0.269124 0
$end

 
 --------------------------------------------------------------
 
                    Orbital Energies (a.u.)
 --------------------------------------------------------------
 
 Alpha MOs
 -- Occupied --
-88.919 -88.919 -10.236 -10.235 -10.225 -10.225 -10.204 -10.204
-10.203 -10.203  -7.978  -7.978  -5.942  -5.942  -5.939  -5.939
 -5.936  -5.935  -0.898  -0.877  -0.768  -0.743  -0.740  -0.705
 -0.600  -0.567  -0.564  -0.534  -0.523  -0.478  -0.417  -0.413
 -0.413  -0.405  -0.394  -0.375  -0.375  -0.351  -0.350  -0.264
 -0.257  -0.250  -0.236
 -- Virtual --
 -0.038  -0.029  -0.006  -0.002   0.006   0.013   0.020   0.024
  0.026   0.034   0.035   0.042   0.045   0.046   0.065   0.068
  0.071   0.071   0.083   0.101   0.102   0.107   0.108   0.115
  0.115   0.118   0.124   0.128   0.132   0.133   0.138   0.142
  0.145   0.151   0.158   0.162   0.166   0.173   0.179   0.183
  0.184   0.190   0.192   0.205   0.213   0.218   0.221   0.228
  0.245   0.251   0.252   0.266   0.273   0.274   0.298   0.299
  0.306   0.315   0.327   0.331   0.356   0.365   0.372   0.393
  0.432   0.471   0.477   0.492   0.522   0.529   0.552   0.576
  0.581   0.588   0.611   0.640   0.645   0.659   0.672   0.677
  0.686   0.698   0.726   0.726   0.737   0.760   0.768   0.769
  0.789   0.802   0.805   0.828   0.842   0.897   0.907   0.943
  0.950   0.959   0.963   0.968   0.969   0.988   0.993   1.017
  1.018   1.023   1.044   1.045   1.079   1.097   1.101   1.107
  1.130   1.184   1.215   1.219   1.240   1.286   1.325   1.348
  1.352   1.357   1.361   1.393   1.453   1.465   1.489   1.522
  1.569   1.692   1.694   1.784   1.830   1.848   1.876   1.881
  1.915   1.924   1.952   1.963   2.017   2.018   2.062   2.095
  2.129   2.165   2.189   2.201   2.213   2.250   2.261   2.332
  2.366   2.371   2.432   2.441   2.463   2.478   2.491   2.511
  2.514   2.526   2.581   2.586   2.619   2.639   2.697   2.703
  2.759   2.820   2.865   2.875   2.935   3.162   3.178   3.269
  3.271   3.401   3.426   3.721   3.742   3.964   3.973   4.283
  4.309   4.321   4.328   4.434   4.534   4.661   4.710
 --------------------------------------------------------------
 
          Ground-State Mulliken Net Atomic Charges

     Atom                 Charge (a.u.)
  ----------------------------------------
      1 S                     0.048949
      2 C                    -0.036525
      3 H                     0.188405
      4 C                    -0.402375
      5 H                     0.117961
      6 C                     0.339087
      7 H                     0.134397
      8 C                    -0.388348
      9 C                    -0.389827
     10 C                     0.339794
     11 H                     0.134266
     12 C                    -0.402774
     13 H                     0.117935
     14 C                    -0.037189
     15 H                     0.188383
     16 S                     0.047862
  ----------------------------------------
  Sum of atomic charges =     0.000000

 -----------------------------------------------------------------
                    Cartesian Multipole Moments
 -----------------------------------------------------------------
    Charge (ESU x 10^10)
                 0.0000
    Dipole Moment (Debye)
         X       0.2819      Y      -0.5308      Z      -0.5271
       Tot       0.7994
    Quadrupole Moments (Debye-Ang)
        XX     -64.1489     XY      -0.0942     YY     -73.6598
        XZ       4.9986     YZ       1.9221     ZZ     -68.3588
    Octopole Moments (Debye-Ang^2)
       XXX     157.4161    XXY     -10.8220    XYY      45.1378
       YYY     -50.9529    XXZ     105.9854    XYZ       0.6334
       YYZ     134.7366    XZZ      41.4063    YZZ     -22.2030
       ZZZ     415.8042
    Hexadecapole Moments (Debye-Ang^3)
      XXXX   -1751.0252   XXXY      72.4575   XXYY    -362.0543
      XYYY     109.5053   YYYY    -366.8692   XXXZ    -599.4239
      XXYZ      18.6821   XYYZ    -210.4297   YYYZ     120.1759
      XXZZ    -578.1993   XYZZ      36.2604   YYZZ    -456.3769
      XZZZ    -682.1510   YZZZ     133.1027   ZZZZ   -2516.9996
 -----------------------------------------------------------------
Archival summary:
1\1\nid00481\OPT\ProcedureUnspecified\BasisUnspecified\286\bwood\WedMay3102:25:342017WedMay3102:25:342017\0\\#,OPT,ProcedureUnspecified,BasisUnspecified,\\0,1\S\C,1,1.73207\H,2,1.08178,1,120.099\C,2,1.3705,1,111.717,3,179.855,0\H,4,1.08406,2,123.402,1,179.973,0\C,4,1.42722,2,112.668,1,0.273483,0\H,6,1.08421,4,124.232,2,179.254,0\C,6,1.3759,4,113.534,2,-0.535151,0\C,8,1.46671,6,128.258,4,179.777,0\C,9,1.37586,8,128.228,6,80,0\H,10,1.0841,9,122.195,8,-0.238758,0\C,10,1.42719,9,113.54,8,179.583,0\H,12,1.08406,10,123.914,9,179.746,0\C,12,1.37059,10,112.677,9,-0.512891,0\H,14,1.08168,12,128.195,10,-179.903,0\S,14,1.7322,12,111.687,10,0.269124,0\\\@

 Total job time:  48.06s(wall), 47.67s(cpu) 
 Wed May 31 02:25:34 2017

        *************************************************************
        *                                                           *
        *  Thank you very much for using Q-Chem.  Have a nice day.  *
        *                                                           *
        *************************************************************


0 sent ACK to 0 
now end server 0 ... 
