srun -N 1 --ntasks-per-node 16 --cpus-per-task 4 --cpu_bind=cores --nodelist nid00482 /global/project/projectdirs/jcesr/qchem/qc44/cnl_qc441/dist/exe/qcprog.cori.haswell.exe .pt_n2_neutral_-170.0.in.48759.qcin.1 /global/cscratch1/sd/bwood/qchem/nx/qchem48759/
Process 0 of 16 is on nid00482 - thread support 0
Process 1 of 16 is on nid00482 - thread support 0
Process 2 of 16 is on nid00482 - thread support 0
Process 3 of 16 is on nid00482 - thread support 0
Process 4 of 16 is on nid00482 - thread support 0
Process 5 of 16 is on nid00482 - thread support 0
Process 6 of 16 is on nid00482 - thread support 0
initial socket setup ...start
Process 15 of 16 is on nid00482 - thread support 0
initial socket setup ...done 
now start server 0 ... 
nid00482 10.128.1
Q-Chem Developer Version! Running on 10.128.1.*
                  Welcome to Q-Chem
     A Quantum Leap Into The Future Of Chemistry


 Q-Chem 4.4, Q-Chem, Inc., Pleasanton, CA (2016)

 Y. Shao,  Z. Gan,  E. Epifanovsky,  A. T. B. Gilbert,  M. Wormit,  
 J. Kussmann,  A. W. Lange,  A. Behn,  J. Deng,  X. Feng,  D. Ghosh,  
 M. Goldey,  P. R. Horn,  L. D. Jacobson,  I. Kaliman,  F. Rob,  
 R. Z. Khaliullin,  T. Kus,  A. Landau,  J. Liu,  E. I. Proynov,  Y. M. Rhee,  
 R. M. Richard,  M. A. Rohrdanz,  R. P. Steele,  E. J. Sundstrom,  
 H. L. Woodcock III,  P. M. Zimmerman,  D. Zuev,  B. Albrecht,  E. Alguire,  
 B. Austin,  S. A. Baeppler,  G. J. O. Beran,  Y. A. Bernard,  
 E. J. Berquist,  K. Brandhorst,  K. B. Bravaya,  S. T. Brown,  D. Casanova,  
 C.-M. Chang,  Y. Chen,  S. H. Chien,  K. D. Closser,  M. P. Coons,  
 D. L. Crittenden,  S. Dasgupta,  M. Diedenhofen,  R. A. DiStasio Jr.,  
 H. Do,  A. D. Dutoi,  R. G. Edgar,  P.-T. Fang,  S. Fatehi,  Q. Feng,  
 L. Fusti-Molnar,  A. Ghysels,  A. Golubeva-Zadorozhnaya,  J. Gomes,  
 A. Gunina,  M. W. D. Hanson-Heine,  P. H. P. Harbach,  A. W. Hauser,  
 J. E. Herr,  E. G. Hohenstein,  Z. C. Holden,  K. Hui,  T.-C. Jagau,  H. Ji,  
 B. Kaduk,  K. Khistyaev,  Jaehoon Kim,  Jihan Kim,  R. A. King,  
 P. Klunzinger,  K. Koh,  D. Kosenkov,  T. Kowalczyk,  C. M. Krauter,  
 A. Kunitsa,  K. U. Lao,  A. Laurent,  K. V. Lawler,  J. Lee,  D. Lefrancois,  
 S. Lehtola,  S. V. Levchenko,  C. Y. Lin,  Y.-S. Lin,  F. Liu,  E. Livshits,  
 R. C. Lochan,  A. Luenser,  P. Manohar,  S. F. Manzer,  S.-P. Mao,  Y. Mao,  
 N. Mardirossian,  A. V. Marenich,  L. A. Martinez-Martinez,  S. A. Maurer,  
 N. J. Mayhall,  J.-M. Mewes,  A. F. Morrison,  K. Nanda,  T. S. Nguyen-Beck,  
 C. M. Oana,  R. Olivares-Amaya,  D. P. O'Neill,  J. A. Parkhill,  
 T. M. Perrine,  R. Peverati,  P. A. Pieniazek,  F. Plasser,  A. Prociuk,  
 D. R. Rehn,  E. Rosta,  N. J. Russ,  N. Sergueev,  S. M. Sharada,  
 S. Sharma,  D. W. Small,  A. Sodt,  T. Stauch,  T. Stein,  D. Stuck,  
 Y.-C. Su,  A. J. W. Thom,  T. Tsuchimochi,  L. Vogt,  O. Vydrov,  T. Wang,  
 M. A. Watson,  J. Wenzel,  A. White,  C. F. Williams,  V. Vanovschi,  
 K. Yao,  S. Yeganeh,  S. R. Yost,  Z.-Q. You,  I. Y. Zhang,  X. Zhang,  
 Y. Zhao,  B. R. Brooks,  G. K. L. Chan,  D. M. Chipman,  C. J. Cramer,  
 W. A. Goddard III,  M. S. Gordon,  W. J. Hehre,  A. Klamt,  
 H. F. Schaefer III,  M. W. Schmidt,  C. D. Sherrill,  D. G. Truhlar,  
 A. Warshel,  X. Xu,  A. Aspuru-Guzik,  R. Baer,  A. T. Bell,  N. A. Besley,  
 J.-D. Chai,  A. Dreuw,  B. D. Dunietz,  T. R. Furlani,  S. R. Gwaltney,  
 C.-P. Hsu,  Y. Jung,  J. Kong,  D. S. Lambrecht,  W. Liang,  C. Ochsenfeld,  
 V. A. Rassolov,  L. V. Slipchenko,  J. E. Subotnik,  T. Van Voorhis,  
 J. M. Herbert,  A. I. Krylov,  P. M. W. Gill,  M. Head-Gordon

 Contributors to earlier versions of Q-Chem not listed above: 
 R. D. Adamson,  J. Baker,  E. F. C. Byrd,  A. K. Chakraborty,  C.-L. Cheng,  
 H. Dachsel,  R. J. Doerksen,  G. Hawkins,  A. Heyden,  S. Hirata,  
 G. Kedziora,  F. J. Keil,  C. Kelley,  P. P. Korambath,  W. Kurlancheek,  
 A. M. Lee,  M. S. Lee,  D. Liotard,  I. Lotan,  P. E. Maslen,  N. Nair,  
 D. Neuhauser,  R. Olson,  B. Peters,  J. Ritchie,  N. E. Schultz,  
 N. Shenvi,  A. C. Simmonett,  K. S. Thanthiriwatte,  Q. Wu,  W. Zhang

 Please cite Q-Chem as follows:
 Y. Shao et al., Mol. Phys. 113, 184-215 (2015)
 DOI: 10.1080/00268976.2014.952696

 Q-Chem 4.4.2 for Intel X86 EM64T Linux

 Parts of Q-Chem use Armadillo 5.200.1 (Boston Tea Smuggler).
 http://arma.sourceforge.net/

 Q-Chem begins on Wed May 31 02:24:50 2017  

Host: nid00447
0

     Scratch files written to /global/cscratch1/sd/bwood/qchem/nx/qchem48759.0//
 Parallel job on  16  processors

Checking the input file for inconsistencies... 	...done.

--------------------------------------------------------------
User input:
--------------------------------------------------------------
$molecule
 0  1
 S           0.00238887        0.06077275        0.00183269
 C           1.73707619        0.03315849        0.00323229
 H           2.27612737        0.05289032        0.94042557
 C           2.24169204       -0.01546201       -1.26965798
 H           3.30285780       -0.04005365       -1.48972496
 C           1.22479222       -0.01612968       -2.26811464
 H           1.42674790       -0.02650987       -3.33334501
 C          -0.05393771        0.02880388       -1.75170966
 C          -1.32450815        0.04889988       -2.45636342
 C          -2.59028196        0.27947397       -1.95767447
 H          -2.77814859        0.50102688       -0.91295513
 C          -3.61064674        0.23048879       -2.95132477
 H          -4.66195128        0.39547710       -2.74484898
 C          -3.12138231       -0.03521399       -4.20318600
 H          -3.66535902       -0.12026190       -5.13395850
 S          -1.39979365       -0.24810564       -4.18461445
$end


$rem
         jobtype = opt
        exchange = b3lyp
           basis = 6-31++g**
  max_scf_cycles = 150
      mem_static = 775
       mem_total = 7750
      sym_ignore = true
        symmetry = false
          thresh = 12
$end


$opt
CONSTRAINT
tors 6 8 9 10 -170.0
ENDCONSTRAINT
$end

--------------------------------------------------------------
 ----------------------------------------------------------------
             Standard Nuclear Orientation (Angstroms)
    I     Atom           X                Y                Z
 ----------------------------------------------------------------
    1      S       0.0023888700     0.0607727500     0.0018326900
    2      C       1.7370761900     0.0331584900     0.0032322900
    3      H       2.2761273700     0.0528903200     0.9404255700
    4      C       2.2416920400    -0.0154620100    -1.2696579800
    5      H       3.3028578000    -0.0400536500    -1.4897249600
    6      C       1.2247922200    -0.0161296800    -2.2681146400
    7      H       1.4267479000    -0.0265098700    -3.3333450100
    8      C      -0.0539377100     0.0288038800    -1.7517096600
    9      C      -1.3245081500     0.0488998800    -2.4563634200
   10      C      -2.5902819600     0.2794739700    -1.9576744700
   11      H      -2.7781485900     0.5010268800    -0.9129551300
   12      C      -3.6106467400     0.2304887900    -2.9513247700
   13      H      -4.6619512800     0.3954771000    -2.7448489800
   14      C      -3.1213823100    -0.0352139900    -4.2031860000
   15      H      -3.6653590200    -0.1202619000    -5.1339585000
   16      S      -1.3997936500    -0.2481056400    -4.1846144500
 ----------------------------------------------------------------
 Nuclear Repulsion Energy =   629.2022815007 hartrees
 There are       43 alpha and       43 beta electrons
 Requested basis set is 6-31++G(d,p)
 There are 76 shells and 234 basis functions

 Total QAlloc Memory Limit   7750 MB
 Mega-Array Size       758 MB
 MEM_STATIC part       775 MB
 A cutoff of  1.0D-12 yielded   2529 shell pairs
 There are     24905 function pairs

 Q-Chem warning in module /project/projectdirs/jcesr/qchem/qc44/cnl_qc441/compile/cori/qc_src/libqints/qchem/aobasis.C, line 68:

 Using reconstructed effective core potential

 
 -------------------------------------------------------
 OpenMP Integral Computing Module                       
 Release: version 1.0, May 2013, Q-Chem Inc. Pittsburgh 
 -------------------------------------------------------
 Integral Job Info:
 Integral job number is                      11
 Integral operator is                         1
 short-range coefficients                     0
 long-range coefficients              100000000
 Omega coefficients                           0
 if combine SR and LR in K                    0
 Integral screening is                        0
 Integral computing path is                   2
 max size of driver memory is            800000
 size of driver memory is                593474
 size of scratch memory is             15166112
 max col of scratch BK array               1296
 max len of scratch array in speh3          155
 max len of scratch index in speh4           18
 max int batch size is                      520
 min int batch size is                       52
 fixed nKL is                                52
 max L of basis functions is                  2
 order of int derivative is                   0
 number of shells is                         76
 number of basis is                         234
 number of cartesian basis is               234
 number of contracted shell pairs          2529
 number of primitive shell pairs           8260
 maxK2 (contraction) of shell pair           36
 max number of K2 of shell pair               1
 max number of CS2 of shell pair            266
 max number of PS2 of shell pair           1524
 mem total for path MDJ                   52408
 -------------------------------------------------------
 Smallest overlap matrix eigenvalue = 8.59E-07
 Linear dependence detected in AO basis
 Number of orthogonalized atomic orbitals = 233
 Maximum deviation from orthogonality = 3.917E-11

 Scale SEOQF with 1.000000e-01/1.000000e-01/1.000000e-02

 Standard Electronic Orientation quadrupole field applied
 Nucleus-field energy     =     0.0000000057 hartrees
 Guess from superposition of atomic densities
 Warning:  Energy on first SCF cycle will be non-variational
 A restricted hybrid HF-DFT SCF calculation will be
 performed using Pulay DIIS extrapolation
 Exchange:     0.2000 Hartree-Fock + 0.0800 Slater + 0.7200 B88
 Correlation:  0.1900 VWN1RPA + 0.8100 LYP
 Using SG-1 standard quadrature grid
 SCF converges when DIIS error is below 1.0E-08
 ---------------------------------------
  Cycle       Energy         DIIS Error
 ---------------------------------------
    1   -1107.1699489427      4.41E-02
    2   -1104.6692848619      4.72E-03
    3   -1104.4700895221      6.81E-03
    4   -1104.8352339195      8.21E-04
    5   -1104.8389425638      4.87E-04
    6   -1104.8404857427      1.55E-04
    7   -1104.8406248123      7.81E-05
    8   -1104.8406684660      1.15E-05
    9   -1104.8406694974      2.15E-06
   10   -1104.8406695274      1.06E-06
   11   -1104.8406695349      3.38E-07
   12   -1104.8406695364      1.83E-07
   13   -1104.8406695356      2.32E-08
   14   -1104.8406695360      1.19E-08
   15   -1104.8406695361      3.82E-09 Convergence criterion met
 ---------------------------------------
 SCF time:  CPU 8.20 s  wall 7.76 s
 SCF   energy in the final basis set = -1104.8406695361
 Total energy in the final basis set = -1104.8406695361
 
 --------------------------------------------------------------
 
                    Orbital Energies (a.u.)
 --------------------------------------------------------------
 
 Alpha MOs
 -- Occupied --
-88.920 -88.920 -10.240 -10.239 -10.225 -10.225 -10.205 -10.205
-10.204 -10.204  -7.979  -7.979  -5.944  -5.944  -5.940  -5.940
 -5.936  -5.936  -0.901  -0.878  -0.772  -0.750  -0.737  -0.706
 -0.604  -0.582  -0.551  -0.534  -0.527  -0.478  -0.420  -0.419
 -0.408  -0.405  -0.402  -0.379  -0.374  -0.358  -0.343  -0.284
 -0.265  -0.258  -0.212
 -- Virtual --
 -0.059  -0.006  -0.004  -0.001   0.008   0.009   0.017   0.022
  0.032   0.037   0.037   0.044   0.051   0.055   0.062   0.065
  0.075   0.083   0.085   0.095   0.097   0.102   0.106   0.111
  0.117   0.125   0.125   0.131   0.132   0.142   0.144   0.144
  0.147   0.153   0.162   0.165   0.169   0.171   0.184   0.190
  0.191   0.201   0.208   0.209   0.219   0.220   0.225   0.226
  0.250   0.251   0.256   0.269   0.282   0.284   0.286   0.311
  0.321   0.321   0.348   0.350   0.353   0.373   0.394   0.406
  0.454   0.469   0.508   0.513   0.545   0.555   0.569   0.591
  0.606   0.621   0.648   0.650   0.657   0.657   0.665   0.690
  0.703   0.716   0.724   0.729   0.741   0.745   0.777   0.786
  0.817   0.820   0.823   0.846   0.866   0.920   0.938   0.947
  0.951   0.955   0.960   0.969   0.984   0.993   0.997   1.018
  1.028   1.043   1.071   1.104   1.110   1.119   1.147   1.166
  1.173   1.183   1.218   1.259   1.263   1.319   1.338   1.346
  1.353   1.354   1.371   1.473   1.473   1.501   1.542   1.601
  1.673   1.691   1.726   1.800   1.863   1.878   1.891   1.914
  1.926   1.936   1.953   2.007   2.052   2.069   2.077   2.121
  2.172   2.180   2.181   2.217   2.246   2.254   2.338   2.361
  2.365   2.418   2.451   2.458   2.467   2.491   2.508   2.528
  2.538   2.559   2.586   2.611   2.672   2.691   2.718   2.753
  2.863   2.874   2.933   2.938   3.144   3.208   3.267   3.276
  3.399   3.427   3.721   3.742   3.973   3.984   4.235   4.296
  4.309   4.319   4.409   4.535   4.660   4.716
 --------------------------------------------------------------
 
          Ground-State Mulliken Net Atomic Charges

     Atom                 Charge (a.u.)
  ----------------------------------------
      1 S                    -0.138898
      2 C                     0.018283
      3 H                     0.199591
      4 C                    -0.364522
      5 H                     0.121480
      6 C                     0.427554
      7 H                     0.117824
      8 C                    -0.382376
      9 C                    -0.379028
     10 C                     0.426418
     11 H                     0.118063
     12 C                    -0.364371
     13 H                     0.121512
     14 C                     0.018240
     15 H                     0.199549
     16 S                    -0.139318
  ----------------------------------------
  Sum of atomic charges =     0.000000

 -----------------------------------------------------------------
                    Cartesian Multipole Moments
 -----------------------------------------------------------------
    Charge (ESU x 10^10)
                 0.0000
    Dipole Moment (Debye)
         X       0.0093      Y       0.1417      Z      -0.0138
       Tot       0.1427
    Quadrupole Moments (Debye-Ang)
        XX     -62.3716     XY      -0.9555     YY     -78.6996
        XZ       3.0775     YZ       0.6306     ZZ     -66.9874
    Octopole Moments (Debye-Ang^2)
       XXX     129.8559    XXY       3.0434    XYY      53.6377
       YYY      -3.9047    XXZ     126.3278    XYZ      -0.1113
       YYZ     165.4630    XZZ      33.5710    YZZ      -5.4648
       ZZZ     422.8906
    Hexadecapole Moments (Debye-Ang^3)
      XXXX   -1585.5539   XXXY      -6.1520   XXYY    -353.0306
      XYYY      19.0438   YYYY    -115.4724   XXXZ    -605.7617
      XXYZ      -8.0515   XYYZ    -258.4501   YYYZ     -19.1446
      XXZZ    -680.6982   XYZZ      15.3982   YYZZ    -583.3612
      XZZZ    -562.6470   YZZZ       8.0740   ZZZZ   -2879.1378
 -----------------------------------------------------------------
 Calculating analytic gradient of the SCF energy
 Gradient of SCF Energy
            1           2           3           4           5           6
    1  -0.0000742  -0.0004265   0.0000947   0.0000102   0.0000367  -0.0000650
    2  -0.0002347   0.0004108   0.0001796  -0.0003970   0.0000156  -0.0008529
    3  -0.0002570   0.0003569   0.0000072  -0.0000323   0.0000073  -0.0003389
            7           8           9          10          11          12
    1  -0.0003492   0.0010993  -0.0008675  -0.0000420   0.0003407  -0.0000616
    2   0.0003580   0.0005167   0.0007161  -0.0009391   0.0003282  -0.0002703
    3  -0.0000559   0.0003658  -0.0003222   0.0004891   0.0000011   0.0001075
           13          14          15          16
    1  -0.0000106   0.0005650  -0.0000912  -0.0001589
    2   0.0000073   0.0002250   0.0001847  -0.0002480
    3  -0.0000070  -0.0003892  -0.0000691   0.0001366
 Max gradient component =       1.099E-03
 RMS gradient           =       3.817E-04
 Gradient time:  CPU 2.09 s  wall 2.14 s
 Geometry Optimization Parameters
   NAtoms,    NIC,     NZ,  NCons,   NDum,   NFix, NCnnct, MaxDiis
       16     111       0       1       0       0       0       0


** CONSTRAINED OPTIMIZATION IN DELOCALIZED INTERNAL COORDINATES **
   Searching for a Minimum

   Optimization Cycle:   1

                       Coordinates (Angstroms)
     ATOM                X               Y               Z
      1  S         0.0023888700    0.0607727500    0.0018326900
      2  C         1.7370761900    0.0331584900    0.0032322900
      3  H         2.2761273700    0.0528903200    0.9404255700
      4  C         2.2416920400   -0.0154620100   -1.2696579800
      5  H         3.3028578000   -0.0400536500   -1.4897249600
      6  C         1.2247922200   -0.0161296800   -2.2681146400
      7  H         1.4267479000   -0.0265098700   -3.3333450100
      8  C        -0.0539377100    0.0288038800   -1.7517096600
      9  C        -1.3245081500    0.0488998800   -2.4563634200
     10  C        -2.5902819600    0.2794739700   -1.9576744700
     11  H        -2.7781485900    0.5010268800   -0.9129551300
     12  C        -3.6106467400    0.2304887900   -2.9513247700
     13  H        -4.6619512800    0.3954771000   -2.7448489800
     14  C        -3.1213823100   -0.0352139900   -4.2031860000
     15  H        -3.6653590200   -0.1202619000   -5.1339585000
     16  S        -1.3997936500   -0.2481056400   -4.1846144500
   Point Group: c1    Number of degrees of freedom:    42


   Energy is  -1104.840669536

              Constraints and their Current Values
                                        Value     Constraint
   Dihedral:        6   8   9  10     -170.000     -170.000

 Attempting to Generate Delocalized Internal Coordinates

 41 Hessian modes will be used to form the next step
  Hessian Eigenvalues:
     0.045000    0.045000    0.045000    0.045000    0.045000    0.045000
     0.045002    0.045002    0.045003    0.045004    0.045011    0.045012
     0.159943    0.159949    0.159991    0.159992    0.160000    0.160000
     0.221282    0.221282    0.237835    0.237839    0.250000    0.250000
     0.294264    0.294663    0.312518    0.312618    0.354736    0.354850
     0.355125    0.355132    0.358226    0.358329    0.378510    0.404854
     0.404909    0.463547    0.463616    0.497922    0.497945

 Minimum Search - Taking Simple RFO Step
 Searching for Lamda that Minimizes Along All modes
 Value Taken    Lamda =  -0.00002998
 Step Taken.  Stepsize is  0.022638

                             Maximum     Tolerance    Cnvgd?
         Gradient           0.000765      0.000300      NO
         Displacement       0.015103      0.001200      NO
         Energy change     *********      0.000001      NO


 New Cartesian Coordinates Obtained by Inverse Iteration

 Displacement from previous Coordinates is:  0.046332
 ----------------------------------------------------------------
             Standard Nuclear Orientation (Angstroms)
    I     Atom           X                Y                Z
 ----------------------------------------------------------------
    1      S       0.0035678968     0.0638803757     0.0024038408
    2      C       1.7384424149     0.0280388676     0.0033747915
    3      H       2.2772410943     0.0403841152     0.9407414217
    4      C       2.2425578500    -0.0145824746    -1.2694538092
    5      H       3.3034861758    -0.0422229193    -1.4900622465
    6      C       1.2253399217    -0.0107890154    -2.2672260263
    7      H       1.4298311692    -0.0225560896    -3.3319812297
    8      C      -0.0542254016     0.0343722282    -1.7516375984
    9      C      -1.3240317664     0.0544585967    -2.4567679338
   10      C      -2.5907941058     0.2852110446    -1.9594646924
   11      H      -2.7815226494     0.5057034586    -0.9150514026
   12      C      -3.6116156106     0.2311940803    -2.9520747001
   13      H      -4.6633161721     0.3929719027    -2.7451462436
   14      C      -3.1227708290    -0.0399538225    -4.2024736279
   15      H      -3.6668636653    -0.1325016868    -5.1323048925
   16      S      -1.3996533425    -0.2443533414    -4.1848630710
 ----------------------------------------------------------------
 Nuclear Repulsion Energy =   629.1057711812 hartrees
 There are       43 alpha and       43 beta electrons
 Applying Cartesian multipole field
    Component          Value
    ---------          -----
     (2,0,0)        1.00000E-11
     (0,2,0)        2.00000E-11
     (0,0,2)       -3.00000E-12
 Nucleus-field energy     =     0.0000000057 hartrees
 Requested basis set is 6-31++G(d,p)
 There are 76 shells and 234 basis functions
 A cutoff of  1.0D-12 yielded   2529 shell pairs
 There are     24905 function pairs

 Q-Chem warning in module /project/projectdirs/jcesr/qchem/qc44/cnl_qc441/compile/cori/qc_src/libqints/qchem/aobasis.C, line 68:

 Using reconstructed effective core potential

 Smallest overlap matrix eigenvalue = 8.62E-07
 Linear dependence detected in AO basis
 Number of orthogonalized atomic orbitals = 233
 Maximum deviation from orthogonality = 9.168E-11
 Guess MOs from SCF MO coefficient file
 Reading MOs from coefficient file
 Reading MOs from coefficient file
 A restricted hybrid HF-DFT SCF calculation will be
 performed using Pulay DIIS extrapolation
 Exchange:     0.2000 Hartree-Fock + 0.0800 Slater + 0.7200 B88
 Correlation:  0.1900 VWN1RPA + 0.8100 LYP
 Using SG-1 standard quadrature grid
 SCF converges when DIIS error is below 1.0E-08
 Geometry optimization detected.  Setting ReadMinima to 0
 Setting SaveMinima to 0
 ---------------------------------------
  Cycle       Energy         DIIS Error
 ---------------------------------------
    1   -1104.8405444921      1.71E-04
    2   -1104.8406860989      1.34E-05
    3   -1104.8406830014      2.60E-05
    4   -1104.8406879046      3.65E-06
    5   -1104.8406879893      1.69E-06
    6   -1104.8406880104      6.76E-07
    7   -1104.8406880128      2.21E-07
    8   -1104.8406880119      6.23E-08
    9   -1104.8406880119      1.45E-08
   10   -1104.8406880106      8.83E-09 Convergence criterion met
 ---------------------------------------
 SCF time:  CPU 5.48 s  wall 5.11 s
 SCF   energy in the final basis set = -1104.8406880106
 Total energy in the final basis set = -1104.8406880106
 
 --------------------------------------------------------------
 
                    Orbital Energies (a.u.)
 --------------------------------------------------------------
 
 Alpha MOs
 -- Occupied --
-88.920 -88.920 -10.240 -10.239 -10.225 -10.225 -10.205 -10.205
-10.204 -10.204  -7.979  -7.979  -5.944  -5.944  -5.940  -5.940
 -5.936  -5.936  -0.901  -0.878  -0.772  -0.750  -0.737  -0.706
 -0.604  -0.581  -0.551  -0.535  -0.527  -0.478  -0.420  -0.419
 -0.408  -0.405  -0.402  -0.379  -0.374  -0.358  -0.343  -0.284
 -0.265  -0.258  -0.212
 -- Virtual --
 -0.059  -0.006  -0.004  -0.001   0.008   0.009   0.017   0.022
  0.032   0.037   0.037   0.044   0.051   0.055   0.062   0.065
  0.075   0.083   0.085   0.095   0.097   0.102   0.106   0.111
  0.117   0.125   0.125   0.131   0.132   0.142   0.144   0.144
  0.147   0.153   0.162   0.165   0.169   0.171   0.184   0.190
  0.191   0.201   0.208   0.209   0.219   0.220   0.225   0.226
  0.250   0.252   0.256   0.269   0.282   0.284   0.286   0.311
  0.321   0.322   0.348   0.350   0.353   0.373   0.394   0.406
  0.454   0.469   0.508   0.513   0.545   0.555   0.569   0.591
  0.606   0.621   0.648   0.649   0.657   0.657   0.665   0.689
  0.703   0.716   0.725   0.728   0.742   0.745   0.777   0.786
  0.817   0.820   0.823   0.847   0.866   0.921   0.938   0.947
  0.951   0.955   0.960   0.969   0.984   0.993   0.996   1.018
  1.028   1.042   1.071   1.104   1.110   1.119   1.147   1.166
  1.173   1.184   1.218   1.259   1.264   1.321   1.340   1.344
  1.351   1.354   1.371   1.472   1.473   1.500   1.542   1.601
  1.674   1.691   1.726   1.801   1.863   1.878   1.890   1.914
  1.925   1.936   1.953   2.008   2.052   2.068   2.077   2.120
  2.171   2.180   2.181   2.217   2.246   2.254   2.338   2.361
  2.365   2.418   2.451   2.458   2.467   2.491   2.508   2.528
  2.538   2.560   2.586   2.611   2.672   2.691   2.718   2.753
  2.863   2.874   2.933   2.938   3.145   3.208   3.268   3.276
  3.399   3.428   3.721   3.743   3.973   3.984   4.235   4.296
  4.309   4.319   4.409   4.535   4.660   4.716
 --------------------------------------------------------------
 
          Ground-State Mulliken Net Atomic Charges

     Atom                 Charge (a.u.)
  ----------------------------------------
      1 S                    -0.137883
      2 C                     0.019553
      3 H                     0.199767
      4 C                    -0.365013
      5 H                     0.121453
      6 C                     0.425169
      7 H                     0.117681
      8 C                    -0.382492
      9 C                    -0.377903
     10 C                     0.424308
     11 H                     0.117986
     12 C                    -0.364144
     13 H                     0.121505
     14 C                     0.019266
     15 H                     0.199702
     16 S                    -0.138954
  ----------------------------------------
  Sum of atomic charges =     0.000000

 -----------------------------------------------------------------
                    Cartesian Multipole Moments
 -----------------------------------------------------------------
    Charge (ESU x 10^10)
                 0.0000
    Dipole Moment (Debye)
         X       0.0084      Y       0.1260      Z      -0.0130
       Tot       0.1269
    Quadrupole Moments (Debye-Ang)
        XX     -62.3279     XY      -0.9464     YY     -78.7016
        XZ       3.0832     YZ       0.6614     ZZ     -67.0111
    Octopole Moments (Debye-Ang^2)
       XXX     129.6728    XXY       2.6640    XYY      53.6128
       YYY      -4.3725    XXZ     126.2332    XYZ      -0.3355
       YYZ     165.4619    XZZ      33.5812    YZZ      -5.8613
       ZZZ     423.0721
    Hexadecapole Moments (Debye-Ang^3)
      XXXX   -1585.5800   XXXY      -5.3490   XXYY    -353.1956
      XYYY      19.4159   YYYY    -115.5363   XXXZ    -605.6023
      XXYZ      -6.9399   XYYZ    -258.4888   YYYZ     -18.0859
      XXZZ    -680.6997   XYZZ      16.5344   YYZZ    -583.3729
      XZZZ    -563.1782   YZZZ      10.3437   ZZZZ   -2880.5144
 -----------------------------------------------------------------
 Calculating analytic gradient of the SCF energy
 Gradient of SCF Energy
            1           2           3           4           5           6
    1   0.0000102  -0.0000686   0.0000623   0.0000473   0.0000131   0.0000898
    2   0.0000743   0.0000158   0.0000519   0.0000094   0.0000026  -0.0007180
    3  -0.0001769   0.0000318  -0.0000475   0.0000690   0.0000304  -0.0000207
            7           8           9          10          11          12
    1  -0.0001024   0.0001611  -0.0000954  -0.0001798   0.0001078  -0.0000616
    2   0.0002273   0.0003291   0.0003695  -0.0007318   0.0002172   0.0000307
    3   0.0000097   0.0001856  -0.0002183   0.0001345  -0.0000557  -0.0000506
           13          14          15          16
    1  -0.0000153   0.0001137  -0.0000504  -0.0000320
    2  -0.0000094  -0.0000298   0.0000694   0.0000918
    3  -0.0000233  -0.0000226   0.0000414   0.0001133
 Max gradient component =       7.318E-04
 RMS gradient           =       1.887E-04
 Gradient time:  CPU 2.09 s  wall 2.07 s
 Geometry Optimization Parameters
   NAtoms,    NIC,     NZ,  NCons,   NDum,   NFix, NCnnct, MaxDiis
       16     111       0       1       0       0       0       0

 Cartesian Hessian Update
 Hessian Updated using BFGS Update


** CONSTRAINED OPTIMIZATION IN DELOCALIZED INTERNAL COORDINATES **
   Searching for a Minimum

   Optimization Cycle:   2

                       Coordinates (Angstroms)
     ATOM                X               Y               Z
      1  S         0.0035678968    0.0638803757    0.0024038408
      2  C         1.7384424149    0.0280388676    0.0033747915
      3  H         2.2772410943    0.0403841152    0.9407414217
      4  C         2.2425578500   -0.0145824746   -1.2694538092
      5  H         3.3034861758   -0.0422229193   -1.4900622465
      6  C         1.2253399217   -0.0107890154   -2.2672260263
      7  H         1.4298311692   -0.0225560896   -3.3319812297
      8  C        -0.0542254016    0.0343722282   -1.7516375984
      9  C        -1.3240317664    0.0544585967   -2.4567679338
     10  C        -2.5907941058    0.2852110446   -1.9594646924
     11  H        -2.7815226494    0.5057034586   -0.9150514026
     12  C        -3.6116156106    0.2311940803   -2.9520747001
     13  H        -4.6633161721    0.3929719027   -2.7451462436
     14  C        -3.1227708290   -0.0399538225   -4.2024736279
     15  H        -3.6668636653   -0.1325016868   -5.1323048925
     16  S        -1.3996533425   -0.2443533414   -4.1848630710
   Point Group: c1    Number of degrees of freedom:    42


   Energy is  -1104.840688011

              Constraints and their Current Values
                                        Value     Constraint
   Dihedral:        6   8   9  10     -170.000     -170.000
 Hessian Updated using BFGS Update

 36 Hessian modes will be used to form the next step
  Hessian Eigenvalues:
     0.030048    0.045000    0.045001    0.045003    0.045004    0.045012
     0.050455    0.153504    0.159947    0.159992    0.159994    0.160000
     0.161272    0.221252    0.223041    0.237833    0.245599    0.249613
     0.250791    0.291765    0.294478    0.312323    0.312547    0.354778
     0.354859    0.355122    0.355137    0.358293    0.358548    0.375828
     0.404222    0.404898    0.463579    0.477719    0.497930    0.499356

 Minimum Search - Taking Simple RFO Step
 Searching for Lamda that Minimizes Along All modes
 Value Taken    Lamda =  -0.00000557
 Step Taken.  Stepsize is  0.012849

                             Maximum     Tolerance    Cnvgd?
         Gradient           0.000205      0.000300     YES
         Displacement       0.006712      0.001200      NO
         Energy change     -0.000018      0.000001      NO


 New Cartesian Coordinates Obtained by Inverse Iteration

 Displacement from previous Coordinates is:  0.021911
 ----------------------------------------------------------------
             Standard Nuclear Orientation (Angstroms)
    I     Atom           X                Y                Z
 ----------------------------------------------------------------
    1      S       0.0034719373     0.0646153194     0.0025932754
    2      C       1.7383378084     0.0261105056     0.0033190893
    3      H       2.2765933145     0.0346555509     0.9410477909
    4      C       2.2423297400    -0.0142202444    -1.2696361212
    5      H       3.3031107028    -0.0438542135    -1.4906168131
    6      C       1.2252759393    -0.0074861817    -2.2673345627
    7      H       1.4309740141    -0.0211926145    -3.3319023654
    8      C      -0.0543446032     0.0377632076    -1.7518659147
    9      C      -1.3235747314     0.0577543571    -2.4570784187
   10      C      -2.5903757902     0.2886099956    -1.9599486172
   11      H      -2.7823769111     0.5072887293    -0.9153278077
   12      C      -3.6113805527     0.2314757268    -2.9520300646
   13      H      -4.6632412177     0.3913069621    -2.7444916987
   14      C      -3.1228970906    -0.0417669164    -4.2021107249
   15      H      -3.6668934332    -0.1382724054    -5.1316121986
   16      S      -1.3993361463    -0.2435324583    -4.1849922680
 ----------------------------------------------------------------
 Nuclear Repulsion Energy =   629.1002184160 hartrees
 There are       43 alpha and       43 beta electrons
 Applying Cartesian multipole field
    Component          Value
    ---------          -----
     (2,0,0)        1.00000E-11
     (0,2,0)        2.00000E-11
     (0,0,2)       -3.00000E-12
 Nucleus-field energy     =     0.0000000057 hartrees
 Requested basis set is 6-31++G(d,p)
 There are 76 shells and 234 basis functions
 A cutoff of  1.0D-12 yielded   2529 shell pairs
 There are     24905 function pairs

 Q-Chem warning in module /project/projectdirs/jcesr/qchem/qc44/cnl_qc441/compile/cori/qc_src/libqints/qchem/aobasis.C, line 68:

 Using reconstructed effective core potential

 Smallest overlap matrix eigenvalue = 8.62E-07
 Linear dependence detected in AO basis
 Number of orthogonalized atomic orbitals = 233
 Maximum deviation from orthogonality = 5.197E-11
 Guess MOs from SCF MO coefficient file
 Reading MOs from coefficient file
 Reading MOs from coefficient file
 A restricted hybrid HF-DFT SCF calculation will be
 performed using Pulay DIIS extrapolation
 Exchange:     0.2000 Hartree-Fock + 0.0800 Slater + 0.7200 B88
 Correlation:  0.1900 VWN1RPA + 0.8100 LYP
 Using SG-1 standard quadrature grid
 SCF converges when DIIS error is below 1.0E-08
 Geometry optimization detected.  Setting ReadMinima to 0
 Setting SaveMinima to 0
 ---------------------------------------
  Cycle       Energy         DIIS Error
 ---------------------------------------
    1   -1104.8410112079      7.92E-05
    2   -1104.8406908236      6.78E-06
    3   -1104.8406899345      1.34E-05
    4   -1104.8406912911      1.79E-06
    5   -1104.8406913083      8.64E-07
    6   -1104.8406913154      2.44E-07
    7   -1104.8406913167      8.51E-08
    8   -1104.8406913167      2.49E-08
    9   -1104.8406913170      8.01E-09 Convergence criterion met
 ---------------------------------------
 SCF time:  CPU 4.92 s  wall 4.77 s
 SCF   energy in the final basis set = -1104.8406913170
 Total energy in the final basis set = -1104.8406913170
 
 --------------------------------------------------------------
 
                    Orbital Energies (a.u.)
 --------------------------------------------------------------
 
 Alpha MOs
 -- Occupied --
-88.920 -88.920 -10.240 -10.239 -10.225 -10.225 -10.205 -10.205
-10.204 -10.204  -7.979  -7.979  -5.944  -5.944  -5.940  -5.940
 -5.936  -5.936  -0.901  -0.878  -0.772  -0.750  -0.737  -0.706
 -0.605  -0.581  -0.551  -0.535  -0.527  -0.478  -0.420  -0.419
 -0.408  -0.405  -0.402  -0.379  -0.374  -0.358  -0.343  -0.284
 -0.265  -0.258  -0.212
 -- Virtual --
 -0.059  -0.006  -0.004  -0.001   0.008   0.009   0.017   0.022
  0.032   0.037   0.037   0.044   0.051   0.055   0.062   0.065
  0.075   0.083   0.085   0.095   0.097   0.102   0.106   0.111
  0.117   0.125   0.125   0.131   0.132   0.142   0.144   0.144
  0.147   0.153   0.162   0.165   0.169   0.171   0.184   0.190
  0.191   0.201   0.208   0.209   0.219   0.220   0.225   0.226
  0.251   0.252   0.256   0.269   0.282   0.284   0.286   0.311
  0.321   0.322   0.348   0.350   0.353   0.373   0.394   0.406
  0.454   0.469   0.508   0.513   0.545   0.555   0.569   0.591
  0.607   0.621   0.647   0.649   0.657   0.657   0.665   0.689
  0.702   0.716   0.725   0.728   0.742   0.745   0.777   0.786
  0.817   0.820   0.823   0.847   0.866   0.921   0.938   0.948
  0.951   0.955   0.960   0.969   0.984   0.993   0.996   1.018
  1.028   1.042   1.071   1.104   1.110   1.119   1.147   1.166
  1.173   1.184   1.218   1.259   1.264   1.321   1.341   1.344
  1.351   1.354   1.371   1.471   1.473   1.499   1.543   1.601
  1.674   1.691   1.726   1.801   1.863   1.878   1.890   1.914
  1.925   1.936   1.953   2.008   2.052   2.068   2.077   2.120
  2.172   2.180   2.181   2.217   2.246   2.254   2.339   2.361
  2.365   2.418   2.451   2.458   2.468   2.491   2.508   2.527
  2.538   2.560   2.586   2.611   2.672   2.691   2.718   2.753
  2.863   2.874   2.933   2.938   3.145   3.208   3.268   3.276
  3.399   3.428   3.721   3.743   3.973   3.984   4.235   4.296
  4.309   4.319   4.409   4.535   4.660   4.716
 --------------------------------------------------------------
 
          Ground-State Mulliken Net Atomic Charges

     Atom                 Charge (a.u.)
  ----------------------------------------
      1 S                    -0.137011
      2 C                     0.019252
      3 H                     0.199790
      4 C                    -0.363541
      5 H                     0.121426
      6 C                     0.421354
      7 H                     0.117585
      8 C                    -0.380876
      9 C                    -0.375434
     10 C                     0.420014
     11 H                     0.117877
     12 C                    -0.362281
     13 H                     0.121491
     14 C                     0.018828
     15 H                     0.199717
     16 S                    -0.138192
  ----------------------------------------
  Sum of atomic charges =     0.000000

 -----------------------------------------------------------------
                    Cartesian Multipole Moments
 -----------------------------------------------------------------
    Charge (ESU x 10^10)
                 0.0000
    Dipole Moment (Debye)
         X       0.0077      Y       0.1134      Z      -0.0118
       Tot       0.1142
    Quadrupole Moments (Debye-Ang)
        XX     -62.3239     XY      -0.9383     YY     -78.7028
        XZ       3.0752     YZ       0.6885     ZZ     -67.0177
    Octopole Moments (Debye-Ang^2)
       XXX     129.6237    XXY       2.4460    XYY      53.6091
       YYY      -4.5939    XXZ     126.2395    XYZ      -0.4518
       YYZ     165.4622    XZZ      33.6240    YZZ      -6.0997
       ZZZ     423.1404
    Hexadecapole Moments (Debye-Ang^3)
      XXXX   -1585.3034   XXXY      -4.9023   XXYY    -353.1712
      XYYY      19.5781   YYYY    -115.6183   XXXZ    -605.6103
      XXYZ      -6.3296   XYYZ    -258.4478   YYYZ     -17.6064
      XXZZ    -680.7635   XYZZ      17.1125   YYZZ    -583.3681
      XZZZ    -563.3405   YZZZ      11.6072   ZZZZ   -2881.0117
 -----------------------------------------------------------------
 Calculating analytic gradient of the SCF energy
 Gradient of SCF Energy
            1           2           3           4           5           6
    1   0.0000034  -0.0000171   0.0000099  -0.0000195  -0.0000082   0.0000411
    2   0.0000897  -0.0000305  -0.0000029   0.0000961  -0.0000273  -0.0005227
    3   0.0000140  -0.0000164  -0.0000127  -0.0000417   0.0000002   0.0000193
            7           8           9          10          11          12
    1   0.0000231  -0.0001109   0.0001362  -0.0000948  -0.0000077   0.0000252
    2   0.0000925   0.0003120   0.0003046  -0.0005082   0.0000993   0.0000898
    3  -0.0000099   0.0000484  -0.0001054   0.0000783  -0.0000101   0.0000190
           13          14          15          16
    1   0.0000033   0.0000116  -0.0000089   0.0000132
    2  -0.0000360  -0.0000428   0.0000001   0.0000862
    3   0.0000061   0.0000136   0.0000140  -0.0000167
 Max gradient component =       5.227E-04
 RMS gradient           =       1.327E-04
 Gradient time:  CPU 2.14 s  wall 2.09 s
 Geometry Optimization Parameters
   NAtoms,    NIC,     NZ,  NCons,   NDum,   NFix, NCnnct, MaxDiis
       16     111       0       1       0       0       0       0

 Cartesian Hessian Update
 Hessian Updated using BFGS Update


** CONSTRAINED OPTIMIZATION IN DELOCALIZED INTERNAL COORDINATES **
   Searching for a Minimum

   Optimization Cycle:   3

                       Coordinates (Angstroms)
     ATOM                X               Y               Z
      1  S         0.0034719373    0.0646153194    0.0025932754
      2  C         1.7383378084    0.0261105056    0.0033190893
      3  H         2.2765933145    0.0346555509    0.9410477909
      4  C         2.2423297400   -0.0142202444   -1.2696361212
      5  H         3.3031107028   -0.0438542135   -1.4906168131
      6  C         1.2252759393   -0.0074861817   -2.2673345627
      7  H         1.4309740141   -0.0211926145   -3.3319023654
      8  C        -0.0543446032    0.0377632076   -1.7518659147
      9  C        -1.3235747314    0.0577543571   -2.4570784187
     10  C        -2.5903757902    0.2886099956   -1.9599486172
     11  H        -2.7823769111    0.5072887293   -0.9153278077
     12  C        -3.6113805527    0.2314757268   -2.9520300646
     13  H        -4.6632412177    0.3913069621   -2.7444916987
     14  C        -3.1228970906   -0.0417669164   -4.2021107249
     15  H        -3.6668934332   -0.1382724054   -5.1316121986
     16  S        -1.3993361463   -0.2435324583   -4.1849922680
   Point Group: c1    Number of degrees of freedom:    42


   Energy is  -1104.840691317

              Constraints and their Current Values
                                        Value     Constraint
   Dihedral:        6   8   9  10     -170.000     -170.000
 Hessian Updated using BFGS Update

 36 Hessian modes will be used to form the next step
  Hessian Eigenvalues:
     0.021617    0.045000    0.045001    0.045003    0.045004    0.045011
     0.045550    0.051526    0.157796    0.159947    0.159992    0.160086
     0.161864    0.221299    0.222856    0.237836    0.246098    0.250623
     0.251134    0.293818    0.294527    0.312414    0.312546    0.354787
     0.355055    0.355134    0.355306    0.358292    0.358521    0.384629
     0.404895    0.410159    0.463630    0.476484    0.497935    0.500090

 Minimum Search - Taking Simple RFO Step
 Searching for Lamda that Minimizes Along All modes
 Value Taken    Lamda =   0.00000000
 Step Taken.  Stepsize is  0.005798

                             Maximum     Tolerance    Cnvgd?
         Gradient           0.000132      0.000300     YES
         Displacement       0.004126      0.001200      NO
         Energy change     -0.000003      0.000001      NO


 New Cartesian Coordinates Obtained by Inverse Iteration

 Displacement from previous Coordinates is:  0.006129
 ----------------------------------------------------------------
             Standard Nuclear Orientation (Angstroms)
    I     Atom           X                Y                Z
 ----------------------------------------------------------------
    1      S       0.0035632590     0.0641999091     0.0025003138
    2      C       1.7384520511     0.0256541085     0.0034130356
    3      H       2.2764604065     0.0332719191     0.9412989362
    4      C       2.2424724669    -0.0141456705    -1.2695399668
    5      H       3.3032492888    -0.0440963113    -1.4905570258
    6      C       1.2254191410    -0.0063325606    -2.2673283376
    7      H       1.4312494655    -0.0210212121    -3.3318455942
    8      C      -0.0542249960     0.0389257528    -1.7520378659
    9      C      -1.3235013742     0.0588431398    -2.4572527933
   10      C      -2.5902999250     0.2896973318    -1.9601919544
   11      H      -2.7824606804     0.5073799870    -0.9154054681
   12      C      -3.6115034784     0.2315715269    -2.9520880276
   13      H      -4.6633848256     0.3911607110    -2.7443995237
   14      C      -3.1231540869    -0.0421865351    -4.2020945349
   15      H      -3.6671125328    -0.1396957491    -5.1315225287
   16      S      -1.3995511996    -0.2439710273    -4.1849360845
 ----------------------------------------------------------------
 Nuclear Repulsion Energy =   629.0867140160 hartrees
 There are       43 alpha and       43 beta electrons
 Applying Cartesian multipole field
    Component          Value
    ---------          -----
     (2,0,0)        1.00000E-11
     (0,2,0)        2.00000E-11
     (0,0,2)       -3.00000E-12
 Nucleus-field energy     =     0.0000000057 hartrees
 Requested basis set is 6-31++G(d,p)
 There are 76 shells and 234 basis functions
 A cutoff of  1.0D-12 yielded   2529 shell pairs
 There are     24905 function pairs

 Q-Chem warning in module /project/projectdirs/jcesr/qchem/qc44/cnl_qc441/compile/cori/qc_src/libqints/qchem/aobasis.C, line 68:

 Using reconstructed effective core potential

 Smallest overlap matrix eigenvalue = 8.64E-07
 Linear dependence detected in AO basis
 Number of orthogonalized atomic orbitals = 233
 Maximum deviation from orthogonality = 7.656E-11
 Guess MOs from SCF MO coefficient file
 Reading MOs from coefficient file
 Reading MOs from coefficient file
 A restricted hybrid HF-DFT SCF calculation will be
 performed using Pulay DIIS extrapolation
 Exchange:     0.2000 Hartree-Fock + 0.0800 Slater + 0.7200 B88
 Correlation:  0.1900 VWN1RPA + 0.8100 LYP
 Using SG-1 standard quadrature grid
 SCF converges when DIIS error is below 1.0E-08
 Geometry optimization detected.  Setting ReadMinima to 0
 Setting SaveMinima to 0
 ---------------------------------------
  Cycle       Energy         DIIS Error
 ---------------------------------------
    1   -1104.8407828439      2.97E-05
    2   -1104.8406918375      1.75E-06
    3   -1104.8406918145      2.80E-06
    4   -1104.8406918711      6.58E-07
    5   -1104.8406918724      3.31E-07
    6   -1104.8406918734      7.95E-08
    7   -1104.8406918741      3.58E-08
    8   -1104.8406918735      6.66E-09 Convergence criterion met
 ---------------------------------------
 SCF time:  CPU 4.36 s  wall 4.13 s
 SCF   energy in the final basis set = -1104.8406918735
 Total energy in the final basis set = -1104.8406918735
 
 --------------------------------------------------------------
 
                    Orbital Energies (a.u.)
 --------------------------------------------------------------
 
 Alpha MOs
 -- Occupied --
-88.920 -88.920 -10.240 -10.239 -10.225 -10.225 -10.205 -10.205
-10.204 -10.204  -7.979  -7.979  -5.944  -5.944  -5.940  -5.940
 -5.936  -5.936  -0.901  -0.878  -0.772  -0.750  -0.737  -0.706
 -0.605  -0.581  -0.551  -0.535  -0.527  -0.478  -0.420  -0.419
 -0.408  -0.405  -0.402  -0.379  -0.374  -0.358  -0.343  -0.284
 -0.265  -0.258  -0.212
 -- Virtual --
 -0.059  -0.006  -0.004  -0.001   0.008   0.009   0.017   0.022
  0.032   0.037   0.037   0.044   0.051   0.055   0.062   0.065
  0.075   0.083   0.085   0.095   0.097   0.102   0.106   0.111
  0.117   0.125   0.125   0.131   0.132   0.142   0.143   0.144
  0.147   0.153   0.163   0.165   0.169   0.171   0.184   0.190
  0.191   0.201   0.208   0.209   0.219   0.220   0.225   0.226
  0.251   0.252   0.256   0.269   0.282   0.284   0.286   0.311
  0.321   0.322   0.348   0.350   0.353   0.373   0.394   0.406
  0.454   0.469   0.508   0.513   0.545   0.555   0.569   0.591
  0.607   0.621   0.647   0.649   0.657   0.657   0.665   0.689
  0.702   0.716   0.725   0.728   0.742   0.745   0.777   0.786
  0.817   0.820   0.823   0.847   0.866   0.921   0.938   0.948
  0.951   0.955   0.960   0.969   0.983   0.993   0.996   1.018
  1.028   1.042   1.071   1.104   1.110   1.119   1.147   1.166
  1.173   1.184   1.218   1.259   1.264   1.321   1.341   1.344
  1.350   1.354   1.371   1.471   1.474   1.499   1.543   1.601
  1.674   1.691   1.726   1.801   1.862   1.878   1.890   1.914
  1.924   1.936   1.953   2.008   2.052   2.068   2.077   2.120
  2.172   2.180   2.181   2.217   2.246   2.254   2.339   2.361
  2.365   2.418   2.451   2.458   2.468   2.491   2.508   2.527
  2.538   2.560   2.586   2.611   2.672   2.691   2.718   2.753
  2.863   2.874   2.933   2.938   3.144   3.208   3.268   3.276
  3.399   3.428   3.721   3.743   3.973   3.984   4.235   4.296
  4.309   4.319   4.409   4.535   4.660   4.716
 --------------------------------------------------------------
 
          Ground-State Mulliken Net Atomic Charges

     Atom                 Charge (a.u.)
  ----------------------------------------
      1 S                    -0.136767
      2 C                     0.019103
      3 H                     0.199794
      4 C                    -0.362622
      5 H                     0.121443
      6 C                     0.419434
      7 H                     0.117546
      8 C                    -0.379995
      9 C                    -0.374122
     10 C                     0.417589
     11 H                     0.117818
     12 C                    -0.361143
     13 H                     0.121519
     14 C                     0.018511
     15 H                     0.199710
     16 S                    -0.137819
  ----------------------------------------
  Sum of atomic charges =     0.000000

 -----------------------------------------------------------------
                    Cartesian Multipole Moments
 -----------------------------------------------------------------
    Charge (ESU x 10^10)
                 0.0000
    Dipole Moment (Debye)
         X       0.0073      Y       0.1089      Z      -0.0114
       Tot       0.1097
    Quadrupole Moments (Debye-Ang)
        XX     -62.3201     XY      -0.9354     YY     -78.7036
        XZ       3.0771     YZ       0.6979     ZZ     -67.0205
    Octopole Moments (Debye-Ang^2)
       XXX     129.6080    XXY       2.4009    XYY      53.6103
       YYY      -4.6231    XXZ     126.2323    XYZ      -0.4788
       YYZ     165.4624    XZZ      33.6204    YZZ      -6.1640
       ZZZ     423.1719
    Hexadecapole Moments (Debye-Ang^3)
      XXXX   -1585.3938   XXXY      -4.8207   XXYY    -353.2113
      XYYY      19.5962   YYYY    -115.6672   XXXZ    -605.6281
      XXYZ      -6.2022   XYYZ    -258.4632   YYYZ     -17.5406
      XXZZ    -680.7557   XYZZ      17.2447   YYZZ    -583.3610
      XZZZ    -563.3860   YZZZ      11.9297   ZZZZ   -2881.2064
 -----------------------------------------------------------------
 Calculating analytic gradient of the SCF energy
 Gradient of SCF Energy
            1           2           3           4           5           6
    1   0.0000239   0.0000268  -0.0000013  -0.0000051  -0.0000004  -0.0000152
    2   0.0000307   0.0000059  -0.0000109   0.0000650  -0.0000315  -0.0004277
    3   0.0000089  -0.0000018   0.0000003  -0.0000133  -0.0000026   0.0000215
            7           8           9          10          11          12
    1   0.0000234  -0.0000964   0.0001348  -0.0000448  -0.0000155   0.0000135
    2   0.0000256   0.0003551   0.0003423  -0.0004205   0.0000283   0.0000567
    3   0.0000021   0.0000029  -0.0000788   0.0000635  -0.0000076  -0.0000026
           13          14          15          16
    1  -0.0000055  -0.0000330   0.0000003  -0.0000056
    2  -0.0000367   0.0000024  -0.0000138   0.0000290
    3   0.0000094   0.0000020   0.0000032  -0.0000069
 Max gradient component =       4.277E-04
 RMS gradient           =       1.173E-04
 Gradient time:  CPU 2.07 s  wall 2.07 s
 Geometry Optimization Parameters
   NAtoms,    NIC,     NZ,  NCons,   NDum,   NFix, NCnnct, MaxDiis
       16     111       0       1       0       0       0       0

 Cartesian Hessian Update
 Hessian Updated using BFGS Update


** CONSTRAINED OPTIMIZATION IN DELOCALIZED INTERNAL COORDINATES **
   Searching for a Minimum

   Optimization Cycle:   4

                       Coordinates (Angstroms)
     ATOM                X               Y               Z
      1  S         0.0035632590    0.0641999091    0.0025003138
      2  C         1.7384520511    0.0256541085    0.0034130356
      3  H         2.2764604065    0.0332719191    0.9412989362
      4  C         2.2424724669   -0.0141456705   -1.2695399668
      5  H         3.3032492888   -0.0440963113   -1.4905570258
      6  C         1.2254191410   -0.0063325606   -2.2673283376
      7  H         1.4312494655   -0.0210212121   -3.3318455942
      8  C        -0.0542249960    0.0389257528   -1.7520378659
      9  C        -1.3235013742    0.0588431398   -2.4572527933
     10  C        -2.5902999250    0.2896973318   -1.9601919544
     11  H        -2.7824606804    0.5073799870   -0.9154054681
     12  C        -3.6115034784    0.2315715269   -2.9520880276
     13  H        -4.6633848256    0.3911607110   -2.7443995237
     14  C        -3.1231540869   -0.0421865351   -4.2020945349
     15  H        -3.6671125328   -0.1396957491   -5.1315225287
     16  S        -1.3995511996   -0.2439710273   -4.1849360845
   Point Group: c1    Number of degrees of freedom:    42


   Energy is  -1104.840691874

              Constraints and their Current Values
                                        Value     Constraint
   Dihedral:        6   8   9  10     -170.000     -170.000
 Hessian Updated using BFGS Update

 39 Hessian modes will be used to form the next step
  Hessian Eigenvalues:
     0.016865    0.043863    0.045000    0.045000    0.045002    0.045002
     0.045004    0.045011    0.045039    0.049845    0.158287    0.159942
     0.159992    0.159996    0.160116    0.160221    0.221289    0.223693
     0.237835    0.249495    0.250270    0.259026    0.294059    0.294456
     0.312449    0.312596    0.354788    0.355057    0.355133    0.355510
     0.358291    0.358528    0.382420    0.404899    0.411746    0.463618
     0.473563    0.497934    0.500598

 Minimum Search - Taking Simple RFO Step
 Searching for Lamda that Minimizes Along All modes
 Value Taken    Lamda =   0.00000000
 Step Taken.  Stepsize is  0.002967

                             Maximum     Tolerance    Cnvgd?
         Gradient           0.000047      0.000300     YES
         Displacement       0.001984      0.001200      NO
         Energy change     -0.000001      0.000001     YES

 Final energy is   -1104.84069187352     


 ******************************
 **  OPTIMIZATION CONVERGED  **
 ******************************

                       Coordinates (Angstroms)
     ATOM                X               Y               Z
      1  S         0.0035632590    0.0641999091    0.0025003138
      2  C         1.7384520511    0.0256541085    0.0034130356
      3  H         2.2764604065    0.0332719191    0.9412989362
      4  C         2.2424724669   -0.0141456705   -1.2695399668
      5  H         3.3032492888   -0.0440963113   -1.4905570258
      6  C         1.2254191410   -0.0063325606   -2.2673283376
      7  H         1.4312494655   -0.0210212121   -3.3318455942
      8  C        -0.0542249960    0.0389257528   -1.7520378659
      9  C        -1.3235013742    0.0588431398   -2.4572527933
     10  C        -2.5902999250    0.2896973318   -1.9601919544
     11  H        -2.7824606804    0.5073799870   -0.9154054681
     12  C        -3.6115034784    0.2315715269   -2.9520880276
     13  H        -4.6633848256    0.3911607110   -2.7443995237
     14  C        -3.1231540869   -0.0421865351   -4.2020945349
     15  H        -3.6671125328   -0.1396957491   -5.1315225287
     16  S        -1.3995511996   -0.2439710273   -4.1849360845

Z-matrix Print:
$molecule
0 1
S 
C  1 1.735459
H  2 1.081312 1 119.843372
C  2 1.369651 1 111.612701 3 179.897796 0
H  4 1.084001 2 123.385485 1 -179.925051 0
C  4 1.424813 2 112.827045 1 0.351697 0
H  6 1.084385 4 123.498638 2 179.177052 0
C  6 1.380269 4 113.595910 2 -0.037762 0
C  8 1.452166 6 129.021471 4 179.981602 0
C  9 1.380240 8 129.013329 6 -170.000000 0
H  10 1.084333 9 122.884195 8 0.801590 0
C  10 1.424795 9 113.611426 8 -179.967622 0
H  12 1.083971 10 123.773632 9 -179.781229 0
C  12 1.369682 10 112.830836 9 -0.025643 0
H  14 1.081268 12 128.553417 10 -179.768734 0
S  14 1.735317 12 111.595356 10 0.332239 0
$end

 
 --------------------------------------------------------------
 
                    Orbital Energies (a.u.)
 --------------------------------------------------------------
 
 Alpha MOs
 -- Occupied --
-88.920 -88.920 -10.240 -10.239 -10.225 -10.225 -10.205 -10.205
-10.204 -10.204  -7.979  -7.979  -5.944  -5.944  -5.940  -5.940
 -5.936  -5.936  -0.901  -0.878  -0.772  -0.750  -0.737  -0.706
 -0.605  -0.581  -0.551  -0.535  -0.527  -0.478  -0.420  -0.419
 -0.408  -0.405  -0.402  -0.379  -0.374  -0.358  -0.343  -0.284
 -0.265  -0.258  -0.212
 -- Virtual --
 -0.059  -0.006  -0.004  -0.001   0.008   0.009   0.017   0.022
  0.032   0.037   0.037   0.044   0.051   0.055   0.062   0.065
  0.075   0.083   0.085   0.095   0.097   0.102   0.106   0.111
  0.117   0.125   0.125   0.131   0.132   0.142   0.143   0.144
  0.147   0.153   0.163   0.165   0.169   0.171   0.184   0.190
  0.191   0.201   0.208   0.209   0.219   0.220   0.225   0.226
  0.251   0.252   0.256   0.269   0.282   0.284   0.286   0.311
  0.321   0.322   0.348   0.350   0.353   0.373   0.394   0.406
  0.454   0.469   0.508   0.513   0.545   0.555   0.569   0.591
  0.607   0.621   0.647   0.649   0.657   0.657   0.665   0.689
  0.702   0.716   0.725   0.728   0.742   0.745   0.777   0.786
  0.817   0.820   0.823   0.847   0.866   0.921   0.938   0.948
  0.951   0.955   0.960   0.969   0.983   0.993   0.996   1.018
  1.028   1.042   1.071   1.104   1.110   1.119   1.147   1.166
  1.173   1.184   1.218   1.259   1.264   1.321   1.341   1.344
  1.350   1.354   1.371   1.471   1.474   1.499   1.543   1.601
  1.674   1.691   1.726   1.801   1.862   1.878   1.890   1.914
  1.924   1.936   1.953   2.008   2.052   2.068   2.077   2.120
  2.172   2.180   2.181   2.217   2.246   2.254   2.339   2.361
  2.365   2.418   2.451   2.458   2.468   2.491   2.508   2.527
  2.538   2.560   2.586   2.611   2.672   2.691   2.718   2.753
  2.863   2.874   2.933   2.938   3.144   3.208   3.268   3.276
  3.399   3.428   3.721   3.743   3.973   3.984   4.235   4.296
  4.309   4.319   4.409   4.535   4.660   4.716
 --------------------------------------------------------------
 
          Ground-State Mulliken Net Atomic Charges

     Atom                 Charge (a.u.)
  ----------------------------------------
      1 S                    -0.136767
      2 C                     0.019103
      3 H                     0.199794
      4 C                    -0.362622
      5 H                     0.121443
      6 C                     0.419434
      7 H                     0.117546
      8 C                    -0.379995
      9 C                    -0.374122
     10 C                     0.417589
     11 H                     0.117818
     12 C                    -0.361143
     13 H                     0.121519
     14 C                     0.018511
     15 H                     0.199710
     16 S                    -0.137819
  ----------------------------------------
  Sum of atomic charges =     0.000000

 -----------------------------------------------------------------
                    Cartesian Multipole Moments
 -----------------------------------------------------------------
    Charge (ESU x 10^10)
                 0.0000
    Dipole Moment (Debye)
         X       0.0073      Y       0.1089      Z      -0.0114
       Tot       0.1097
    Quadrupole Moments (Debye-Ang)
        XX     -62.3201     XY      -0.9354     YY     -78.7036
        XZ       3.0771     YZ       0.6979     ZZ     -67.0205
    Octopole Moments (Debye-Ang^2)
       XXX     129.6080    XXY       2.4009    XYY      53.6103
       YYY      -4.6231    XXZ     126.2323    XYZ      -0.4788
       YYZ     165.4624    XZZ      33.6204    YZZ      -6.1640
       ZZZ     423.1719
    Hexadecapole Moments (Debye-Ang^3)
      XXXX   -1585.3938   XXXY      -4.8207   XXYY    -353.2113
      XYYY      19.5962   YYYY    -115.6672   XXXZ    -605.6281
      XXYZ      -6.2022   XYYZ    -258.4632   YYYZ     -17.5406
      XXZZ    -680.7557   XYZZ      17.2447   YYZZ    -583.3610
      XZZZ    -563.3860   YZZZ      11.9297   ZZZZ   -2881.2064
 -----------------------------------------------------------------
Archival summary:
1\1\nid00482\OPT\ProcedureUnspecified\BasisUnspecified\286\bwood\WedMay3102:25:242017WedMay3102:25:242017\0\\#,OPT,ProcedureUnspecified,BasisUnspecified,\\0,1\S\C,1,1.73546\H,2,1.08131,1,119.843\C,2,1.36965,1,111.613,3,179.898,0\H,4,1.084,2,123.385,1,-179.925,0\C,4,1.42481,2,112.827,1,0.351697,0\H,6,1.08438,4,123.499,2,179.177,0\C,6,1.38027,4,113.596,2,-0.0377616,0\C,8,1.45217,6,129.021,4,179.982,0\C,9,1.38024,8,129.013,6,-170,0\H,10,1.08433,9,122.884,8,0.80159,0\C,10,1.42479,9,113.611,8,-179.968,0\H,12,1.08397,10,123.774,9,-179.781,0\C,12,1.36968,10,112.831,9,-0.0256428,0\H,14,1.08127,12,128.553,10,-179.769,0\S,14,1.73532,12,111.595,10,0.332239,0\\\@

 Total job time:  33.61s(wall), 32.28s(cpu) 
 Wed May 31 02:25:24 2017

        *************************************************************
        *                                                           *
        *  Thank you very much for using Q-Chem.  Have a nice day.  *
        *                                                           *
        *************************************************************


0 sent ACK to 0 
now end server 0 ... 
