srun -N 1 --ntasks-per-node 16 --cpus-per-task 4 --cpu_bind=cores --nodelist nid00463 /global/project/projectdirs/jcesr/qchem/qc44/cnl_qc441/dist/exe/qcprog.cori.haswell.exe .pt_n2_neutral_150.0.in.47915.qcin.1 /global/cscratch1/sd/bwood/qchem/nx/qchem47915/
Process 0 of 16 is on nid00463 - thread support 0
Process 1 of 16 is on nid00463 - thread support 0
Process 2 of 16 is on nid00463 - thread support 0
Process 3 of 16 is on nid00463 - thread support 0
Process 4 of 16 is on nid00463 - thread support 0
Process 5 of 16 is on nid00463 - thread support 0
Process 6 of 16 is on nid00463 - thread support 0
initial socket setup ...start
Process 15 of 16 is on nid00463 - thread support 0
initial socket setup ...done 
now start server 0 ... 
nid00463 10.128.1
Q-Chem Developer Version! Running on 10.128.1.*
                  Welcome to Q-Chem
     A Quantum Leap Into The Future Of Chemistry


 Q-Chem 4.4, Q-Chem, Inc., Pleasanton, CA (2016)

 Y. Shao,  Z. Gan,  E. Epifanovsky,  A. T. B. Gilbert,  M. Wormit,  
 J. Kussmann,  A. W. Lange,  A. Behn,  J. Deng,  X. Feng,  D. Ghosh,  
 M. Goldey,  P. R. Horn,  L. D. Jacobson,  I. Kaliman,  F. Rob,  
 R. Z. Khaliullin,  T. Kus,  A. Landau,  J. Liu,  E. I. Proynov,  Y. M. Rhee,  
 R. M. Richard,  M. A. Rohrdanz,  R. P. Steele,  E. J. Sundstrom,  
 H. L. Woodcock III,  P. M. Zimmerman,  D. Zuev,  B. Albrecht,  E. Alguire,  
 B. Austin,  S. A. Baeppler,  G. J. O. Beran,  Y. A. Bernard,  
 E. J. Berquist,  K. Brandhorst,  K. B. Bravaya,  S. T. Brown,  D. Casanova,  
 C.-M. Chang,  Y. Chen,  S. H. Chien,  K. D. Closser,  M. P. Coons,  
 D. L. Crittenden,  S. Dasgupta,  M. Diedenhofen,  R. A. DiStasio Jr.,  
 H. Do,  A. D. Dutoi,  R. G. Edgar,  P.-T. Fang,  S. Fatehi,  Q. Feng,  
 L. Fusti-Molnar,  A. Ghysels,  A. Golubeva-Zadorozhnaya,  J. Gomes,  
 A. Gunina,  M. W. D. Hanson-Heine,  P. H. P. Harbach,  A. W. Hauser,  
 J. E. Herr,  E. G. Hohenstein,  Z. C. Holden,  K. Hui,  T.-C. Jagau,  H. Ji,  
 B. Kaduk,  K. Khistyaev,  Jaehoon Kim,  Jihan Kim,  R. A. King,  
 P. Klunzinger,  K. Koh,  D. Kosenkov,  T. Kowalczyk,  C. M. Krauter,  
 A. Kunitsa,  K. U. Lao,  A. Laurent,  K. V. Lawler,  J. Lee,  D. Lefrancois,  
 S. Lehtola,  S. V. Levchenko,  C. Y. Lin,  Y.-S. Lin,  F. Liu,  E. Livshits,  
 R. C. Lochan,  A. Luenser,  P. Manohar,  S. F. Manzer,  S.-P. Mao,  Y. Mao,  
 N. Mardirossian,  A. V. Marenich,  L. A. Martinez-Martinez,  S. A. Maurer,  
 N. J. Mayhall,  J.-M. Mewes,  A. F. Morrison,  K. Nanda,  T. S. Nguyen-Beck,  
 C. M. Oana,  R. Olivares-Amaya,  D. P. O'Neill,  J. A. Parkhill,  
 T. M. Perrine,  R. Peverati,  P. A. Pieniazek,  F. Plasser,  A. Prociuk,  
 D. R. Rehn,  E. Rosta,  N. J. Russ,  N. Sergueev,  S. M. Sharada,  
 S. Sharma,  D. W. Small,  A. Sodt,  T. Stauch,  T. Stein,  D. Stuck,  
 Y.-C. Su,  A. J. W. Thom,  T. Tsuchimochi,  L. Vogt,  O. Vydrov,  T. Wang,  
 M. A. Watson,  J. Wenzel,  A. White,  C. F. Williams,  V. Vanovschi,  
 K. Yao,  S. Yeganeh,  S. R. Yost,  Z.-Q. You,  I. Y. Zhang,  X. Zhang,  
 Y. Zhao,  B. R. Brooks,  G. K. L. Chan,  D. M. Chipman,  C. J. Cramer,  
 W. A. Goddard III,  M. S. Gordon,  W. J. Hehre,  A. Klamt,  
 H. F. Schaefer III,  M. W. Schmidt,  C. D. Sherrill,  D. G. Truhlar,  
 A. Warshel,  X. Xu,  A. Aspuru-Guzik,  R. Baer,  A. T. Bell,  N. A. Besley,  
 J.-D. Chai,  A. Dreuw,  B. D. Dunietz,  T. R. Furlani,  S. R. Gwaltney,  
 C.-P. Hsu,  Y. Jung,  J. Kong,  D. S. Lambrecht,  W. Liang,  C. Ochsenfeld,  
 V. A. Rassolov,  L. V. Slipchenko,  J. E. Subotnik,  T. Van Voorhis,  
 J. M. Herbert,  A. I. Krylov,  P. M. W. Gill,  M. Head-Gordon

 Contributors to earlier versions of Q-Chem not listed above: 
 R. D. Adamson,  J. Baker,  E. F. C. Byrd,  A. K. Chakraborty,  C.-L. Cheng,  
 H. Dachsel,  R. J. Doerksen,  G. Hawkins,  A. Heyden,  S. Hirata,  
 G. Kedziora,  F. J. Keil,  C. Kelley,  P. P. Korambath,  W. Kurlancheek,  
 A. M. Lee,  M. S. Lee,  D. Liotard,  I. Lotan,  P. E. Maslen,  N. Nair,  
 D. Neuhauser,  R. Olson,  B. Peters,  J. Ritchie,  N. E. Schultz,  
 N. Shenvi,  A. C. Simmonett,  K. S. Thanthiriwatte,  Q. Wu,  W. Zhang

 Please cite Q-Chem as follows:
 Y. Shao et al., Mol. Phys. 113, 184-215 (2015)
 DOI: 10.1080/00268976.2014.952696

 Q-Chem 4.4.2 for Intel X86 EM64T Linux

 Parts of Q-Chem use Armadillo 5.200.1 (Boston Tea Smuggler).
 http://arma.sourceforge.net/

 Q-Chem begins on Wed May 31 02:24:45 2017  

Host: nid00447
0

     Scratch files written to /global/cscratch1/sd/bwood/qchem/nx/qchem47915.0//
 Parallel job on  16  processors

Checking the input file for inconsistencies... 	...done.

--------------------------------------------------------------
User input:
--------------------------------------------------------------
$molecule
 0  1
 S           0.00238887        0.06077275        0.00183269
 C           1.73707619        0.03315849        0.00323229
 H           2.27612737        0.05289032        0.94042557
 C           2.24169204       -0.01546201       -1.26965798
 H           3.30285780       -0.04005365       -1.48972496
 C           1.22479222       -0.01612968       -2.26811464
 H           1.42674790       -0.02650987       -3.33334501
 C          -0.05393771        0.02880388       -1.75170966
 C          -1.32450815        0.04889988       -2.45636342
 C          -2.54806543       -0.44653152       -2.05450058
 H          -2.70091680       -0.92368040       -1.09284395
 C          -3.58658103       -0.23918038       -3.00811244
 H          -4.61324198       -0.55390457       -2.85975274
 C          -3.15375068        0.41399950       -4.13201107
 H          -3.72508858        0.70543623       -5.00271131
 S          -1.45832140        0.77222614       -4.04998349
$end


$rem
         jobtype = opt
        exchange = b3lyp
           basis = 6-31++g**
  max_scf_cycles = 150
      mem_static = 775
       mem_total = 7750
      sym_ignore = true
        symmetry = false
          thresh = 12
$end


$opt
CONSTRAINT
tors 6 8 9 10 150.0
ENDCONSTRAINT
$end

--------------------------------------------------------------
 ----------------------------------------------------------------
             Standard Nuclear Orientation (Angstroms)
    I     Atom           X                Y                Z
 ----------------------------------------------------------------
    1      S       0.0023888700     0.0607727500     0.0018326900
    2      C       1.7370761900     0.0331584900     0.0032322900
    3      H       2.2761273700     0.0528903200     0.9404255700
    4      C       2.2416920400    -0.0154620100    -1.2696579800
    5      H       3.3028578000    -0.0400536500    -1.4897249600
    6      C       1.2247922200    -0.0161296800    -2.2681146400
    7      H       1.4267479000    -0.0265098700    -3.3333450100
    8      C      -0.0539377100     0.0288038800    -1.7517096600
    9      C      -1.3245081500     0.0488998800    -2.4563634200
   10      C      -2.5480654300    -0.4465315200    -2.0545005800
   11      H      -2.7009168000    -0.9236804000    -1.0928439500
   12      C      -3.5865810300    -0.2391803800    -3.0081124400
   13      H      -4.6132419800    -0.5539045700    -2.8597527400
   14      C      -3.1537506800     0.4139995000    -4.1320110700
   15      H      -3.7250885800     0.7054362300    -5.0027113100
   16      S      -1.4583214000     0.7722261400    -4.0499834900
 ----------------------------------------------------------------
 Nuclear Repulsion Energy =   628.8940616038 hartrees
 There are       43 alpha and       43 beta electrons
 Requested basis set is 6-31++G(d,p)
 There are 76 shells and 234 basis functions

 Total QAlloc Memory Limit   7750 MB
 Mega-Array Size       758 MB
 MEM_STATIC part       775 MB
 A cutoff of  1.0D-12 yielded   2529 shell pairs
 There are     24905 function pairs

 Q-Chem warning in module /project/projectdirs/jcesr/qchem/qc44/cnl_qc441/compile/cori/qc_src/libqints/qchem/aobasis.C, line 68:

 Using reconstructed effective core potential

 
 -------------------------------------------------------
 OpenMP Integral Computing Module                       
 Release: version 1.0, May 2013, Q-Chem Inc. Pittsburgh 
 -------------------------------------------------------
 Integral Job Info:
 Integral job number is                      11
 Integral operator is                         1
 short-range coefficients                     0
 long-range coefficients              100000000
 Omega coefficients                           0
 if combine SR and LR in K                    0
 Integral screening is                        0
 Integral computing path is                   2
 max size of driver memory is            800000
 size of driver memory is                593474
 size of scratch memory is             15166112
 max col of scratch BK array               1296
 max len of scratch array in speh3          155
 max len of scratch index in speh4           18
 max int batch size is                      520
 min int batch size is                       52
 fixed nKL is                                52
 max L of basis functions is                  2
 order of int derivative is                   0
 number of shells is                         76
 number of basis is                         234
 number of cartesian basis is               234
 number of contracted shell pairs          2529
 number of primitive shell pairs           8254
 maxK2 (contraction) of shell pair           36
 max number of K2 of shell pair               1
 max number of CS2 of shell pair            268
 max number of PS2 of shell pair           1524
 mem total for path MDJ                   51992
 -------------------------------------------------------
 Smallest overlap matrix eigenvalue = 1.03E-06

 Scale SEOQF with 1.000000e-01/1.000000e-01/1.000000e-01

 Standard Electronic Orientation quadrupole field applied
 Nucleus-field energy     =    -0.0000000500 hartrees
 Guess from superposition of atomic densities
 Warning:  Energy on first SCF cycle will be non-variational
 A restricted hybrid HF-DFT SCF calculation will be
 performed using Pulay DIIS extrapolation
 Exchange:     0.2000 Hartree-Fock + 0.0800 Slater + 0.7200 B88
 Correlation:  0.1900 VWN1RPA + 0.8100 LYP
 Using SG-1 standard quadrature grid
 SCF converges when DIIS error is below 1.0E-08
 ---------------------------------------
  Cycle       Energy         DIIS Error
 ---------------------------------------
    1   -1107.1944287504      4.41E-02
    2   -1104.6777268157      4.57E-03
    3   -1104.4848905091      6.63E-03
    4   -1104.8351048794      8.06E-04
    5   -1104.8390586185      4.43E-04
    6   -1104.8403713057      1.25E-04
    7   -1104.8404588513      6.48E-05
    8   -1104.8404881186      1.37E-05
    9   -1104.8404896062      2.17E-06
   10   -1104.8404896319      1.31E-06
   11   -1104.8404896452      3.91E-07
   12   -1104.8404896469      1.56E-07
   13   -1104.8404896457      2.41E-08
   14   -1104.8404896467      1.56E-08
   15   -1104.8404896467      3.06E-09 Convergence criterion met
 ---------------------------------------
 SCF time:  CPU 7.97 s  wall 7.61 s
 SCF   energy in the final basis set = -1104.8404896467
 Total energy in the final basis set = -1104.8404896467
 
 --------------------------------------------------------------
 
                    Orbital Energies (a.u.)
 --------------------------------------------------------------
 
 Alpha MOs
 -- Occupied --
-88.920 -88.920 -10.239 -10.238 -10.225 -10.225 -10.204 -10.204
-10.203 -10.203  -7.979  -7.979  -5.944  -5.944  -5.940  -5.940
 -5.937  -5.936  -0.900  -0.878  -0.771  -0.749  -0.738  -0.706
 -0.604  -0.579  -0.553  -0.534  -0.526  -0.478  -0.420  -0.418
 -0.409  -0.405  -0.400  -0.377  -0.374  -0.357  -0.345  -0.278
 -0.263  -0.260  -0.215
 -- Virtual --
 -0.055  -0.007  -0.006  -0.003   0.007   0.009   0.017   0.022
  0.030   0.035   0.038   0.047   0.050   0.052   0.059   0.061
  0.072   0.081   0.088   0.095   0.099   0.102   0.107   0.109
  0.119   0.123   0.128   0.132   0.134   0.137   0.138   0.139
  0.149   0.155   0.162   0.165   0.166   0.175   0.178   0.182
  0.185   0.191   0.205   0.210   0.213   0.221   0.222   0.226
  0.241   0.253   0.257   0.264   0.266   0.276   0.283   0.293
  0.312   0.316   0.329   0.341   0.353   0.354   0.378   0.389
  0.430   0.454   0.464   0.517   0.519   0.541   0.547   0.567
  0.582   0.613   0.615   0.618   0.649   0.659   0.662   0.677
  0.679   0.698   0.719   0.728   0.728   0.742   0.751   0.772
  0.788   0.817   0.818   0.832   0.843   0.868   0.917   0.940
  0.951   0.953   0.957   0.961   0.969   0.989   0.999   1.014
  1.018   1.032   1.044   1.065   1.091   1.100   1.116   1.138
  1.146   1.177   1.192   1.224   1.251   1.267   1.318   1.347
  1.347   1.353   1.358   1.375   1.453   1.469   1.511   1.524
  1.577   1.684   1.693   1.738   1.801   1.865   1.868   1.891
  1.918   1.919   1.942   1.972   2.007   2.047   2.070   2.093
  2.112   2.160   2.177   2.183   2.235   2.239   2.259   2.336
  2.364   2.368   2.420   2.448   2.459   2.469   2.491   2.509
  2.524   2.530   2.576   2.585   2.602   2.661   2.693   2.717
  2.749   2.856   2.865   2.917   2.932   3.146   3.201   3.269
  3.272   3.400   3.428   3.720   3.743   3.972   3.977   4.245
  4.305   4.316   4.332   4.414   4.538   4.657   4.714
 --------------------------------------------------------------
 
          Ground-State Mulliken Net Atomic Charges

     Atom                 Charge (a.u.)
  ----------------------------------------
      1 S                    -0.057764
      2 C                    -0.037941
      3 H                     0.188335
      4 C                    -0.388329
      5 H                     0.115048
      6 C                     0.289437
      7 H                     0.126703
      8 C                    -0.239043
      9 C                    -0.231656
     10 C                     0.286157
     11 H                     0.126874
     12 C                    -0.386324
     13 H                     0.114989
     14 C                    -0.038330
     15 H                     0.188318
     16 S                    -0.056474
  ----------------------------------------
  Sum of atomic charges =     0.000000

 -----------------------------------------------------------------
                    Cartesian Multipole Moments
 -----------------------------------------------------------------
    Charge (ESU x 10^10)
                 0.0000
    Dipole Moment (Debye)
         X       0.0204      Y      -0.2081      Z      -0.0433
       Tot       0.2135
    Quadrupole Moments (Debye-Ang)
        XX     -62.5507     XY       1.0092     YY     -77.7714
        XZ       3.4236     YZ      -1.4455     ZZ     -67.5800
    Octopole Moments (Debye-Ang^2)
       XXX     132.5610    XXY     -14.0005    XYY      51.0005
       YYY     -28.5479    XXZ     123.3997    XYZ       4.8780
       YYZ     160.9566    XZZ      34.8144    YZZ       3.1931
       ZZZ     426.5553
    Hexadecapole Moments (Debye-Ang^3)
      XXXX   -1598.8133   XXXY      52.1855   XXYY    -351.5068
      XYYY      30.1233   YYYY    -173.3591   XXXZ    -603.5492
      XXYZ      30.8731   XYYZ    -249.2834   YYYZ     128.6397
      XXZZ    -665.3678   XYZZ     -32.2362   YYZZ    -561.0390
      XZZZ    -587.0142   YZZZ      50.0135   ZZZZ   -2857.2927
 -----------------------------------------------------------------
 Calculating analytic gradient of the SCF energy
 Gradient of SCF Energy
            1           2           3           4           5           6
    1  -0.0000008   0.0001405  -0.0000191  -0.0000865   0.0000005   0.0001866
    2  -0.0015077   0.0017748   0.0007261  -0.0017105   0.0000920  -0.0028092
    3   0.0001537  -0.0000968  -0.0000214  -0.0000609  -0.0000000   0.0000533
            7           8           9          10          11          12
    1   0.0001413  -0.0010137   0.0006132   0.0004122  -0.0004259   0.0003616
    2   0.0015520   0.0019032   0.0018953  -0.0027426   0.0013593  -0.0013878
    3   0.0000214  -0.0001450   0.0010563  -0.0013050   0.0005857  -0.0006136
           13          14          15          16
    1  -0.0000077  -0.0004536  -0.0001387   0.0002899
    2   0.0000561   0.0015214   0.0006622  -0.0013846
    3   0.0000298   0.0008283   0.0002970  -0.0007828
 Max gradient component =       2.809E-03
 RMS gradient           =       1.017E-03
 Gradient time:  CPU 2.10 s  wall 2.09 s
 Geometry Optimization Parameters
   NAtoms,    NIC,     NZ,  NCons,   NDum,   NFix, NCnnct, MaxDiis
       16     111       0       1       0       0       0       0


** CONSTRAINED OPTIMIZATION IN DELOCALIZED INTERNAL COORDINATES **
   Searching for a Minimum

   Optimization Cycle:   1

                       Coordinates (Angstroms)
     ATOM                X               Y               Z
      1  S         0.0023888700    0.0607727500    0.0018326900
      2  C         1.7370761900    0.0331584900    0.0032322900
      3  H         2.2761273700    0.0528903200    0.9404255700
      4  C         2.2416920400   -0.0154620100   -1.2696579800
      5  H         3.3028578000   -0.0400536500   -1.4897249600
      6  C         1.2247922200   -0.0161296800   -2.2681146400
      7  H         1.4267479000   -0.0265098700   -3.3333450100
      8  C        -0.0539377100    0.0288038800   -1.7517096600
      9  C        -1.3245081500    0.0488998800   -2.4563634200
     10  C        -2.5480654300   -0.4465315200   -2.0545005800
     11  H        -2.7009168000   -0.9236804000   -1.0928439500
     12  C        -3.5865810300   -0.2391803800   -3.0081124400
     13  H        -4.6132419800   -0.5539045700   -2.8597527400
     14  C        -3.1537506800    0.4139995000   -4.1320110700
     15  H        -3.7250885800    0.7054362300   -5.0027113100
     16  S        -1.4583214000    0.7722261400   -4.0499834900
   Point Group: c1    Number of degrees of freedom:    42


   Energy is  -1104.840489647

              Constraints and their Current Values
                                        Value     Constraint
   Dihedral:        6   8   9  10      150.000      150.000

 Attempting to Generate Delocalized Internal Coordinates

 41 Hessian modes will be used to form the next step
  Hessian Eigenvalues:
     0.045000    0.045000    0.045000    0.045000    0.045000    0.045000
     0.045002    0.045002    0.045003    0.045004    0.045011    0.045012
     0.159943    0.159949    0.159991    0.159992    0.160000    0.160000
     0.221282    0.221282    0.237835    0.237839    0.250000    0.250000
     0.294264    0.294663    0.312518    0.312618    0.354736    0.354850
     0.355125    0.355132    0.358226    0.358329    0.378510    0.404854
     0.404909    0.463547    0.463616    0.497922    0.497945

 Minimum Search - Taking Simple RFO Step
 Searching for Lamda that Minimizes Along All modes
 Value Taken    Lamda =  -0.00039096
 Step Taken.  Stepsize is  0.092554

                             Maximum     Tolerance    Cnvgd?
         Gradient           0.003091      0.000300      NO
         Displacement       0.068658      0.001200      NO
         Energy change     *********      0.000001      NO


 New Cartesian Coordinates Obtained by Inverse Iteration

 Displacement from previous Coordinates is:  0.161082
 ----------------------------------------------------------------
             Standard Nuclear Orientation (Angstroms)
    I     Atom           X                Y                Z
 ----------------------------------------------------------------
    1      S       0.0046480235     0.0785384970     0.0039202615
    2      C       1.7382936629     0.0157594685     0.0030543708
    3      H       2.2784586257     0.0084909859     0.9398133040
    4      C       2.2411906986    -0.0114699199    -1.2711987051
    5      H       3.3016545361    -0.0486953869    -1.4928670741
    6      C       1.2227954254     0.0026079744    -2.2682972932
    7      H       1.4217593412    -0.0165002788    -3.3339806505
    8      C      -0.0545240240     0.0473937479    -1.7493509509
    9      C      -1.3275551232     0.0670765760    -2.4513510207
   10      C      -2.5496664212    -0.4284185294    -2.0463967487
   11      H      -2.6976683211    -0.9129291026    -1.0876382362
   12      C      -3.5866486475    -0.2364332810    -3.0050776613
   13      H      -4.6099771503    -0.5634625024    -2.8603109541
   14      C      -3.1517944840     0.3981364389    -4.1388937912
   15      H      -3.7191442268     0.6646295434    -5.0201086431
   16      S      -1.4645512853     0.7900108792    -4.0446569074
 ----------------------------------------------------------------
 Nuclear Repulsion Energy =   628.8790087908 hartrees
 There are       43 alpha and       43 beta electrons
 Applying Cartesian multipole field
    Component          Value
    ---------          -----
     (2,0,0)        1.00000E-11
     (0,2,0)        2.00000E-11
     (0,0,2)       -3.00000E-11
 Nucleus-field energy     =    -0.0000000499 hartrees
 Requested basis set is 6-31++G(d,p)
 There are 76 shells and 234 basis functions
 A cutoff of  1.0D-12 yielded   2529 shell pairs
 There are     24905 function pairs

 Q-Chem warning in module /project/projectdirs/jcesr/qchem/qc44/cnl_qc441/compile/cori/qc_src/libqints/qchem/aobasis.C, line 68:

 Using reconstructed effective core potential

 Smallest overlap matrix eigenvalue = 1.01E-06
 Guess MOs from SCF MO coefficient file
 Reading MOs from coefficient file
 Reading MOs from coefficient file
 A restricted hybrid HF-DFT SCF calculation will be
 performed using Pulay DIIS extrapolation
 Exchange:     0.2000 Hartree-Fock + 0.0800 Slater + 0.7200 B88
 Correlation:  0.1900 VWN1RPA + 0.8100 LYP
 Using SG-1 standard quadrature grid
 SCF converges when DIIS error is below 1.0E-08
 Geometry optimization detected.  Setting ReadMinima to 0
 Setting SaveMinima to 0
 ---------------------------------------
  Cycle       Energy         DIIS Error
 ---------------------------------------
    1   -1104.8404282596      6.08E-04
    2   -1104.8406986936      5.30E-05
    3   -1104.8406399913      1.07E-04
    4   -1104.8407289195      1.27E-05
    5   -1104.8407295976      8.72E-06
    6   -1104.8407301328      2.37E-06
    7   -1104.8407301732      6.65E-07
    8   -1104.8407301767      1.49E-07
    9   -1104.8407301764      4.53E-08
   10   -1104.8407301762      1.43E-08
   11   -1104.8407301755      7.64E-09 Convergence criterion met
 ---------------------------------------
 SCF time:  CPU 6.05 s  wall 5.69 s
 SCF   energy in the final basis set = -1104.8407301755
 Total energy in the final basis set = -1104.8407301755
 
 --------------------------------------------------------------
 
                    Orbital Energies (a.u.)
 --------------------------------------------------------------
 
 Alpha MOs
 -- Occupied --
-88.920 -88.920 -10.239 -10.238 -10.225 -10.225 -10.205 -10.204
-10.203 -10.203  -7.979  -7.979  -5.944  -5.944  -5.940  -5.940
 -5.936  -5.936  -0.900  -0.878  -0.771  -0.749  -0.738  -0.706
 -0.604  -0.579  -0.553  -0.534  -0.526  -0.478  -0.420  -0.418
 -0.408  -0.405  -0.400  -0.378  -0.374  -0.357  -0.345  -0.278
 -0.263  -0.260  -0.215
 -- Virtual --
 -0.055  -0.007  -0.006  -0.003   0.007   0.009   0.017   0.022
  0.031   0.034   0.038   0.047   0.049   0.051   0.059   0.061
  0.072   0.081   0.088   0.096   0.099   0.102   0.107   0.109
  0.119   0.123   0.129   0.132   0.134   0.137   0.138   0.138
  0.148   0.155   0.162   0.165   0.165   0.174   0.178   0.182
  0.186   0.192   0.205   0.209   0.213   0.221   0.222   0.226
  0.241   0.253   0.257   0.263   0.266   0.276   0.283   0.292
  0.312   0.316   0.328   0.342   0.353   0.355   0.378   0.388
  0.431   0.455   0.464   0.517   0.519   0.540   0.547   0.566
  0.582   0.611   0.616   0.617   0.650   0.658   0.663   0.679
  0.679   0.699   0.720   0.727   0.728   0.741   0.752   0.773
  0.787   0.817   0.819   0.832   0.843   0.867   0.918   0.941
  0.951   0.954   0.957   0.961   0.969   0.990   0.998   1.014
  1.018   1.032   1.045   1.065   1.090   1.100   1.116   1.139
  1.146   1.177   1.194   1.224   1.249   1.267   1.321   1.344
  1.345   1.351   1.359   1.377   1.457   1.469   1.512   1.523
  1.575   1.683   1.693   1.738   1.801   1.865   1.868   1.891
  1.919   1.919   1.942   1.972   2.006   2.045   2.071   2.094
  2.112   2.160   2.176   2.183   2.234   2.241   2.258   2.334
  2.364   2.367   2.421   2.451   2.456   2.467   2.493   2.508
  2.525   2.533   2.575   2.585   2.603   2.661   2.692   2.718
  2.748   2.854   2.864   2.917   2.932   3.146   3.201   3.269
  3.273   3.400   3.427   3.721   3.743   3.973   3.977   4.245
  4.305   4.317   4.331   4.413   4.538   4.657   4.714
 --------------------------------------------------------------
 
          Ground-State Mulliken Net Atomic Charges

     Atom                 Charge (a.u.)
  ----------------------------------------
      1 S                    -0.055810
      2 C                    -0.040523
      3 H                     0.187966
      4 C                    -0.387136
      5 H                     0.115166
      6 C                     0.290008
      7 H                     0.127434
      8 C                    -0.237921
      9 C                    -0.236468
     10 C                     0.288373
     11 H                     0.127587
     12 C                    -0.386345
     13 H                     0.115083
     14 C                    -0.041020
     15 H                     0.187905
     16 S                    -0.054298
  ----------------------------------------
  Sum of atomic charges =     0.000000

 -----------------------------------------------------------------
                    Cartesian Multipole Moments
 -----------------------------------------------------------------
    Charge (ESU x 10^10)
                 0.0000
    Dipole Moment (Debye)
         X       0.0260      Y      -0.2649      Z      -0.0554
       Tot       0.2719
    Quadrupole Moments (Debye-Ang)
        XX     -62.6282     XY       1.0355     YY     -77.7767
        XZ       3.4594     YZ      -1.3360     ZZ     -67.4684
    Octopole Moments (Debye-Ang^2)
       XXX     133.1871    XXY     -15.5448    XYY      51.1997
       YYY     -30.6134    XXZ     123.3219    XYZ       4.1501
       YYZ     160.9124    XZZ      34.4319    YZZ       1.7700
       ZZZ     425.2393
    Hexadecapole Moments (Debye-Ang^3)
      XXXX   -1602.4758   XXXY      55.5028   XXYY    -352.4066
      XYYY      31.9292   YYYY    -174.4441   XXXZ    -604.7377
      XXYZ      34.9695   XYYZ    -250.2332   YYYZ     133.1093
      XXZZ    -663.8792   XYZZ     -28.7681   YYZZ    -561.4096
      XZZZ    -583.6726   YZZZ      57.5841   ZZZZ   -2847.3545
 -----------------------------------------------------------------
 Calculating analytic gradient of the SCF energy
 Gradient of SCF Energy
            1           2           3           4           5           6
    1   0.0000396   0.0000513  -0.0000268  -0.0000081   0.0000004  -0.0000592
    2   0.0001613   0.0000005   0.0002032  -0.0000099   0.0000486  -0.0020097
    3   0.0000355  -0.0000585   0.0000254   0.0000041   0.0000057   0.0000977
            7           8           9          10          11          12
    1   0.0000725  -0.0000043  -0.0001335   0.0004602  -0.0002608  -0.0000004
    2   0.0010071   0.0006386   0.0004944  -0.0018014   0.0008703   0.0000258
    3  -0.0000279  -0.0001363   0.0004050  -0.0009281   0.0004262   0.0000028
           13          14          15          16
    1  -0.0000072  -0.0000621  -0.0000113  -0.0000504
    2   0.0000209  -0.0000510   0.0002110   0.0001904
    3   0.0000111   0.0000478   0.0000786   0.0000111
 Max gradient component =       2.010E-03
 RMS gradient           =       4.880E-04
 Gradient time:  CPU 2.13 s  wall 2.08 s
 Geometry Optimization Parameters
   NAtoms,    NIC,     NZ,  NCons,   NDum,   NFix, NCnnct, MaxDiis
       16     111       0       1       0       0       0       0

 Cartesian Hessian Update
 Hessian Updated using BFGS Update


** CONSTRAINED OPTIMIZATION IN DELOCALIZED INTERNAL COORDINATES **
   Searching for a Minimum

   Optimization Cycle:   2

                       Coordinates (Angstroms)
     ATOM                X               Y               Z
      1  S         0.0046480235    0.0785384970    0.0039202615
      2  C         1.7382936629    0.0157594685    0.0030543708
      3  H         2.2784586257    0.0084909859    0.9398133040
      4  C         2.2411906986   -0.0114699199   -1.2711987051
      5  H         3.3016545361   -0.0486953869   -1.4928670741
      6  C         1.2227954254    0.0026079744   -2.2682972932
      7  H         1.4217593412   -0.0165002788   -3.3339806505
      8  C        -0.0545240240    0.0473937479   -1.7493509509
      9  C        -1.3275551232    0.0670765760   -2.4513510207
     10  C        -2.5496664212   -0.4284185294   -2.0463967487
     11  H        -2.6976683211   -0.9129291026   -1.0876382362
     12  C        -3.5866486475   -0.2364332810   -3.0050776613
     13  H        -4.6099771503   -0.5634625024   -2.8603109541
     14  C        -3.1517944840    0.3981364389   -4.1388937912
     15  H        -3.7191442268    0.6646295434   -5.0201086431
     16  S        -1.4645512853    0.7900108792   -4.0446569074
   Point Group: c1    Number of degrees of freedom:    42


   Energy is  -1104.840730176

              Constraints and their Current Values
                                        Value     Constraint
   Dihedral:        6   8   9  10      150.000      150.000
 Hessian Updated using BFGS Update

 36 Hessian modes will be used to form the next step
  Hessian Eigenvalues:
     0.028576    0.045000    0.045001    0.045003    0.045004    0.045012
     0.055032    0.159881    0.159947    0.159990    0.159992    0.160000
     0.160019    0.221268    0.221283    0.237774    0.237841    0.249999
     0.250059    0.294231    0.294646    0.312528    0.312617    0.354742
     0.354854    0.355125    0.355132    0.358227    0.358330    0.378933
     0.404863    0.404910    0.463496    0.463589    0.497931    0.497987

 Minimum Search - Taking Simple RFO Step
 Searching for Lamda that Minimizes Along All modes
 Value Taken    Lamda =  -0.00006867
 Step Taken.  Stepsize is  0.048245

                             Maximum     Tolerance    Cnvgd?
         Gradient           0.000797      0.000300      NO
         Displacement       0.029660      0.001200      NO
         Energy change     -0.000241      0.000001      NO


 New Cartesian Coordinates Obtained by Inverse Iteration

 Displacement from previous Coordinates is:  0.062858
 ----------------------------------------------------------------
             Standard Nuclear Orientation (Angstroms)
    I     Atom           X                Y                Z
 ----------------------------------------------------------------
    1      S       0.0052593616     0.0839789379     0.0053055368
    2      C       1.7385347209     0.0120126134     0.0029040268
    3      H       2.2794199012    -0.0071431413     0.9390690999
    4      C       2.2405262996    -0.0098090150    -1.2718767550
    5      H       3.3004906235    -0.0552436681    -1.4944096952
    6      C       1.2214976000     0.0123410399    -2.2682383737
    7      H       1.4186082101    -0.0177525225    -3.3339643393
    8      C      -0.0551454809     0.0570154481    -1.7478852134
    9      C      -1.3288842500     0.0765112670    -2.4486878791
   10      C      -2.5503699804    -0.4191483767    -2.0423277796
   11      H      -2.6944609396    -0.9133070064    -1.0879591645
   12      C      -3.5862475319    -0.2351662409    -3.0038383429
   13      H      -4.6074523315    -0.5698852021    -2.8617133027
   14      C      -3.1512689756     0.3947542423    -4.1402735236
   15      H      -3.7169382347     0.6500995614    -5.0258723843
   16      S      -1.4662983624     0.7954771727    -4.0435726103
 ----------------------------------------------------------------
 Nuclear Repulsion Energy =   628.8958084284 hartrees
 There are       43 alpha and       43 beta electrons
 Applying Cartesian multipole field
    Component          Value
    ---------          -----
     (2,0,0)        1.00000E-11
     (0,2,0)        2.00000E-11
     (0,0,2)       -3.00000E-11
 Nucleus-field energy     =    -0.0000000498 hartrees
 Requested basis set is 6-31++G(d,p)
 There are 76 shells and 234 basis functions
 A cutoff of  1.0D-12 yielded   2529 shell pairs
 There are     24905 function pairs

 Q-Chem warning in module /project/projectdirs/jcesr/qchem/qc44/cnl_qc441/compile/cori/qc_src/libqints/qchem/aobasis.C, line 68:

 Using reconstructed effective core potential

 Smallest overlap matrix eigenvalue = 1.00E-06
 Guess MOs from SCF MO coefficient file
 Reading MOs from coefficient file
 Reading MOs from coefficient file
 A restricted hybrid HF-DFT SCF calculation will be
 performed using Pulay DIIS extrapolation
 Exchange:     0.2000 Hartree-Fock + 0.0800 Slater + 0.7200 B88
 Correlation:  0.1900 VWN1RPA + 0.8100 LYP
 Using SG-1 standard quadrature grid
 SCF converges when DIIS error is below 1.0E-08
 Geometry optimization detected.  Setting ReadMinima to 0
 Setting SaveMinima to 0
 ---------------------------------------
  Cycle       Energy         DIIS Error
 ---------------------------------------
    1   -1104.8402959795      2.17E-04
    2   -1104.8407691184      2.07E-05
    3   -1104.8407604709      4.09E-05
    4   -1104.8407735824      4.97E-06
    5   -1104.8407736734      3.66E-06
    6   -1104.8407737712      8.39E-07
    7   -1104.8407737759      2.22E-07
    8   -1104.8407737778      5.11E-08
    9   -1104.8407737781      1.64E-08
   10   -1104.8407737782      3.81E-09 Convergence criterion met
 ---------------------------------------
 SCF time:  CPU 5.39 s  wall 6.10 s
 SCF   energy in the final basis set = -1104.8407737782
 Total energy in the final basis set = -1104.8407737782
 
 --------------------------------------------------------------
 
                    Orbital Energies (a.u.)
 --------------------------------------------------------------
 
 Alpha MOs
 -- Occupied --
-88.920 -88.920 -10.239 -10.238 -10.225 -10.225 -10.205 -10.204
-10.203 -10.203  -7.979  -7.979  -5.944  -5.943  -5.940  -5.940
 -5.936  -5.936  -0.900  -0.878  -0.771  -0.749  -0.738  -0.706
 -0.604  -0.579  -0.553  -0.534  -0.526  -0.478  -0.420  -0.418
 -0.408  -0.405  -0.400  -0.378  -0.374  -0.357  -0.345  -0.278
 -0.263  -0.260  -0.215
 -- Virtual --
 -0.055  -0.006  -0.006  -0.002   0.007   0.009   0.017   0.022
  0.031   0.035   0.038   0.047   0.049   0.051   0.059   0.061
  0.072   0.082   0.088   0.096   0.099   0.102   0.107   0.109
  0.119   0.123   0.129   0.132   0.133   0.137   0.138   0.138
  0.148   0.156   0.162   0.164   0.165   0.173   0.178   0.182
  0.186   0.192   0.205   0.209   0.213   0.221   0.222   0.225
  0.241   0.253   0.257   0.263   0.266   0.277   0.283   0.292
  0.312   0.316   0.328   0.342   0.354   0.355   0.378   0.388
  0.431   0.455   0.465   0.518   0.518   0.540   0.547   0.566
  0.582   0.611   0.616   0.617   0.650   0.657   0.663   0.678
  0.679   0.699   0.720   0.727   0.729   0.741   0.752   0.773
  0.787   0.817   0.819   0.832   0.843   0.867   0.918   0.941
  0.950   0.956   0.957   0.961   0.968   0.990   0.998   1.014
  1.018   1.031   1.046   1.065   1.090   1.100   1.116   1.139
  1.146   1.176   1.196   1.224   1.247   1.267   1.319   1.341
  1.348   1.352   1.359   1.378   1.462   1.466   1.513   1.523
  1.572   1.683   1.693   1.738   1.801   1.865   1.868   1.891
  1.919   1.920   1.943   1.972   2.006   2.044   2.072   2.093
  2.112   2.160   2.176   2.183   2.234   2.242   2.257   2.334
  2.364   2.367   2.421   2.452   2.455   2.466   2.493   2.506
  2.527   2.534   2.575   2.585   2.603   2.661   2.692   2.719
  2.747   2.854   2.864   2.918   2.933   3.146   3.201   3.269
  3.273   3.401   3.427   3.721   3.743   3.973   3.977   4.245
  4.306   4.317   4.331   4.413   4.538   4.657   4.713
 --------------------------------------------------------------
 
          Ground-State Mulliken Net Atomic Charges

     Atom                 Charge (a.u.)
  ----------------------------------------
      1 S                    -0.057493
      2 C                    -0.039573
      3 H                     0.187915
      4 C                    -0.390060
      5 H                     0.115082
      6 C                     0.299910
      7 H                     0.128106
      8 C                    -0.243361
      9 C                    -0.244795
     10 C                     0.299071
     11 H                     0.128268
     12 C                    -0.389909
     13 H                     0.114986
     14 C                    -0.039959
     15 H                     0.187864
     16 S                    -0.056051
  ----------------------------------------
  Sum of atomic charges =     0.000000

 -----------------------------------------------------------------
                    Cartesian Multipole Moments
 -----------------------------------------------------------------
    Charge (ESU x 10^10)
                 0.0000
    Dipole Moment (Debye)
         X       0.0306      Y      -0.3105      Z      -0.0653
       Tot       0.3188
    Quadrupole Moments (Debye-Ang)
        XX     -62.6853     XY       1.0568     YY     -77.7687
        XZ       3.4801     YZ      -1.2401     ZZ     -67.4030
    Octopole Moments (Debye-Ang^2)
       XXX     133.5460    XXY     -16.3534    XYY      51.2419
       YYY     -31.6029    XXZ     123.2842    XYZ       3.8426
       YYZ     160.8814    XZZ      34.2547    YZZ       0.9919
       ZZZ     424.5736
    Hexadecapole Moments (Debye-Ang^3)
      XXXX   -1604.2083   XXXY      57.0819   XXYY    -352.5134
      XYYY      32.7762   YYYY    -174.8240   XXXZ    -605.1349
      XXYZ      37.0591   XYYZ    -250.4819   YYYZ     135.2727
      XXZZ    -663.2170   XYZZ     -27.2903   YYZZ    -561.5962
      XZZZ    -582.1801   YZZZ      61.4351   ZZZZ   -2842.7537
 -----------------------------------------------------------------
 Calculating analytic gradient of the SCF energy
 Gradient of SCF Energy
            1           2           3           4           5           6
    1   0.0000178  -0.0000257  -0.0000187   0.0000180  -0.0000072  -0.0000987
    2   0.0002881  -0.0001670  -0.0000090   0.0003212  -0.0000875  -0.0010608
    3   0.0000129  -0.0000128   0.0000117   0.0000107   0.0000022   0.0000262
            7           8           9          10          11          12
    1   0.0000184   0.0002587  -0.0003072   0.0003081  -0.0001001  -0.0000742
    2   0.0004486   0.0003095   0.0001612  -0.0009236   0.0003807   0.0002790
    3  -0.0000126  -0.0001224   0.0002193  -0.0004413   0.0001836   0.0001095
           13          14          15          16
    1   0.0000282   0.0000395   0.0000163  -0.0000732
    2  -0.0000970  -0.0001478   0.0000172   0.0002874
    3  -0.0000468  -0.0000548  -0.0000037   0.0001179
 Max gradient component =       1.061E-03
 RMS gradient           =       2.691E-04
 Gradient time:  CPU 2.08 s  wall 2.08 s
 Geometry Optimization Parameters
   NAtoms,    NIC,     NZ,  NCons,   NDum,   NFix, NCnnct, MaxDiis
       16     111       0       1       0       0       0       0

 Cartesian Hessian Update
 Hessian Updated using BFGS Update


** CONSTRAINED OPTIMIZATION IN DELOCALIZED INTERNAL COORDINATES **
   Searching for a Minimum

   Optimization Cycle:   3

                       Coordinates (Angstroms)
     ATOM                X               Y               Z
      1  S         0.0052593616    0.0839789379    0.0053055368
      2  C         1.7385347209    0.0120126134    0.0029040268
      3  H         2.2794199012   -0.0071431413    0.9390690999
      4  C         2.2405262996   -0.0098090150   -1.2718767550
      5  H         3.3004906235   -0.0552436681   -1.4944096952
      6  C         1.2214976000    0.0123410399   -2.2682383737
      7  H         1.4186082101   -0.0177525225   -3.3339643393
      8  C        -0.0551454809    0.0570154481   -1.7478852134
      9  C        -1.3288842500    0.0765112670   -2.4486878791
     10  C        -2.5503699804   -0.4191483767   -2.0423277796
     11  H        -2.6944609396   -0.9133070064   -1.0879591645
     12  C        -3.5862475319   -0.2351662409   -3.0038383429
     13  H        -4.6074523315   -0.5698852021   -2.8617133027
     14  C        -3.1512689756    0.3947542423   -4.1402735236
     15  H        -3.7169382347    0.6500995614   -5.0258723843
     16  S        -1.4662983624    0.7954771727   -4.0435726103
   Point Group: c1    Number of degrees of freedom:    42


   Energy is  -1104.840773778

              Constraints and their Current Values
                                        Value     Constraint
   Dihedral:        6   8   9  10      150.000      150.000
 Hessian Updated using BFGS Update

 36 Hessian modes will be used to form the next step
  Hessian Eigenvalues:
     0.019988    0.045000    0.045003    0.045004    0.045012    0.045882
     0.056106    0.159874    0.159946    0.159990    0.159992    0.160000
     0.160004    0.221283    0.221298    0.237839    0.238056    0.249999
     0.250070    0.294257    0.294657    0.312526    0.312627    0.354742
     0.354853    0.355125    0.355133    0.358227    0.358330    0.379022
     0.404863    0.404916    0.463579    0.463991    0.497931    0.497997

 Minimum Search - Taking Simple RFO Step
 Searching for Lamda that Minimizes Along All modes
 Value Taken    Lamda =  -0.00001460
 Step Taken.  Stepsize is  0.024940

                             Maximum     Tolerance    Cnvgd?
         Gradient           0.000457      0.000300      NO
         Displacement       0.014573      0.001200      NO
         Energy change     -0.000044      0.000001      NO


 New Cartesian Coordinates Obtained by Inverse Iteration

 Displacement from previous Coordinates is:  0.017599
 ----------------------------------------------------------------
             Standard Nuclear Orientation (Angstroms)
    I     Atom           X                Y                Z
 ----------------------------------------------------------------
    1      S       0.0053402333     0.0839425568     0.0058488454
    2      C       1.7386805464     0.0122100709     0.0029986871
    3      H       2.2799079076    -0.0096548709     0.9389076684
    4      C       2.2403128058    -0.0091122771    -1.2719326505
    5      H       3.3001485358    -0.0563603815    -1.4947245313
    6      C       1.2210936507     0.0154208436    -2.2680457581
    7      H       1.4175523377    -0.0214183135    -3.3336645918
    8      C      -0.0554738339     0.0600447644    -1.7473405887
    9      C      -1.3292069206     0.0795093688    -2.4478836034
   10      C      -2.5506350153    -0.4162582344    -2.0412340305
   11      H      -2.6928134030    -0.9164239776    -1.0897220319
   12      C      -3.5861854457    -0.2344951647    -3.0035066582
   13      H      -4.6069299628    -0.5708457172    -2.8619016497
   14      C      -3.1513841912     0.3949445915    -4.1402842900
   15      H      -3.7167982975     0.6476488829    -5.0268087420
   16      S      -1.4663383172     0.7955829681    -4.0440467749
 ----------------------------------------------------------------
 Nuclear Repulsion Energy =   628.8937587693 hartrees
 There are       43 alpha and       43 beta electrons
 Applying Cartesian multipole field
    Component          Value
    ---------          -----
     (2,0,0)        1.00000E-11
     (0,2,0)        2.00000E-11
     (0,0,2)       -3.00000E-11
 Nucleus-field energy     =    -0.0000000498 hartrees
 Requested basis set is 6-31++G(d,p)
 There are 76 shells and 234 basis functions
 A cutoff of  1.0D-12 yielded   2529 shell pairs
 There are     24905 function pairs

 Q-Chem warning in module /project/projectdirs/jcesr/qchem/qc44/cnl_qc441/compile/cori/qc_src/libqints/qchem/aobasis.C, line 68:

 Using reconstructed effective core potential

 Smallest overlap matrix eigenvalue = 1.00E-06
 Guess MOs from SCF MO coefficient file
 Reading MOs from coefficient file
 Reading MOs from coefficient file
 A restricted hybrid HF-DFT SCF calculation will be
 performed using Pulay DIIS extrapolation
 Exchange:     0.2000 Hartree-Fock + 0.0800 Slater + 0.7200 B88
 Correlation:  0.1900 VWN1RPA + 0.8100 LYP
 Using SG-1 standard quadrature grid
 SCF converges when DIIS error is below 1.0E-08
 Geometry optimization detected.  Setting ReadMinima to 0
 Setting SaveMinima to 0
 ---------------------------------------
  Cycle       Energy         DIIS Error
 ---------------------------------------
    1   -1104.8403159948      6.26E-05
    2   -1104.8407821078      6.01E-06
    3   -1104.8407815032      1.11E-05
    4   -1104.8407824646      1.77E-06
    5   -1104.8407824796      1.08E-06
    6   -1104.8407824873      2.67E-07
    7   -1104.8407824888      9.11E-08
    8   -1104.8407824871      2.00E-08
    9   -1104.8407824874      5.18E-09 Convergence criterion met
 ---------------------------------------
 SCF time:  CPU 4.90 s  wall 4.64 s
 SCF   energy in the final basis set = -1104.8407824874
 Total energy in the final basis set = -1104.8407824874
 
 --------------------------------------------------------------
 
                    Orbital Energies (a.u.)
 --------------------------------------------------------------
 
 Alpha MOs
 -- Occupied --
-88.920 -88.920 -10.239 -10.238 -10.225 -10.225 -10.205 -10.204
-10.203 -10.203  -7.979  -7.979  -5.944  -5.944  -5.940  -5.940
 -5.936  -5.936  -0.900  -0.878  -0.771  -0.749  -0.738  -0.706
 -0.604  -0.579  -0.553  -0.534  -0.526  -0.478  -0.420  -0.418
 -0.408  -0.405  -0.400  -0.378  -0.374  -0.357  -0.345  -0.278
 -0.263  -0.260  -0.215
 -- Virtual --
 -0.055  -0.006  -0.006  -0.002   0.007   0.009   0.017   0.022
  0.031   0.035   0.038   0.047   0.049   0.051   0.059   0.061
  0.072   0.082   0.088   0.096   0.099   0.102   0.107   0.108
  0.119   0.123   0.129   0.132   0.133   0.137   0.138   0.138
  0.148   0.156   0.162   0.164   0.165   0.173   0.178   0.182
  0.186   0.192   0.205   0.209   0.213   0.221   0.222   0.225
  0.241   0.253   0.257   0.263   0.266   0.277   0.283   0.291
  0.312   0.316   0.328   0.342   0.354   0.355   0.378   0.388
  0.431   0.454   0.465   0.518   0.518   0.540   0.547   0.566
  0.582   0.612   0.616   0.617   0.650   0.657   0.663   0.678
  0.679   0.699   0.720   0.727   0.729   0.741   0.753   0.773
  0.788   0.817   0.819   0.832   0.843   0.867   0.918   0.941
  0.950   0.957   0.958   0.961   0.968   0.990   0.997   1.014
  1.018   1.031   1.046   1.065   1.091   1.100   1.116   1.138
  1.146   1.176   1.196   1.224   1.246   1.267   1.318   1.341
  1.349   1.352   1.359   1.378   1.464   1.465   1.513   1.525
  1.570   1.684   1.693   1.737   1.801   1.865   1.868   1.891
  1.919   1.921   1.943   1.972   2.006   2.044   2.073   2.093
  2.113   2.159   2.176   2.183   2.234   2.243   2.257   2.333
  2.364   2.367   2.421   2.452   2.455   2.466   2.493   2.506
  2.528   2.534   2.576   2.585   2.604   2.662   2.692   2.719
  2.747   2.854   2.864   2.918   2.933   3.146   3.201   3.269
  3.273   3.401   3.427   3.721   3.743   3.973   3.977   4.245
  4.306   4.317   4.331   4.413   4.538   4.657   4.713
 --------------------------------------------------------------
 
          Ground-State Mulliken Net Atomic Charges

     Atom                 Charge (a.u.)
  ----------------------------------------
      1 S                    -0.058836
      2 C                    -0.038624
      3 H                     0.187931
      4 C                    -0.391961
      5 H                     0.115027
      6 C                     0.306073
      7 H                     0.128431
      8 C                    -0.247236
      9 C                    -0.249205
     10 C                     0.305271
     11 H                     0.128601
     12 C                    -0.391839
     13 H                     0.114930
     14 C                    -0.039053
     15 H                     0.187881
     16 S                    -0.057390
  ----------------------------------------
  Sum of atomic charges =     0.000000

 -----------------------------------------------------------------
                    Cartesian Multipole Moments
 -----------------------------------------------------------------
    Charge (ESU x 10^10)
                 0.0000
    Dipole Moment (Debye)
         X       0.0326      Y      -0.3294      Z      -0.0695
       Tot       0.3382
    Quadrupole Moments (Debye-Ang)
        XX     -62.7027     XY       1.0656     YY     -77.7639
        XZ       3.4903     YZ      -1.1983     ZZ     -67.3824
    Octopole Moments (Debye-Ang^2)
       XXX     133.6406    XXY     -16.5599    XYY      51.2373
       YYY     -31.8565    XXZ     123.2673    XYZ       3.7840
       YYZ     160.8786    XZZ      34.2017    YZZ       0.7457
       ZZZ     424.3919
    Hexadecapole Moments (Debye-Ang^3)
      XXXX   -1604.6076   XXXY      57.4467   XXYY    -352.4767
      XYYY      32.9961   YYYY    -174.7894   XXXZ    -605.1617
      XXYZ      37.5856   XYYZ    -250.5310   YYYZ     135.8686
      XXZZ    -663.0890   XYZZ     -27.0118   YYZZ    -561.7132
      XZZZ    -581.8299   YZZZ      62.5715   ZZZZ   -2841.7366
 -----------------------------------------------------------------
 Calculating analytic gradient of the SCF energy
 Gradient of SCF Energy
            1           2           3           4           5           6
    1   0.0000046  -0.0000077   0.0000005   0.0000218  -0.0000058  -0.0000578
    2   0.0000773  -0.0000239  -0.0000533   0.0002427  -0.0001206  -0.0005638
    3  -0.0000107   0.0000118   0.0000021   0.0000263   0.0000057  -0.0000028
            7           8           9          10          11          12
    1  -0.0000022   0.0001615  -0.0002216   0.0001621  -0.0000177  -0.0000646
    2   0.0001210   0.0003586   0.0002397  -0.0004997   0.0000888   0.0002118
    3   0.0000023  -0.0001208   0.0002354  -0.0002202   0.0000368   0.0000725
           13          14          15          16
    1   0.0000326   0.0000082   0.0000070  -0.0000209
    2  -0.0001228  -0.0000069  -0.0000318   0.0000829
    3  -0.0000622  -0.0000157  -0.0000158   0.0000553
 Max gradient component =       5.638E-04
 RMS gradient           =       1.563E-04
 Gradient time:  CPU 2.06 s  wall 2.08 s
 Geometry Optimization Parameters
   NAtoms,    NIC,     NZ,  NCons,   NDum,   NFix, NCnnct, MaxDiis
       16     111       0       1       0       0       0       0

 Cartesian Hessian Update
 Hessian Updated using BFGS Update


** CONSTRAINED OPTIMIZATION IN DELOCALIZED INTERNAL COORDINATES **
   Searching for a Minimum

   Optimization Cycle:   4

                       Coordinates (Angstroms)
     ATOM                X               Y               Z
      1  S         0.0053402333    0.0839425568    0.0058488454
      2  C         1.7386805464    0.0122100709    0.0029986871
      3  H         2.2799079076   -0.0096548709    0.9389076684
      4  C         2.2403128058   -0.0091122771   -1.2719326505
      5  H         3.3001485358   -0.0563603815   -1.4947245313
      6  C         1.2210936507    0.0154208436   -2.2680457581
      7  H         1.4175523377   -0.0214183135   -3.3336645918
      8  C        -0.0554738339    0.0600447644   -1.7473405887
      9  C        -1.3292069206    0.0795093688   -2.4478836034
     10  C        -2.5506350153   -0.4162582344   -2.0412340305
     11  H        -2.6928134030   -0.9164239776   -1.0897220319
     12  C        -3.5861854457   -0.2344951647   -3.0035066582
     13  H        -4.6069299628   -0.5708457172   -2.8619016497
     14  C        -3.1513841912    0.3949445915   -4.1402842900
     15  H        -3.7167982975    0.6476488829   -5.0268087420
     16  S        -1.4663383172    0.7955829681   -4.0440467749
   Point Group: c1    Number of degrees of freedom:    42


   Energy is  -1104.840782487

              Constraints and their Current Values
                                        Value     Constraint
   Dihedral:        6   8   9  10      150.000      150.000
 Hessian Updated using BFGS Update

 39 Hessian modes will be used to form the next step
  Hessian Eigenvalues:
     0.017498    0.045000    0.045000    0.045001    0.045002    0.045004
     0.045011    0.045062    0.046090    0.051419    0.159932    0.159948
     0.159992    0.159994    0.160000    0.160043    0.221285    0.221293
     0.237837    0.238089    0.249996    0.250029    0.294269    0.294659
     0.312516    0.312622    0.354747    0.354860    0.355125    0.355133
     0.358228    0.358330    0.378494    0.404885    0.404956    0.463573
     0.463679    0.497893    0.497937

 Minimum Search - Taking Simple RFO Step
 Searching for Lamda that Minimizes Along All modes
 Value Taken    Lamda =  -0.00000194
 Step Taken.  Stepsize is  0.008419

                             Maximum     Tolerance    Cnvgd?
         Gradient           0.000140      0.000300     YES
         Displacement       0.004776      0.001200      NO
         Energy change     -0.000009      0.000001      NO


 New Cartesian Coordinates Obtained by Inverse Iteration

 Displacement from previous Coordinates is:  0.007573
 ----------------------------------------------------------------
             Standard Nuclear Orientation (Angstroms)
    I     Atom           X                Y                Z
 ----------------------------------------------------------------
    1      S       0.0051894709     0.0830509826     0.0058847431
    2      C       1.7385918750     0.0125252312     0.0030205261
    3      H       2.2798294537    -0.0084665376     0.9389397827
    4      C       2.2402543363    -0.0090966643    -1.2718962118
    5      H       3.3001515303    -0.0550440024    -1.4946706473
    6      C       1.2210901266     0.0153703276    -2.2679986252
    7      H       1.4175422759    -0.0233110905    -3.3335598926
    8      C      -0.0555356368     0.0599896032    -1.7473196672
    9      C      -1.3291315139     0.0794656780    -2.4479076752
   10      C      -2.5506125108    -0.4163312253    -2.0413152526
   11      H      -2.6924227955    -0.9181565984    -1.0906129948
   12      C      -3.5861388463    -0.2344376947    -3.0035261061
   13      H      -4.6072104947    -0.5695673142    -2.8613877439
   14      C      -3.1513580217     0.3952410643    -4.1401804069
   15      H      -3.7169549594     0.6487299744    -5.0263620221
   16      S      -1.4660136597     0.7947733761    -4.0444485062
 ----------------------------------------------------------------
 Nuclear Repulsion Energy =   628.8967040936 hartrees
 There are       43 alpha and       43 beta electrons
 Applying Cartesian multipole field
    Component          Value
    ---------          -----
     (2,0,0)        1.00000E-11
     (0,2,0)        2.00000E-11
     (0,0,2)       -3.00000E-11
 Nucleus-field energy     =    -0.0000000498 hartrees
 Requested basis set is 6-31++G(d,p)
 There are 76 shells and 234 basis functions
 A cutoff of  1.0D-12 yielded   2529 shell pairs
 There are     24905 function pairs

 Q-Chem warning in module /project/projectdirs/jcesr/qchem/qc44/cnl_qc441/compile/cori/qc_src/libqints/qchem/aobasis.C, line 68:

 Using reconstructed effective core potential

 Smallest overlap matrix eigenvalue = 1.00E-06
 Guess MOs from SCF MO coefficient file
 Reading MOs from coefficient file
 Reading MOs from coefficient file
 A restricted hybrid HF-DFT SCF calculation will be
 performed using Pulay DIIS extrapolation
 Exchange:     0.2000 Hartree-Fock + 0.0800 Slater + 0.7200 B88
 Correlation:  0.1900 VWN1RPA + 0.8100 LYP
 Using SG-1 standard quadrature grid
 SCF converges when DIIS error is below 1.0E-08
 Geometry optimization detected.  Setting ReadMinima to 0
 Setting SaveMinima to 0
 ---------------------------------------
  Cycle       Energy         DIIS Error
 ---------------------------------------
    1   -1104.8406724537      1.99E-05
    2   -1104.8407837358      1.52E-06
    3   -1104.8407837449      1.74E-06
    4   -1104.8407837650      5.33E-07
    5   -1104.8407837666      2.89E-07
    6   -1104.8407837686      1.05E-07
    7   -1104.8407837677      3.48E-08
    8   -1104.8407837681      9.81E-09 Convergence criterion met
 ---------------------------------------
 SCF time:  CPU 4.50 s  wall 4.11 s
 SCF   energy in the final basis set = -1104.8407837681
 Total energy in the final basis set = -1104.8407837681
 
 --------------------------------------------------------------
 
                    Orbital Energies (a.u.)
 --------------------------------------------------------------
 
 Alpha MOs
 -- Occupied --
-88.920 -88.920 -10.239 -10.238 -10.225 -10.225 -10.205 -10.204
-10.203 -10.203  -7.979  -7.979  -5.944  -5.944  -5.940  -5.940
 -5.936  -5.936  -0.900  -0.878  -0.771  -0.749  -0.738  -0.706
 -0.604  -0.579  -0.553  -0.534  -0.526  -0.478  -0.420  -0.418
 -0.408  -0.405  -0.400  -0.378  -0.374  -0.357  -0.345  -0.278
 -0.263  -0.260  -0.215
 -- Virtual --
 -0.055  -0.006  -0.006  -0.002   0.007   0.009   0.017   0.022
  0.031   0.035   0.038   0.047   0.049   0.051   0.059   0.061
  0.072   0.082   0.088   0.096   0.099   0.102   0.107   0.108
  0.119   0.123   0.129   0.132   0.133   0.137   0.138   0.138
  0.148   0.156   0.162   0.164   0.165   0.173   0.178   0.182
  0.186   0.192   0.205   0.209   0.213   0.221   0.222   0.225
  0.241   0.253   0.257   0.263   0.266   0.277   0.283   0.291
  0.312   0.316   0.328   0.342   0.354   0.355   0.378   0.388
  0.431   0.454   0.465   0.518   0.518   0.540   0.547   0.566
  0.582   0.612   0.616   0.617   0.650   0.657   0.663   0.678
  0.679   0.699   0.720   0.727   0.729   0.741   0.753   0.773
  0.788   0.817   0.820   0.832   0.843   0.867   0.918   0.941
  0.949   0.957   0.958   0.961   0.968   0.990   0.997   1.014
  1.018   1.031   1.046   1.065   1.091   1.100   1.116   1.138
  1.146   1.176   1.196   1.224   1.245   1.267   1.318   1.341
  1.349   1.352   1.359   1.378   1.463   1.465   1.513   1.525
  1.570   1.684   1.693   1.737   1.801   1.865   1.868   1.891
  1.919   1.921   1.943   1.972   2.006   2.044   2.073   2.093
  2.113   2.159   2.176   2.183   2.234   2.243   2.257   2.333
  2.364   2.367   2.421   2.452   2.455   2.466   2.493   2.506
  2.528   2.534   2.576   2.585   2.604   2.662   2.692   2.719
  2.747   2.854   2.864   2.918   2.933   3.146   3.201   3.269
  3.273   3.401   3.427   3.721   3.743   3.973   3.977   4.245
  4.306   4.317   4.331   4.413   4.538   4.657   4.713
 --------------------------------------------------------------
 
          Ground-State Mulliken Net Atomic Charges

     Atom                 Charge (a.u.)
  ----------------------------------------
      1 S                    -0.059046
      2 C                    -0.038534
      3 H                     0.187926
      4 C                    -0.392190
      5 H                     0.115011
      6 C                     0.307079
      7 H                     0.128484
      8 C                    -0.247954
      9 C                    -0.249821
     10 C                     0.306179
     11 H                     0.128655
     12 C                    -0.392018
     13 H                     0.114914
     14 C                    -0.038964
     15 H                     0.187879
     16 S                    -0.057601
  ----------------------------------------
  Sum of atomic charges =     0.000000

 -----------------------------------------------------------------
                    Cartesian Multipole Moments
 -----------------------------------------------------------------
    Charge (ESU x 10^10)
                 0.0000
    Dipole Moment (Debye)
         X       0.0326      Y      -0.3296      Z      -0.0695
       Tot       0.3385
    Quadrupole Moments (Debye-Ang)
        XX     -62.7015     XY       1.0657     YY     -77.7624
        XZ       3.4894     YZ      -1.1968     ZZ     -67.3854
    Octopole Moments (Debye-Ang^2)
       XXX     133.6194    XXY     -16.4991    XYY      51.2298
       YYY     -31.8065    XXZ     123.2718    XYZ       3.8148
       YYZ     160.8831    XZZ      34.2184    YZZ       0.7660
       ZZZ     424.4267
    Hexadecapole Moments (Debye-Ang^3)
      XXXX   -1604.3546   XXXY      57.3193   XXYY    -352.4361
      XYYY      32.9552   YYYY    -174.6958   XXXZ    -605.1110
      XXYZ      37.4296   XYYZ    -250.5146   YYYZ     135.7837
      XXZZ    -663.1769   XYZZ     -27.1614   YYZZ    -561.7428
      XZZZ    -581.9408   YZZZ      62.4452   ZZZZ   -2842.0671
 -----------------------------------------------------------------
 Calculating analytic gradient of the SCF energy
 Gradient of SCF Energy
            1           2           3           4           5           6
    1  -0.0000107  -0.0000068   0.0000003   0.0000055  -0.0000035  -0.0000164
    2  -0.0000172   0.0000278  -0.0000351   0.0001269  -0.0000769  -0.0004556
    3   0.0000030   0.0000030  -0.0000002   0.0000047   0.0000034   0.0000043
            7           8           9          10          11          12
    1   0.0000013   0.0000857  -0.0001611   0.0001051  -0.0000024  -0.0000284
    2   0.0000328   0.0004326   0.0003255  -0.0004136   0.0000068   0.0001081
    3   0.0000018  -0.0001162   0.0002744  -0.0001899   0.0000010   0.0000451
           13          14          15          16
    1   0.0000222  -0.0000004   0.0000028   0.0000068
    2  -0.0000826   0.0000363  -0.0000172   0.0000015
    3  -0.0000416   0.0000112  -0.0000079   0.0000040
 Max gradient component =       4.556E-04
 RMS gradient           =       1.364E-04
 Gradient time:  CPU 2.06 s  wall 2.09 s
 Geometry Optimization Parameters
   NAtoms,    NIC,     NZ,  NCons,   NDum,   NFix, NCnnct, MaxDiis
       16     111       0       1       0       0       0       0

 Cartesian Hessian Update
 Hessian Updated using BFGS Update


** CONSTRAINED OPTIMIZATION IN DELOCALIZED INTERNAL COORDINATES **
   Searching for a Minimum

   Optimization Cycle:   5

                       Coordinates (Angstroms)
     ATOM                X               Y               Z
      1  S         0.0051894709    0.0830509826    0.0058847431
      2  C         1.7385918750    0.0125252312    0.0030205261
      3  H         2.2798294537   -0.0084665376    0.9389397827
      4  C         2.2402543363   -0.0090966643   -1.2718962118
      5  H         3.3001515303   -0.0550440024   -1.4946706473
      6  C         1.2210901266    0.0153703276   -2.2679986252
      7  H         1.4175422759   -0.0233110905   -3.3335598926
      8  C        -0.0555356368    0.0599896032   -1.7473196672
      9  C        -1.3291315139    0.0794656780   -2.4479076752
     10  C        -2.5506125108   -0.4163312253   -2.0413152526
     11  H        -2.6924227955   -0.9181565984   -1.0906129948
     12  C        -3.5861388463   -0.2344376947   -3.0035261061
     13  H        -4.6072104947   -0.5695673142   -2.8613877439
     14  C        -3.1513580217    0.3952410643   -4.1401804069
     15  H        -3.7169549594    0.6487299744   -5.0263620221
     16  S        -1.4660136597    0.7947733761   -4.0444485062
   Point Group: c1    Number of degrees of freedom:    42


   Energy is  -1104.840783768

              Constraints and their Current Values
                                        Value     Constraint
   Dihedral:        6   8   9  10      150.000      150.000
 Hessian Updated using BFGS Update

 38 Hessian modes will be used to form the next step
  Hessian Eigenvalues:
     0.015412    0.031649    0.045000    0.045001    0.045002    0.045004
     0.045012    0.045281    0.057672    0.159879    0.159947    0.159992
     0.159998    0.160000    0.160070    0.221280    0.221327    0.237832
     0.238323    0.250002    0.250157    0.294237    0.294662    0.312561
     0.312656    0.354747    0.354862    0.355126    0.355133    0.358227
     0.358333    0.379290    0.404888    0.405427    0.463575    0.463708
     0.497935    0.498018

 Minimum Search - Taking Simple RFO Step
 Searching for Lamda that Minimizes Along All modes
 Value Taken    Lamda =   0.00000000
 Step Taken.  Stepsize is  0.005246

                             Maximum     Tolerance    Cnvgd?
         Gradient           0.000070      0.000300     YES
         Displacement       0.003394      0.001200      NO
         Energy change     -0.000001      0.000001      NO


 New Cartesian Coordinates Obtained by Inverse Iteration

 Displacement from previous Coordinates is:  0.005547
 ----------------------------------------------------------------
             Standard Nuclear Orientation (Angstroms)
    I     Atom           X                Y                Z
 ----------------------------------------------------------------
    1      S       0.0051576198     0.0825281039     0.0058328230
    2      C       1.7385754803     0.0124560706     0.0030628240
    3      H       2.2797703378    -0.0074999068     0.9390299849
    4      C       2.2402789648    -0.0092709277    -1.2718341185
    5      H       3.3002489721    -0.0536773278    -1.4945690922
    6      C       1.2211542113     0.0150205942    -2.2679712410
    7      H       1.4176577666    -0.0241898130    -3.3335052102
    8      C      -0.0555232253     0.0596410637    -1.7473757304
    9      C      -1.3290709941     0.0791210969    -2.4480071165
   10      C      -2.5505990805    -0.4166679011    -2.0414965317
   11      H      -2.6923521530    -0.9189688705    -1.0910340445
   12      C      -3.5861333889    -0.2345755486    -3.0036494466
   13      H      -4.6075834855    -0.5682900118    -2.8609043169
   14      C      -3.1513327409     0.3951905972    -4.1402444168
   15      H      -3.7171011977     0.6496411958    -5.0260401083
   16      S      -1.4658764569     0.7942766950    -4.0446349582
 ----------------------------------------------------------------
 Nuclear Repulsion Energy =   628.8952456198 hartrees
 There are       43 alpha and       43 beta electrons
 Applying Cartesian multipole field
    Component          Value
    ---------          -----
     (2,0,0)        1.00000E-11
     (0,2,0)        2.00000E-11
     (0,0,2)       -3.00000E-11
 Nucleus-field energy     =    -0.0000000498 hartrees
 Requested basis set is 6-31++G(d,p)
 There are 76 shells and 234 basis functions
 A cutoff of  1.0D-12 yielded   2529 shell pairs
 There are     24905 function pairs

 Q-Chem warning in module /project/projectdirs/jcesr/qchem/qc44/cnl_qc441/compile/cori/qc_src/libqints/qchem/aobasis.C, line 68:

 Using reconstructed effective core potential

 Smallest overlap matrix eigenvalue = 1.00E-06
 Guess MOs from SCF MO coefficient file
 Reading MOs from coefficient file
 Reading MOs from coefficient file
 A restricted hybrid HF-DFT SCF calculation will be
 performed using Pulay DIIS extrapolation
 Exchange:     0.2000 Hartree-Fock + 0.0800 Slater + 0.7200 B88
 Correlation:  0.1900 VWN1RPA + 0.8100 LYP
 Using SG-1 standard quadrature grid
 SCF converges when DIIS error is below 1.0E-08
 Geometry optimization detected.  Setting ReadMinima to 0
 Setting SaveMinima to 0
 ---------------------------------------
  Cycle       Energy         DIIS Error
 ---------------------------------------
    1   -1104.8407529624      9.87E-06
    2   -1104.8407841263      9.97E-07
    3   -1104.8407841226      1.46E-06
    4   -1104.8407841382      4.02E-07
    5   -1104.8407841377      1.87E-07
    6   -1104.8407841399      7.06E-08
    7   -1104.8407841408      1.44E-08
    8   -1104.8407841419      4.80E-09 Convergence criterion met
 ---------------------------------------
 SCF time:  CPU 4.30 s  wall 4.37 s
 SCF   energy in the final basis set = -1104.8407841419
 Total energy in the final basis set = -1104.8407841419
 
 --------------------------------------------------------------
 
                    Orbital Energies (a.u.)
 --------------------------------------------------------------
 
 Alpha MOs
 -- Occupied --
-88.920 -88.920 -10.239 -10.238 -10.225 -10.225 -10.205 -10.204
-10.203 -10.203  -7.979  -7.979  -5.944  -5.944  -5.940  -5.940
 -5.936  -5.936  -0.900  -0.878  -0.771  -0.749  -0.738  -0.706
 -0.604  -0.579  -0.553  -0.534  -0.526  -0.478  -0.420  -0.418
 -0.408  -0.405  -0.400  -0.378  -0.374  -0.357  -0.345  -0.278
 -0.263  -0.260  -0.215
 -- Virtual --
 -0.055  -0.006  -0.006  -0.002   0.007   0.009   0.017   0.022
  0.031   0.035   0.038   0.047   0.049   0.051   0.059   0.061
  0.072   0.082   0.088   0.096   0.099   0.102   0.107   0.108
  0.119   0.123   0.129   0.132   0.133   0.137   0.138   0.138
  0.148   0.156   0.162   0.164   0.165   0.173   0.178   0.182
  0.186   0.192   0.205   0.209   0.213   0.221   0.222   0.225
  0.241   0.253   0.256   0.263   0.266   0.277   0.283   0.291
  0.312   0.316   0.328   0.342   0.354   0.355   0.378   0.388
  0.431   0.454   0.465   0.518   0.518   0.540   0.547   0.567
  0.582   0.612   0.616   0.617   0.650   0.657   0.663   0.678
  0.679   0.699   0.720   0.727   0.729   0.741   0.753   0.773
  0.788   0.817   0.820   0.832   0.843   0.867   0.918   0.941
  0.949   0.957   0.958   0.961   0.968   0.990   0.997   1.014
  1.018   1.031   1.046   1.065   1.091   1.101   1.116   1.138
  1.146   1.176   1.196   1.224   1.245   1.267   1.318   1.342
  1.349   1.352   1.359   1.378   1.463   1.466   1.513   1.525
  1.570   1.683   1.693   1.737   1.801   1.865   1.868   1.891
  1.919   1.921   1.943   1.972   2.006   2.044   2.073   2.093
  2.113   2.159   2.176   2.183   2.234   2.243   2.257   2.333
  2.364   2.367   2.421   2.452   2.455   2.466   2.493   2.506
  2.528   2.534   2.576   2.585   2.604   2.662   2.692   2.719
  2.747   2.854   2.864   2.918   2.933   3.146   3.201   3.269
  3.273   3.401   3.427   3.721   3.743   3.973   3.977   4.245
  4.306   4.317   4.331   4.413   4.538   4.657   4.713
 --------------------------------------------------------------
 
          Ground-State Mulliken Net Atomic Charges

     Atom                 Charge (a.u.)
  ----------------------------------------
      1 S                    -0.058978
      2 C                    -0.038600
      3 H                     0.187923
      4 C                    -0.392010
      5 H                     0.115010
      6 C                     0.306696
      7 H                     0.128477
      8 C                    -0.247804
      9 C                    -0.249536
     10 C                     0.305744
     11 H                     0.128647
     12 C                    -0.391798
     13 H                     0.114913
     14 C                    -0.039035
     15 H                     0.187875
     16 S                    -0.057525
  ----------------------------------------
  Sum of atomic charges =     0.000000

 -----------------------------------------------------------------
                    Cartesian Multipole Moments
 -----------------------------------------------------------------
    Charge (ESU x 10^10)
                 0.0000
    Dipole Moment (Debye)
         X       0.0323      Y      -0.3266      Z      -0.0688
       Tot       0.3353
    Quadrupole Moments (Debye-Ang)
        XX     -62.6969     XY       1.0641     YY     -77.7622
        XZ       3.4885     YZ      -1.2027     ZZ     -67.3912
    Octopole Moments (Debye-Ang^2)
       XXX     133.5852    XXY     -16.4182    XYY      51.2264
       YYY     -31.7379    XXZ     123.2755    XYZ       3.8473
       YYZ     160.8875    XZZ      34.2349    YZZ       0.8153
       ZZZ     424.4805
    Hexadecapole Moments (Debye-Ang^3)
      XXXX   -1604.1282   XXXY      57.1677   XXYY    -352.4307
      XYYY      32.9008   YYYY    -174.6367   XXXZ    -605.0809
      XXYZ      37.2227   XYYZ    -250.5123   YYYZ     135.6453
      XXZZ    -663.2600   XYZZ     -27.3162   YYZZ    -561.7562
      XZZZ    -582.0779   YZZZ      62.2017   ZZZZ   -2842.4732
 -----------------------------------------------------------------
 Calculating analytic gradient of the SCF energy
 Gradient of SCF Energy
            1           2           3           4           5           6
    1  -0.0000007   0.0000010  -0.0000009  -0.0000018  -0.0000015  -0.0000053
    2  -0.0000353   0.0000202  -0.0000146   0.0000364  -0.0000215  -0.0004253
    3  -0.0000013   0.0000058   0.0000022   0.0000012   0.0000047   0.0000114
            7           8           9          10          11          12
    1   0.0000016   0.0000518  -0.0001367   0.0000882   0.0000024  -0.0000047
    2   0.0000062   0.0004681   0.0003618  -0.0003879  -0.0000175   0.0000275
    3   0.0000024  -0.0001199   0.0002975  -0.0001876  -0.0000102   0.0000123
           13          14          15          16
    1   0.0000089  -0.0000054   0.0000001   0.0000030
    2  -0.0000318   0.0000280   0.0000020  -0.0000163
    3  -0.0000192   0.0000072  -0.0000012  -0.0000052
 Max gradient component =       4.681E-04
 RMS gradient           =       1.336E-04
 Gradient time:  CPU 2.08 s  wall 2.13 s
 Geometry Optimization Parameters
   NAtoms,    NIC,     NZ,  NCons,   NDum,   NFix, NCnnct, MaxDiis
       16     111       0       1       0       0       0       0

 Cartesian Hessian Update
 Hessian Updated using BFGS Update


** CONSTRAINED OPTIMIZATION IN DELOCALIZED INTERNAL COORDINATES **
   Searching for a Minimum

   Optimization Cycle:   6

                       Coordinates (Angstroms)
     ATOM                X               Y               Z
      1  S         0.0051576198    0.0825281039    0.0058328230
      2  C         1.7385754803    0.0124560706    0.0030628240
      3  H         2.2797703378   -0.0074999068    0.9390299849
      4  C         2.2402789648   -0.0092709277   -1.2718341185
      5  H         3.3002489721   -0.0536773278   -1.4945690922
      6  C         1.2211542113    0.0150205942   -2.2679712410
      7  H         1.4176577666   -0.0241898130   -3.3335052102
      8  C        -0.0555232253    0.0596410637   -1.7473757304
      9  C        -1.3290709941    0.0791210969   -2.4480071165
     10  C        -2.5505990805   -0.4166679011   -2.0414965317
     11  H        -2.6923521530   -0.9189688705   -1.0910340445
     12  C        -3.5861333889   -0.2345755486   -3.0036494466
     13  H        -4.6075834855   -0.5682900118   -2.8609043169
     14  C        -3.1513327409    0.3951905972   -4.1402444168
     15  H        -3.7171011977    0.6496411958   -5.0260401083
     16  S        -1.4658764569    0.7942766950   -4.0446349582
   Point Group: c1    Number of degrees of freedom:    42


   Energy is  -1104.840784142

              Constraints and their Current Values
                                        Value     Constraint
   Dihedral:        6   8   9  10      150.000      150.000
 Hessian Updated using BFGS Update

 39 Hessian modes will be used to form the next step
  Hessian Eigenvalues:
     0.014761    0.025529    0.045000    0.045000    0.045002    0.045004
     0.045010    0.045012    0.045450    0.057492    0.159841    0.159946
     0.159991    0.159999    0.160003    0.160027    0.221281    0.221328
     0.237843    0.239540    0.250002    0.250156    0.294275    0.294669
     0.312555    0.312652    0.354748    0.354862    0.355126    0.355133
     0.358228    0.358335    0.379425    0.404891    0.405422    0.463581
     0.464175    0.497934    0.498065

 Minimum Search - Taking Simple RFO Step
 Searching for Lamda that Minimizes Along All modes
 Value Taken    Lamda =   0.00000000
 Step Taken.  Stepsize is  0.001889

                             Maximum     Tolerance    Cnvgd?
         Gradient           0.000037      0.000300     YES
         Displacement       0.001030      0.001200     YES
         Energy change     -0.000000      0.000001     YES

 Final energy is   -1104.84078414193     


 ******************************
 **  OPTIMIZATION CONVERGED  **
 ******************************

                       Coordinates (Angstroms)
     ATOM                X               Y               Z
      1  S         0.0051576198    0.0825281039    0.0058328230
      2  C         1.7385754803    0.0124560706    0.0030628240
      3  H         2.2797703378   -0.0074999068    0.9390299849
      4  C         2.2402789648   -0.0092709277   -1.2718341185
      5  H         3.3002489721   -0.0536773278   -1.4945690922
      6  C         1.2211542113    0.0150205942   -2.2679712410
      7  H         1.4176577666   -0.0241898130   -3.3335052102
      8  C        -0.0555232253    0.0596410637   -1.7473757304
      9  C        -1.3290709941    0.0791210969   -2.4480071165
     10  C        -2.5505990805   -0.4166679011   -2.0414965317
     11  H        -2.6923521530   -0.9189688705   -1.0910340445
     12  C        -3.5861333889   -0.2345755486   -3.0036494466
     13  H        -4.6075834855   -0.5682900118   -2.8609043169
     14  C        -3.1513327409    0.3951905972   -4.1402444168
     15  H        -3.7171011977    0.6496411958   -5.0260401083
     16  S        -1.4658764569    0.7942766950   -4.0446349582

Z-matrix Print:
$molecule
0 1
S 
C  1 1.734836
H  2 1.081353 1 119.962535
C  2 1.370234 1 111.590552 3 -179.947560 0
H  4 1.084029 2 123.356125 1 -179.917357 0
C  4 1.425305 2 112.842255 1 -0.687485 0
H  6 1.084211 4 123.824215 2 -178.246886 0
C  6 1.379462 4 113.486995 2 0.199346 0
C  8 1.453681 6 129.002157 4 -179.227324 0
C  9 1.379561 8 128.968290 6 150.000000 0
H  10 1.084333 9 122.718935 8 -0.768139 0
C  10 1.425211 9 113.484835 8 -179.190719 0
H  12 1.084021 10 123.808173 9 179.435292 0
C  12 1.370221 10 112.839513 9 0.158741 0
H  14 1.081422 12 128.431106 10 179.393292 0
S  14 1.734697 12 111.612893 10 -0.674222 0
$end

 
 --------------------------------------------------------------
 
                    Orbital Energies (a.u.)
 --------------------------------------------------------------
 
 Alpha MOs
 -- Occupied --
-88.920 -88.920 -10.239 -10.238 -10.225 -10.225 -10.205 -10.204
-10.203 -10.203  -7.979  -7.979  -5.944  -5.944  -5.940  -5.940
 -5.936  -5.936  -0.900  -0.878  -0.771  -0.749  -0.738  -0.706
 -0.604  -0.579  -0.553  -0.534  -0.526  -0.478  -0.420  -0.418
 -0.408  -0.405  -0.400  -0.378  -0.374  -0.357  -0.345  -0.278
 -0.263  -0.260  -0.215
 -- Virtual --
 -0.055  -0.006  -0.006  -0.002   0.007   0.009   0.017   0.022
  0.031   0.035   0.038   0.047   0.049   0.051   0.059   0.061
  0.072   0.082   0.088   0.096   0.099   0.102   0.107   0.108
  0.119   0.123   0.129   0.132   0.133   0.137   0.138   0.138
  0.148   0.156   0.162   0.164   0.165   0.173   0.178   0.182
  0.186   0.192   0.205   0.209   0.213   0.221   0.222   0.225
  0.241   0.253   0.256   0.263   0.266   0.277   0.283   0.291
  0.312   0.316   0.328   0.342   0.354   0.355   0.378   0.388
  0.431   0.454   0.465   0.518   0.518   0.540   0.547   0.567
  0.582   0.612   0.616   0.617   0.650   0.657   0.663   0.678
  0.679   0.699   0.720   0.727   0.729   0.741   0.753   0.773
  0.788   0.817   0.820   0.832   0.843   0.867   0.918   0.941
  0.949   0.957   0.958   0.961   0.968   0.990   0.997   1.014
  1.018   1.031   1.046   1.065   1.091   1.101   1.116   1.138
  1.146   1.176   1.196   1.224   1.245   1.267   1.318   1.342
  1.349   1.352   1.359   1.378   1.463   1.466   1.513   1.525
  1.570   1.683   1.693   1.737   1.801   1.865   1.868   1.891
  1.919   1.921   1.943   1.972   2.006   2.044   2.073   2.093
  2.113   2.159   2.176   2.183   2.234   2.243   2.257   2.333
  2.364   2.367   2.421   2.452   2.455   2.466   2.493   2.506
  2.528   2.534   2.576   2.585   2.604   2.662   2.692   2.719
  2.747   2.854   2.864   2.918   2.933   3.146   3.201   3.269
  3.273   3.401   3.427   3.721   3.743   3.973   3.977   4.245
  4.306   4.317   4.331   4.413   4.538   4.657   4.713
 --------------------------------------------------------------
 
          Ground-State Mulliken Net Atomic Charges

     Atom                 Charge (a.u.)
  ----------------------------------------
      1 S                    -0.058978
      2 C                    -0.038600
      3 H                     0.187923
      4 C                    -0.392010
      5 H                     0.115010
      6 C                     0.306696
      7 H                     0.128477
      8 C                    -0.247804
      9 C                    -0.249536
     10 C                     0.305744
     11 H                     0.128647
     12 C                    -0.391798
     13 H                     0.114913
     14 C                    -0.039035
     15 H                     0.187875
     16 S                    -0.057525
  ----------------------------------------
  Sum of atomic charges =     0.000000

 -----------------------------------------------------------------
                    Cartesian Multipole Moments
 -----------------------------------------------------------------
    Charge (ESU x 10^10)
                 0.0000
    Dipole Moment (Debye)
         X       0.0323      Y      -0.3266      Z      -0.0688
       Tot       0.3353
    Quadrupole Moments (Debye-Ang)
        XX     -62.6969     XY       1.0641     YY     -77.7622
        XZ       3.4885     YZ      -1.2027     ZZ     -67.3912
    Octopole Moments (Debye-Ang^2)
       XXX     133.5852    XXY     -16.4182    XYY      51.2264
       YYY     -31.7379    XXZ     123.2755    XYZ       3.8473
       YYZ     160.8875    XZZ      34.2349    YZZ       0.8153
       ZZZ     424.4805
    Hexadecapole Moments (Debye-Ang^3)
      XXXX   -1604.1282   XXXY      57.1677   XXYY    -352.4307
      XYYY      32.9008   YYYY    -174.6367   XXXZ    -605.0809
      XXYZ      37.2227   XYYZ    -250.5123   YYYZ     135.6453
      XXZZ    -663.2600   XYZZ     -27.3162   YYZZ    -561.7562
      XZZZ    -582.0779   YZZZ      62.2017   ZZZZ   -2842.4732
 -----------------------------------------------------------------
Archival summary:
1\1\nid00463\OPT\ProcedureUnspecified\BasisUnspecified\286\bwood\WedMay3102:25:332017WedMay3102:25:332017\0\\#,OPT,ProcedureUnspecified,BasisUnspecified,\\0,1\S\C,1,1.73484\H,2,1.08135,1,119.963\C,2,1.37023,1,111.591,3,-179.948,0\H,4,1.08403,2,123.356,1,-179.917,0\C,4,1.42531,2,112.842,1,-0.687485,0\H,6,1.08421,4,123.824,2,-178.247,0\C,6,1.37946,4,113.487,2,0.199346,0\C,8,1.45368,6,129.002,4,-179.227,0\C,9,1.37956,8,128.968,6,150,0\H,10,1.08433,9,122.719,8,-0.768139,0\C,10,1.42521,9,113.485,8,-179.191,0\H,12,1.08402,10,123.808,9,179.435,0\C,12,1.37022,10,112.84,9,0.158741,0\H,14,1.08142,12,128.431,10,179.393,0\S,14,1.7347,12,111.613,10,-0.674222,0\\\@

 Total job time:  48.39s(wall), 47.00s(cpu) 
 Wed May 31 02:25:33 2017

        *************************************************************
        *                                                           *
        *  Thank you very much for using Q-Chem.  Have a nice day.  *
        *                                                           *
        *************************************************************


0 sent ACK to 0 
now end server 0 ... 
