srun -N 1 --ntasks-per-node 16 --cpus-per-task 4 --cpu_bind=cores --nodelist nid00484 /global/project/projectdirs/jcesr/qchem/qc44/cnl_qc441/dist/exe/qcprog.cori.haswell.exe .pt_n2_neutral_90.0.in.47828.qcin.1 /global/cscratch1/sd/bwood/qchem/nx/qchem47828/
Process 3 of 16 is on nid00484 - thread support 0
Process 4 of 16 is on nid00484 - thread support 0
Process 5 of 16 is on nid00484 - thread support 0
Process 6 of 16 is on nid00484 - thread support 0
Process 0 of 16 is on nid00484 - thread support 0
Process 1 of 16 is on nid00484 - thread support 0
Process 2 of 16 is on nid00484 - thread support 0
Process 15 of 16 is on nid00484 - thread support 0
initial socket setup ...start
initial socket setup ...done 
now start server 0 ... 
nid00484 10.128.1
Q-Chem Developer Version! Running on 10.128.1.*
                  Welcome to Q-Chem
     A Quantum Leap Into The Future Of Chemistry


 Q-Chem 4.4, Q-Chem, Inc., Pleasanton, CA (2016)

 Y. Shao,  Z. Gan,  E. Epifanovsky,  A. T. B. Gilbert,  M. Wormit,  
 J. Kussmann,  A. W. Lange,  A. Behn,  J. Deng,  X. Feng,  D. Ghosh,  
 M. Goldey,  P. R. Horn,  L. D. Jacobson,  I. Kaliman,  F. Rob,  
 R. Z. Khaliullin,  T. Kus,  A. Landau,  J. Liu,  E. I. Proynov,  Y. M. Rhee,  
 R. M. Richard,  M. A. Rohrdanz,  R. P. Steele,  E. J. Sundstrom,  
 H. L. Woodcock III,  P. M. Zimmerman,  D. Zuev,  B. Albrecht,  E. Alguire,  
 B. Austin,  S. A. Baeppler,  G. J. O. Beran,  Y. A. Bernard,  
 E. J. Berquist,  K. Brandhorst,  K. B. Bravaya,  S. T. Brown,  D. Casanova,  
 C.-M. Chang,  Y. Chen,  S. H. Chien,  K. D. Closser,  M. P. Coons,  
 D. L. Crittenden,  S. Dasgupta,  M. Diedenhofen,  R. A. DiStasio Jr.,  
 H. Do,  A. D. Dutoi,  R. G. Edgar,  P.-T. Fang,  S. Fatehi,  Q. Feng,  
 L. Fusti-Molnar,  A. Ghysels,  A. Golubeva-Zadorozhnaya,  J. Gomes,  
 A. Gunina,  M. W. D. Hanson-Heine,  P. H. P. Harbach,  A. W. Hauser,  
 J. E. Herr,  E. G. Hohenstein,  Z. C. Holden,  K. Hui,  T.-C. Jagau,  H. Ji,  
 B. Kaduk,  K. Khistyaev,  Jaehoon Kim,  Jihan Kim,  R. A. King,  
 P. Klunzinger,  K. Koh,  D. Kosenkov,  T. Kowalczyk,  C. M. Krauter,  
 A. Kunitsa,  K. U. Lao,  A. Laurent,  K. V. Lawler,  J. Lee,  D. Lefrancois,  
 S. Lehtola,  S. V. Levchenko,  C. Y. Lin,  Y.-S. Lin,  F. Liu,  E. Livshits,  
 R. C. Lochan,  A. Luenser,  P. Manohar,  S. F. Manzer,  S.-P. Mao,  Y. Mao,  
 N. Mardirossian,  A. V. Marenich,  L. A. Martinez-Martinez,  S. A. Maurer,  
 N. J. Mayhall,  J.-M. Mewes,  A. F. Morrison,  K. Nanda,  T. S. Nguyen-Beck,  
 C. M. Oana,  R. Olivares-Amaya,  D. P. O'Neill,  J. A. Parkhill,  
 T. M. Perrine,  R. Peverati,  P. A. Pieniazek,  F. Plasser,  A. Prociuk,  
 D. R. Rehn,  E. Rosta,  N. J. Russ,  N. Sergueev,  S. M. Sharada,  
 S. Sharma,  D. W. Small,  A. Sodt,  T. Stauch,  T. Stein,  D. Stuck,  
 Y.-C. Su,  A. J. W. Thom,  T. Tsuchimochi,  L. Vogt,  O. Vydrov,  T. Wang,  
 M. A. Watson,  J. Wenzel,  A. White,  C. F. Williams,  V. Vanovschi,  
 K. Yao,  S. Yeganeh,  S. R. Yost,  Z.-Q. You,  I. Y. Zhang,  X. Zhang,  
 Y. Zhao,  B. R. Brooks,  G. K. L. Chan,  D. M. Chipman,  C. J. Cramer,  
 W. A. Goddard III,  M. S. Gordon,  W. J. Hehre,  A. Klamt,  
 H. F. Schaefer III,  M. W. Schmidt,  C. D. Sherrill,  D. G. Truhlar,  
 A. Warshel,  X. Xu,  A. Aspuru-Guzik,  R. Baer,  A. T. Bell,  N. A. Besley,  
 J.-D. Chai,  A. Dreuw,  B. D. Dunietz,  T. R. Furlani,  S. R. Gwaltney,  
 C.-P. Hsu,  Y. Jung,  J. Kong,  D. S. Lambrecht,  W. Liang,  C. Ochsenfeld,  
 V. A. Rassolov,  L. V. Slipchenko,  J. E. Subotnik,  T. Van Voorhis,  
 J. M. Herbert,  A. I. Krylov,  P. M. W. Gill,  M. Head-Gordon

 Contributors to earlier versions of Q-Chem not listed above: 
 R. D. Adamson,  J. Baker,  E. F. C. Byrd,  A. K. Chakraborty,  C.-L. Cheng,  
 H. Dachsel,  R. J. Doerksen,  G. Hawkins,  A. Heyden,  S. Hirata,  
 G. Kedziora,  F. J. Keil,  C. Kelley,  P. P. Korambath,  W. Kurlancheek,  
 A. M. Lee,  M. S. Lee,  D. Liotard,  I. Lotan,  P. E. Maslen,  N. Nair,  
 D. Neuhauser,  R. Olson,  B. Peters,  J. Ritchie,  N. E. Schultz,  
 N. Shenvi,  A. C. Simmonett,  K. S. Thanthiriwatte,  Q. Wu,  W. Zhang

 Please cite Q-Chem as follows:
 Y. Shao et al., Mol. Phys. 113, 184-215 (2015)
 DOI: 10.1080/00268976.2014.952696

 Q-Chem 4.4.2 for Intel X86 EM64T Linux

 Parts of Q-Chem use Armadillo 5.200.1 (Boston Tea Smuggler).
 http://arma.sourceforge.net/

 Q-Chem begins on Wed May 31 02:24:40 2017  

Host: nid00447
0

     Scratch files written to /global/cscratch1/sd/bwood/qchem/nx/qchem47828.0//
 Parallel job on  16  processors

Checking the input file for inconsistencies... 	...done.

--------------------------------------------------------------
User input:
--------------------------------------------------------------
$molecule
 0  1
 S           0.00238887        0.06077275        0.00183269
 C           1.73707619        0.03315849        0.00323229
 H           2.27612737        0.05289032        0.94042557
 C           2.24169204       -0.01546201       -1.26965798
 H           3.30285780       -0.04005365       -1.48972496
 C           1.22479222       -0.01612968       -2.26811464
 H           1.42674790       -0.02650987       -3.33334501
 C          -0.05393771        0.02880388       -1.75170966
 C          -1.32450815        0.04889988       -2.45636342
 C          -2.11260676       -1.01100829       -2.85578010
 H          -1.85180807       -2.04436573       -2.65584381
 C          -3.30801312       -0.61184533       -3.52102991
 H          -4.05008809       -1.30705744       -3.89666203
 C          -3.42923403        0.74884447       -3.62573399
 H          -4.23167959        1.32037512       -4.07173299
 S          -2.06953965        1.56739994       -2.92521033
$end


$rem
         jobtype = opt
        exchange = b3lyp
           basis = 6-31++g**
  max_scf_cycles = 150
      mem_static = 775
       mem_total = 7750
      sym_ignore = true
        symmetry = false
          thresh = 12
$end


$opt
CONSTRAINT
tors 6 8 9 10 90.0
ENDCONSTRAINT
$end

--------------------------------------------------------------
 ----------------------------------------------------------------
             Standard Nuclear Orientation (Angstroms)
    I     Atom           X                Y                Z
 ----------------------------------------------------------------
    1      S       0.0023888700     0.0607727500     0.0018326900
    2      C       1.7370761900     0.0331584900     0.0032322900
    3      H       2.2761273700     0.0528903200     0.9404255700
    4      C       2.2416920400    -0.0154620100    -1.2696579800
    5      H       3.3028578000    -0.0400536500    -1.4897249600
    6      C       1.2247922200    -0.0161296800    -2.2681146400
    7      H       1.4267479000    -0.0265098700    -3.3333450100
    8      C      -0.0539377100     0.0288038800    -1.7517096600
    9      C      -1.3245081500     0.0488998800    -2.4563634200
   10      C      -2.1126067600    -1.0110082900    -2.8557801000
   11      H      -1.8518080700    -2.0443657300    -2.6558438100
   12      C      -3.3080131200    -0.6118453300    -3.5210299100
   13      H      -4.0500880900    -1.3070574400    -3.8966620300
   14      C      -3.4292340300     0.7488444700    -3.6257339900
   15      H      -4.2316795900     1.3203751200    -4.0717329900
   16      S      -2.0695396500     1.5673999400    -2.9252103300
 ----------------------------------------------------------------
 Nuclear Repulsion Energy =   628.6861488703 hartrees
 There are       43 alpha and       43 beta electrons
 Requested basis set is 6-31++G(d,p)
 There are 76 shells and 234 basis functions

 Total QAlloc Memory Limit   7750 MB
 Mega-Array Size       758 MB
 MEM_STATIC part       775 MB
 A cutoff of  1.0D-12 yielded   2528 shell pairs
 There are     24880 function pairs

 Q-Chem warning in module /project/projectdirs/jcesr/qchem/qc44/cnl_qc441/compile/cori/qc_src/libqints/qchem/aobasis.C, line 68:

 Using reconstructed effective core potential

 
 -------------------------------------------------------
 OpenMP Integral Computing Module                       
 Release: version 1.0, May 2013, Q-Chem Inc. Pittsburgh 
 -------------------------------------------------------
 Integral Job Info:
 Integral job number is                      11
 Integral operator is                         1
 short-range coefficients                     0
 long-range coefficients              100000000
 Omega coefficients                           0
 if combine SR and LR in K                    0
 Integral screening is                        0
 Integral computing path is                   2
 max size of driver memory is            800000
 size of driver memory is                593474
 size of scratch memory is             15166112
 max col of scratch BK array               1296
 max len of scratch array in speh3          155
 max len of scratch index in speh4           18
 max int batch size is                      520
 min int batch size is                       52
 fixed nKL is                                52
 max L of basis functions is                  2
 order of int derivative is                   0
 number of shells is                         76
 number of basis is                         234
 number of cartesian basis is               234
 number of contracted shell pairs          2528
 number of primitive shell pairs           8214
 maxK2 (contraction) of shell pair           36
 max number of K2 of shell pair               1
 max number of CS2 of shell pair            266
 max number of PS2 of shell pair           1512
 mem total for path MDJ                   51992
 -------------------------------------------------------
 Smallest overlap matrix eigenvalue = 1.12E-06

 Scale SEOQF with 1.000000e-01/1.000000e-01/1.000000e-01

 Standard Electronic Orientation quadrupole field applied
 Nucleus-field energy     =    -0.0000000353 hartrees
 Guess from superposition of atomic densities
 Warning:  Energy on first SCF cycle will be non-variational
 A restricted hybrid HF-DFT SCF calculation will be
 performed using Pulay DIIS extrapolation
 Exchange:     0.2000 Hartree-Fock + 0.0800 Slater + 0.7200 B88
 Correlation:  0.1900 VWN1RPA + 0.8100 LYP
 Using SG-1 standard quadrature grid
 SCF converges when DIIS error is below 1.0E-08
 ---------------------------------------
  Cycle       Energy         DIIS Error
 ---------------------------------------
    1   -1107.1753288931      4.40E-02
    2   -1104.6703771488      4.63E-03
    3   -1104.4317641848      7.04E-03
    4   -1104.8287883632      9.71E-04
    5   -1104.8353903840      4.61E-04
    6   -1104.8368220748      1.30E-04
    7   -1104.8369293293      5.30E-05
    8   -1104.8369460376      2.01E-05
    9   -1104.8369492046      2.16E-06
   10   -1104.8369492392      8.13E-07
   11   -1104.8369492425      4.45E-07
   12   -1104.8369492441      3.28E-08
   13   -1104.8369492441      2.30E-08
   14   -1104.8369492446      6.09E-09 Convergence criterion met
 ---------------------------------------
 SCF time:  CPU 7.56 s  wall 7.15 s
 SCF   energy in the final basis set = -1104.8369492446
 Total energy in the final basis set = -1104.8369492446
 
 --------------------------------------------------------------
 
                    Orbital Energies (a.u.)
 --------------------------------------------------------------
 
 Alpha MOs
 -- Occupied --
-88.919 -88.919 -10.235 -10.235 -10.224 -10.224 -10.204 -10.204
-10.203 -10.203  -7.978  -7.978  -5.942  -5.942  -5.938  -5.938
 -5.935  -5.935  -0.898  -0.877  -0.769  -0.741  -0.741  -0.704
 -0.602  -0.567  -0.565  -0.534  -0.523  -0.477  -0.417  -0.414
 -0.414  -0.406  -0.394  -0.374  -0.374  -0.351  -0.349  -0.264
 -0.257  -0.243  -0.242
 -- Virtual --
 -0.034  -0.034  -0.005  -0.003   0.006   0.012   0.021   0.022
  0.026   0.034   0.035   0.041   0.045   0.048   0.065   0.071
  0.071   0.071   0.080   0.102   0.103   0.107   0.110   0.112
  0.114   0.119   0.125   0.127   0.132   0.132   0.138   0.142
  0.147   0.150   0.157   0.162   0.169   0.173   0.179   0.181
  0.186   0.190   0.191   0.207   0.214   0.218   0.220   0.227
  0.243   0.248   0.257   0.270   0.271   0.275   0.292   0.299
  0.307   0.318   0.329   0.331   0.357   0.361   0.373   0.392
  0.430   0.471   0.483   0.486   0.519   0.534   0.549   0.578
  0.580   0.586   0.616   0.633   0.646   0.666   0.673   0.677
  0.690   0.697   0.725   0.727   0.740   0.754   0.768   0.775
  0.793   0.801   0.814   0.828   0.842   0.894   0.910   0.939
  0.943   0.957   0.959   0.967   0.971   0.986   0.994   1.015
  1.020   1.024   1.035   1.059   1.078   1.093   1.102   1.111
  1.131   1.184   1.219   1.222   1.244   1.285   1.319   1.347
  1.353   1.359   1.366   1.391   1.465   1.468   1.477   1.528
  1.562   1.691   1.695   1.786   1.828   1.843   1.879   1.884
  1.917   1.925   1.962   1.973   2.010   2.020   2.061   2.107
  2.123   2.161   2.185   2.197   2.207   2.253   2.268   2.347
  2.367   2.370   2.427   2.438   2.463   2.483   2.495   2.509
  2.516   2.521   2.581   2.588   2.610   2.646   2.698   2.704
  2.759   2.832   2.862   2.878   2.937   3.168   3.172   3.271
  3.272   3.402   3.428   3.722   3.741   3.969   3.970   4.286
  4.307   4.319   4.330   4.439   4.535   4.662   4.712
 --------------------------------------------------------------
 
          Ground-State Mulliken Net Atomic Charges

     Atom                 Charge (a.u.)
  ----------------------------------------
      1 S                     0.055218
      2 C                    -0.037775
      3 H                     0.187435
      4 C                    -0.391240
      5 H                     0.118573
      6 C                     0.340522
      7 H                     0.132111
      8 C                    -0.403767
      9 C                    -0.405734
     10 C                     0.339585
     11 H                     0.131727
     12 C                    -0.390751
     13 H                     0.118647
     14 C                    -0.037696
     15 H                     0.187385
     16 S                     0.055759
  ----------------------------------------
  Sum of atomic charges =     0.000000

 -----------------------------------------------------------------
                    Cartesian Multipole Moments
 -----------------------------------------------------------------
    Charge (ESU x 10^10)
                 0.0000
    Dipole Moment (Debye)
         X       0.2255      Y      -0.5112      Z      -0.4235
       Tot       0.7011
    Quadrupole Moments (Debye-Ang)
        XX     -63.9694     XY       0.4715     YY     -73.5124
        XZ       4.9635     YZ       1.0618     ZZ     -68.9960
    Octopole Moments (Debye-Ang^2)
       XXX     153.8692    XXY     -13.2114    XYY      43.0439
       YYY     -50.2300    XXZ     107.7466    XYZ       1.4625
       YYZ     137.1508    XZZ      40.6723    YZZ     -16.0569
       ZZZ     425.8443
    Hexadecapole Moments (Debye-Ang^3)
      XXXX   -1717.4969   XXXY      75.1580   XXYY    -354.3037
      XYYY      98.1497   YYYY    -370.7611   XXXZ    -601.1116
      XXYZ      27.8163   XYYZ    -208.3702   YYYZ     138.9549
      XXZZ    -581.5892   XYZZ      18.0660   YYZZ    -469.9372
      XZZZ    -686.5822   YZZZ     125.6680   ZZZZ   -2597.2045
 -----------------------------------------------------------------
 Calculating analytic gradient of the SCF energy
 Gradient of SCF Energy
            1           2           3           4           5           6
    1  -0.0021459   0.0021482  -0.0004401  -0.0010739  -0.0001074   0.0029531
    2  -0.0009910   0.0007457   0.0004647  -0.0006718   0.0000810  -0.0016048
    3  -0.0003035  -0.0007074  -0.0000219  -0.0006341  -0.0000160  -0.0007632
            7           8           9          10          11          12
    1   0.0010020  -0.0104733   0.0085254  -0.0012065  -0.0012119   0.0013784
    2   0.0006465   0.0020799   0.0023957  -0.0021204  -0.0003910  -0.0001523
    3   0.0000904  -0.0028937   0.0067894  -0.0024338   0.0000961   0.0000972
           13          14          15          16
    1   0.0000852  -0.0017928   0.0001315   0.0022278
    2   0.0000820  -0.0015809   0.0002221   0.0007946
    3   0.0001118   0.0000049   0.0005846  -0.0000007
 Max gradient component =       1.047E-02
 RMS gradient           =       2.505E-03
 Gradient time:  CPU 2.12 s  wall 2.08 s
 Geometry Optimization Parameters
   NAtoms,    NIC,     NZ,  NCons,   NDum,   NFix, NCnnct, MaxDiis
       16     111       0       1       0       0       0       0


** CONSTRAINED OPTIMIZATION IN DELOCALIZED INTERNAL COORDINATES **
   Searching for a Minimum

   Optimization Cycle:   1

                       Coordinates (Angstroms)
     ATOM                X               Y               Z
      1  S         0.0023888700    0.0607727500    0.0018326900
      2  C         1.7370761900    0.0331584900    0.0032322900
      3  H         2.2761273700    0.0528903200    0.9404255700
      4  C         2.2416920400   -0.0154620100   -1.2696579800
      5  H         3.3028578000   -0.0400536500   -1.4897249600
      6  C         1.2247922200   -0.0161296800   -2.2681146400
      7  H         1.4267479000   -0.0265098700   -3.3333450100
      8  C        -0.0539377100    0.0288038800   -1.7517096600
      9  C        -1.3245081500    0.0488998800   -2.4563634200
     10  C        -2.1126067600   -1.0110082900   -2.8557801000
     11  H        -1.8518080700   -2.0443657300   -2.6558438100
     12  C        -3.3080131200   -0.6118453300   -3.5210299100
     13  H        -4.0500880900   -1.3070574400   -3.8966620300
     14  C        -3.4292340300    0.7488444700   -3.6257339900
     15  H        -4.2316795900    1.3203751200   -4.0717329900
     16  S        -2.0695396500    1.5673999400   -2.9252103300
   Point Group: c1    Number of degrees of freedom:    42


   Energy is  -1104.836949245

              Constraints and their Current Values
                                        Value     Constraint
   Dihedral:        6   8   9  10       90.000       90.000

 Attempting to Generate Delocalized Internal Coordinates

 41 Hessian modes will be used to form the next step
  Hessian Eigenvalues:
     0.045000    0.045000    0.045000    0.045000    0.045000    0.045000
     0.045002    0.045002    0.045003    0.045004    0.045011    0.045012
     0.159943    0.159949    0.159991    0.159992    0.160000    0.160000
     0.221282    0.221282    0.237835    0.237839    0.250000    0.250000
     0.294264    0.294663    0.312518    0.312618    0.354736    0.354850
     0.355125    0.355132    0.358226    0.358329    0.378510    0.404854
     0.404909    0.463547    0.463616    0.497922    0.497945

 Minimum Search - Taking Simple RFO Step
 Searching for Lamda that Minimizes Along All modes
 Value Taken    Lamda =  -0.00050527
 Step Taken.  Stepsize is  0.061960

                             Maximum     Tolerance    Cnvgd?
         Gradient           0.005251      0.000300      NO
         Displacement       0.033224      0.001200      NO
         Energy change     *********      0.000001      NO


 New Cartesian Coordinates Obtained by Inverse Iteration

 Displacement from previous Coordinates is:  0.133314
 ----------------------------------------------------------------
             Standard Nuclear Orientation (Angstroms)
    I     Atom           X                Y                Z
 ----------------------------------------------------------------
    1      S       0.0159046796     0.0718731830     0.0124908466
    2      C       1.7477214230     0.0225782565     0.0065999153
    3      H       2.2936554285     0.0264099082     0.9403929429
    4      C       2.2455198574    -0.0158443091    -1.2697438702
    5      H       3.3053450229    -0.0488819113    -1.4958511318
    6      C       1.2211898294    -0.0059065260    -2.2629863207
    7      H       1.4103365857    -0.0196554761    -3.3303907990
    8      C      -0.0516521796     0.0383118160    -1.7419000095
    9      C      -1.3347901389     0.0573133795    -2.4517658861
   10      C      -2.1167100073    -1.0039986715    -2.8465561827
   11      H      -1.8426740934    -2.0331550030    -2.6434885951
   12      C      -3.3108277117    -0.6137665930    -3.5230674170
   13      H      -4.0455270734    -1.3143217913    -3.9038736263
   14      C      -3.4341116287     0.7461337746    -3.6401082530
   15      H      -4.2332855596     1.3104661796    -4.1016698402
   16      S      -2.0898272138     1.5711566338    -2.9235000531
 ----------------------------------------------------------------
 Nuclear Repulsion Energy =   627.8362502307 hartrees
 There are       43 alpha and       43 beta electrons
 Applying Cartesian multipole field
    Component          Value
    ---------          -----
     (2,0,0)        1.00000E-11
     (0,2,0)        2.00000E-11
     (0,0,2)       -3.00000E-11
 Nucleus-field energy     =    -0.0000000352 hartrees
 Requested basis set is 6-31++G(d,p)
 There are 76 shells and 234 basis functions
 A cutoff of  1.0D-12 yielded   2528 shell pairs
 There are     24880 function pairs

 Q-Chem warning in module /project/projectdirs/jcesr/qchem/qc44/cnl_qc441/compile/cori/qc_src/libqints/qchem/aobasis.C, line 68:

 Using reconstructed effective core potential

 Smallest overlap matrix eigenvalue = 1.19E-06
 Guess MOs from SCF MO coefficient file
 Reading MOs from coefficient file
 Reading MOs from coefficient file
 A restricted hybrid HF-DFT SCF calculation will be
 performed using Pulay DIIS extrapolation
 Exchange:     0.2000 Hartree-Fock + 0.0800 Slater + 0.7200 B88
 Correlation:  0.1900 VWN1RPA + 0.8100 LYP
 Using SG-1 standard quadrature grid
 SCF converges when DIIS error is below 1.0E-08
 Geometry optimization detected.  Setting ReadMinima to 0
 Setting SaveMinima to 0
 ---------------------------------------
  Cycle       Energy         DIIS Error
 ---------------------------------------
    1   -1104.8407792306      7.03E-04
    2   -1104.8371221519      1.12E-04
    3   -1104.8369589515      1.86E-04
    4   -1104.8372097233      4.29E-05
    5   -1104.8372225085      1.21E-05
    6   -1104.8372234655      3.61E-06
    7   -1104.8372235466      1.30E-06
    8   -1104.8372235584      5.55E-07
    9   -1104.8372235606      5.16E-08
   10   -1104.8372235611      2.86E-08
   11   -1104.8372235601      5.52E-09 Convergence criterion met
 ---------------------------------------
 SCF time:  CPU 6.06 s  wall 5.71 s
 SCF   energy in the final basis set = -1104.8372235601
 Total energy in the final basis set = -1104.8372235601
 
 --------------------------------------------------------------
 
                    Orbital Energies (a.u.)
 --------------------------------------------------------------
 
 Alpha MOs
 -- Occupied --
-88.919 -88.919 -10.236 -10.235 -10.225 -10.225 -10.204 -10.204
-10.203 -10.203  -7.978  -7.978  -5.942  -5.942  -5.938  -5.938
 -5.935  -5.935  -0.898  -0.877  -0.768  -0.741  -0.741  -0.705
 -0.601  -0.567  -0.565  -0.534  -0.523  -0.478  -0.418  -0.414
 -0.413  -0.405  -0.394  -0.375  -0.375  -0.351  -0.349  -0.264
 -0.257  -0.243  -0.243
 -- Virtual --
 -0.034  -0.034  -0.005  -0.003   0.007   0.013   0.021   0.022
  0.026   0.034   0.035   0.040   0.045   0.048   0.065   0.071
  0.071   0.071   0.080   0.102   0.102   0.107   0.110   0.112
  0.113   0.118   0.125   0.127   0.132   0.132   0.137   0.142
  0.146   0.150   0.157   0.162   0.169   0.173   0.179   0.181
  0.186   0.190   0.191   0.206   0.212   0.218   0.220   0.226
  0.243   0.248   0.256   0.270   0.271   0.274   0.293   0.298
  0.306   0.317   0.329   0.332   0.357   0.362   0.372   0.391
  0.430   0.471   0.483   0.485   0.519   0.531   0.549   0.578
  0.580   0.587   0.616   0.633   0.643   0.666   0.674   0.676
  0.690   0.697   0.725   0.727   0.738   0.754   0.768   0.773
  0.794   0.801   0.814   0.828   0.842   0.894   0.911   0.941
  0.944   0.957   0.960   0.967   0.970   0.986   0.994   1.015
  1.020   1.023   1.034   1.058   1.078   1.094   1.103   1.110
  1.129   1.183   1.217   1.220   1.244   1.286   1.323   1.347
  1.352   1.355   1.364   1.394   1.462   1.471   1.473   1.526
  1.562   1.691   1.695   1.780   1.827   1.848   1.875   1.882
  1.916   1.923   1.959   1.971   2.010   2.018   2.061   2.109
  2.124   2.161   2.185   2.196   2.207   2.251   2.265   2.342
  2.366   2.370   2.428   2.438   2.464   2.480   2.494   2.511
  2.514   2.521   2.580   2.587   2.610   2.645   2.698   2.702
  2.755   2.830   2.860   2.877   2.934   3.167   3.172   3.269
  3.271   3.401   3.426   3.721   3.741   3.967   3.970   4.283
  4.306   4.320   4.328   4.437   4.534   4.661   4.710
 --------------------------------------------------------------
 
          Ground-State Mulliken Net Atomic Charges

     Atom                 Charge (a.u.)
  ----------------------------------------
      1 S                     0.056496
      2 C                    -0.039859
      3 H                     0.188028
      4 C                    -0.382583
      5 H                     0.118786
      6 C                     0.321593
      7 H                     0.131946
      8 C                    -0.393029
      9 C                    -0.395461
     10 C                     0.320466
     11 H                     0.131606
     12 C                    -0.382116
     13 H                     0.118883
     14 C                    -0.039797
     15 H                     0.187971
     16 S                     0.057071
  ----------------------------------------
  Sum of atomic charges =     0.000000

 -----------------------------------------------------------------
                    Cartesian Multipole Moments
 -----------------------------------------------------------------
    Charge (ESU x 10^10)
                 0.0000
    Dipole Moment (Debye)
         X       0.2352      Y      -0.5331      Z      -0.4416
       Tot       0.7311
    Quadrupole Moments (Debye-Ang)
        XX     -64.0106     XY       0.3957     YY     -73.5633
        XZ       5.0746     YZ       1.0565     ZZ     -68.8473
    Octopole Moments (Debye-Ang^2)
       XXX     154.6140    XXY     -13.6415    XYY      43.2991
       YYY     -51.1069    XXZ     107.3974    XYZ       1.5140
       YYZ     137.0768    XZZ      40.0176    YZZ     -16.3042
       ZZZ     424.1199
    Hexadecapole Moments (Debye-Ang^3)
      XXXX   -1730.1247   XXXY      76.4094   XXYY    -356.6759
      XYYY     100.1180   YYYY    -371.5702   XXXZ    -603.9213
      XXYZ      27.8855   XYYZ    -210.0772   YYYZ     140.9248
      XXZZ    -580.3157   XYZZ      17.8302   YYZZ    -470.2681
      XZZZ    -685.3891   YZZZ     126.6039   ZZZZ   -2590.7070
 -----------------------------------------------------------------
 Calculating analytic gradient of the SCF energy
 Gradient of SCF Energy
            1           2           3           4           5           6
    1   0.0001409   0.0010467  -0.0001205  -0.0006252   0.0000462   0.0004067
    2   0.0001158  -0.0001832   0.0001416   0.0000528   0.0000596  -0.0008500
    3  -0.0002229   0.0003606   0.0001044  -0.0000284   0.0000324   0.0002946
            7           8           9          10          11          12
    1   0.0001613  -0.0012645   0.0011832  -0.0000045  -0.0003743   0.0004632
    2   0.0004190   0.0005867  -0.0004717   0.0000704   0.0000088   0.0002672
    3   0.0000738  -0.0011569   0.0013141  -0.0010006   0.0002641   0.0003263
           13          14          15          16
    1  -0.0000751  -0.0009547  -0.0000069  -0.0000225
    2   0.0000103  -0.0001720   0.0001595  -0.0002147
    3   0.0000088  -0.0006674   0.0001596   0.0001377
 Max gradient component =       1.314E-03
 RMS gradient           =       5.148E-04
 Gradient time:  CPU 2.10 s  wall 2.06 s
 Geometry Optimization Parameters
   NAtoms,    NIC,     NZ,  NCons,   NDum,   NFix, NCnnct, MaxDiis
       16     111       0       1       0       0       0       0

 Cartesian Hessian Update
 Hessian Updated using BFGS Update


** CONSTRAINED OPTIMIZATION IN DELOCALIZED INTERNAL COORDINATES **
   Searching for a Minimum

   Optimization Cycle:   2

                       Coordinates (Angstroms)
     ATOM                X               Y               Z
      1  S         0.0159046796    0.0718731830    0.0124908466
      2  C         1.7477214230    0.0225782565    0.0065999153
      3  H         2.2936554285    0.0264099082    0.9403929429
      4  C         2.2455198574   -0.0158443091   -1.2697438702
      5  H         3.3053450229   -0.0488819113   -1.4958511318
      6  C         1.2211898294   -0.0059065260   -2.2629863207
      7  H         1.4103365857   -0.0196554761   -3.3303907990
      8  C        -0.0516521796    0.0383118160   -1.7419000095
      9  C        -1.3347901389    0.0573133795   -2.4517658861
     10  C        -2.1167100073   -1.0039986715   -2.8465561827
     11  H        -1.8426740934   -2.0331550030   -2.6434885951
     12  C        -3.3108277117   -0.6137665930   -3.5230674170
     13  H        -4.0455270734   -1.3143217913   -3.9038736263
     14  C        -3.4341116287    0.7461337746   -3.6401082530
     15  H        -4.2332855596    1.3104661796   -4.1016698402
     16  S        -2.0898272138    1.5711566338   -2.9235000531
   Point Group: c1    Number of degrees of freedom:    42


   Energy is  -1104.837223560

              Constraints and their Current Values
                                        Value     Constraint
   Dihedral:        6   8   9  10       90.000       90.000
 Hessian Updated using BFGS Update

 38 Hessian modes will be used to form the next step
  Hessian Eigenvalues:
     0.040354    0.045000    0.045000    0.045001    0.045002    0.045003
     0.045004    0.045012    0.046617    0.155061    0.159947    0.159988
     0.159992    0.160000    0.160205    0.218970    0.221283    0.234694
     0.237844    0.249952    0.250546    0.294362    0.295252    0.312536
     0.312801    0.354720    0.354836    0.355122    0.355131    0.358237
     0.358340    0.388758    0.404880    0.412153    0.456569    0.463587
     0.497933    0.498645

 Minimum Search - Taking Simple RFO Step
 Searching for Lamda that Minimizes Along All modes
 Value Taken    Lamda =  -0.00004164
 Step Taken.  Stepsize is  0.022343

                             Maximum     Tolerance    Cnvgd?
         Gradient           0.001189      0.000300      NO
         Displacement       0.011643      0.001200      NO
         Energy change     -0.000274      0.000001      NO


 New Cartesian Coordinates Obtained by Inverse Iteration

 Displacement from previous Coordinates is:  0.049422
 ----------------------------------------------------------------
             Standard Nuclear Orientation (Angstroms)
    I     Atom           X                Y                Z
 ----------------------------------------------------------------
    1      S       0.0154675814     0.0739697325     0.0164531235
    2      C       1.7464958745     0.0203124752     0.0047704038
    3      H       2.2953263234     0.0179112319     0.9368391569
    4      C       2.2437611748    -0.0165431820    -1.2720973265
    5      H       3.3029961572    -0.0542106164    -1.5000225676
    6      C       1.2171668908    -0.0016628944    -2.2629051524
    7      H       1.4013249172    -0.0189669204    -3.3312067159
    8      C      -0.0530647259     0.0429408013    -1.7376231459
    9      C      -1.3374786135     0.0624268070    -2.4486304315
   10      C      -2.1154127268    -1.0015912489    -2.8412643324
   11      H      -1.8350416262    -2.0292521310    -2.6388824606
   12      C      -3.3081569625    -0.6151081487    -3.5222753020
   13      H      -4.0395977112    -1.3173542260    -3.9060718506
   14      C      -3.4315194877     0.7448646493    -3.6411293850
   15      H      -4.2296405978     1.3058089826    -4.1085881080
   16      S      -2.0923592475     1.5751675380    -2.9227841859
 ----------------------------------------------------------------
 Nuclear Repulsion Energy =   627.8776926033 hartrees
 There are       43 alpha and       43 beta electrons
 Applying Cartesian multipole field
    Component          Value
    ---------          -----
     (2,0,0)        1.00000E-11
     (0,2,0)        2.00000E-11
     (0,0,2)       -3.00000E-11
 Nucleus-field energy     =    -0.0000000352 hartrees
 Requested basis set is 6-31++G(d,p)
 There are 76 shells and 234 basis functions
 A cutoff of  1.0D-12 yielded   2528 shell pairs
 There are     24880 function pairs

 Q-Chem warning in module /project/projectdirs/jcesr/qchem/qc44/cnl_qc441/compile/cori/qc_src/libqints/qchem/aobasis.C, line 68:

 Using reconstructed effective core potential

 Smallest overlap matrix eigenvalue = 1.18E-06
 Guess MOs from SCF MO coefficient file
 Reading MOs from coefficient file
 Reading MOs from coefficient file
 A restricted hybrid HF-DFT SCF calculation will be
 performed using Pulay DIIS extrapolation
 Exchange:     0.2000 Hartree-Fock + 0.0800 Slater + 0.7200 B88
 Correlation:  0.1900 VWN1RPA + 0.8100 LYP
 Using SG-1 standard quadrature grid
 SCF converges when DIIS error is below 1.0E-08
 Geometry optimization detected.  Setting ReadMinima to 0
 Setting SaveMinima to 0
 ---------------------------------------
  Cycle       Energy         DIIS Error
 ---------------------------------------
    1   -1104.8393417960      1.74E-04
    2   -1104.8372269983      4.74E-05
    3   -1104.8371845558      8.85E-05
    4   -1104.8372442387      1.33E-05
    5   -1104.8372455225      3.78E-06
    6   -1104.8372456176      1.36E-06
    7   -1104.8372456315      3.28E-07
    8   -1104.8372456314      1.28E-07
    9   -1104.8372456336      1.54E-08
   10   -1104.8372456330      8.50E-09 Convergence criterion met
 ---------------------------------------
 SCF time:  CPU 5.49 s  wall 5.21 s
 SCF   energy in the final basis set = -1104.8372456330
 Total energy in the final basis set = -1104.8372456330
 
 --------------------------------------------------------------
 
                    Orbital Energies (a.u.)
 --------------------------------------------------------------
 
 Alpha MOs
 -- Occupied --
-88.919 -88.919 -10.235 -10.235 -10.224 -10.224 -10.204 -10.204
-10.203 -10.203  -7.978  -7.978  -5.942  -5.942  -5.939  -5.938
 -5.935  -5.935  -0.898  -0.877  -0.768  -0.742  -0.741  -0.705
 -0.600  -0.567  -0.565  -0.534  -0.523  -0.478  -0.417  -0.414
 -0.413  -0.405  -0.393  -0.375  -0.375  -0.351  -0.350  -0.264
 -0.257  -0.243  -0.243
 -- Virtual --
 -0.034  -0.033  -0.005  -0.003   0.007   0.013   0.021   0.022
  0.026   0.034   0.035   0.041   0.045   0.048   0.065   0.071
  0.071   0.071   0.080   0.102   0.102   0.107   0.110   0.112
  0.113   0.118   0.125   0.127   0.132   0.132   0.137   0.142
  0.146   0.150   0.157   0.162   0.169   0.173   0.179   0.181
  0.186   0.191   0.191   0.206   0.212   0.218   0.220   0.226
  0.243   0.248   0.256   0.270   0.271   0.274   0.293   0.298
  0.306   0.316   0.329   0.332   0.357   0.362   0.371   0.391
  0.431   0.472   0.484   0.486   0.519   0.531   0.548   0.578
  0.580   0.587   0.617   0.633   0.642   0.667   0.674   0.676
  0.690   0.698   0.725   0.726   0.738   0.754   0.768   0.773
  0.794   0.801   0.814   0.828   0.842   0.894   0.911   0.942
  0.945   0.957   0.961   0.967   0.971   0.987   0.993   1.016
  1.020   1.022   1.034   1.058   1.078   1.094   1.103   1.110
  1.130   1.184   1.217   1.221   1.244   1.287   1.324   1.347
  1.352   1.354   1.363   1.395   1.460   1.472   1.474   1.524
  1.562   1.691   1.695   1.779   1.827   1.850   1.875   1.881
  1.917   1.923   1.960   1.972   2.011   2.018   2.061   2.109
  2.125   2.162   2.186   2.197   2.208   2.251   2.266   2.341
  2.367   2.371   2.429   2.438   2.465   2.479   2.494   2.511
  2.513   2.522   2.579   2.587   2.611   2.645   2.698   2.702
  2.756   2.831   2.859   2.878   2.934   3.168   3.171   3.269
  3.271   3.401   3.426   3.721   3.741   3.967   3.970   4.284
  4.306   4.320   4.328   4.437   4.535   4.661   4.710
 --------------------------------------------------------------
 
          Ground-State Mulliken Net Atomic Charges

     Atom                 Charge (a.u.)
  ----------------------------------------
      1 S                     0.059475
      2 C                    -0.043522
      3 H                     0.187605
      4 C                    -0.379240
      5 H                     0.118768
      6 C                     0.317970
      7 H                     0.132004
      8 C                    -0.391861
      9 C                    -0.393849
     10 C                     0.316563
     11 H                     0.131694
     12 C                    -0.378728
     13 H                     0.118864
     14 C                    -0.043441
     15 H                     0.187558
     16 S                     0.060139
  ----------------------------------------
  Sum of atomic charges =     0.000000

 -----------------------------------------------------------------
                    Cartesian Multipole Moments
 -----------------------------------------------------------------
    Charge (ESU x 10^10)
                 0.0000
    Dipole Moment (Debye)
         X       0.2392      Y      -0.5428      Z      -0.4492
       Tot       0.7440
    Quadrupole Moments (Debye-Ang)
        XX     -64.1040     XY       0.3673     YY     -73.5465
        XZ       5.0513     YZ       1.0630     ZZ     -68.7899
    Octopole Moments (Debye-Ang^2)
       XXX     155.2066    XXY     -13.9331    XYY      43.3891
       YYY     -51.4566    XXZ     107.4774    XYZ       1.4860
       YYZ     136.9296    XZZ      39.9695    YZZ     -16.4976
       ZZZ     423.4137
    Hexadecapole Moments (Debye-Ang^3)
      XXXX   -1731.1283   XXXY      77.1710   XXYY    -356.7786
      XYYY     100.7128   YYYY    -372.2567   XXXZ    -604.9469
      XXYZ      28.5293   XYYZ    -210.0735   YYYZ     141.8094
      XXZZ    -579.8995   XYZZ      18.0989   YYZZ    -469.8785
      XZZZ    -684.1502   YZZZ     127.6893   ZZZZ   -2586.5860
 -----------------------------------------------------------------
 Calculating analytic gradient of the SCF energy
 Gradient of SCF Energy
            1           2           3           4           5           6
    1  -0.0001241  -0.0000504  -0.0000823  -0.0001481   0.0000327   0.0000059
    2   0.0001558  -0.0001173   0.0000391   0.0000768  -0.0000167  -0.0004110
    3   0.0003638  -0.0000650   0.0000013  -0.0002401  -0.0000720   0.0002794
            7           8           9          10          11          12
    1   0.0000462   0.0006665  -0.0005289   0.0000875  -0.0001255   0.0001668
    2   0.0002075   0.0002276  -0.0006024   0.0002373  -0.0000274  -0.0001143
    3  -0.0000223  -0.0003055   0.0000065  -0.0004443   0.0001609   0.0002003
           13          14          15          16
    1   0.0000108   0.0000818   0.0000454  -0.0000844
    2  -0.0000750  -0.0000313   0.0000543   0.0003970
    3  -0.0000169  -0.0000531   0.0000854   0.0001215
 Max gradient component =       6.665E-04
 RMS gradient           =       2.241E-04
 Gradient time:  CPU 2.06 s  wall 2.06 s
 Geometry Optimization Parameters
   NAtoms,    NIC,     NZ,  NCons,   NDum,   NFix, NCnnct, MaxDiis
       16     111       0       1       0       0       0       0

 Cartesian Hessian Update
 Hessian Updated using BFGS Update


** CONSTRAINED OPTIMIZATION IN DELOCALIZED INTERNAL COORDINATES **
   Searching for a Minimum

   Optimization Cycle:   3

                       Coordinates (Angstroms)
     ATOM                X               Y               Z
      1  S         0.0154675814    0.0739697325    0.0164531235
      2  C         1.7464958745    0.0203124752    0.0047704038
      3  H         2.2953263234    0.0179112319    0.9368391569
      4  C         2.2437611748   -0.0165431820   -1.2720973265
      5  H         3.3029961572   -0.0542106164   -1.5000225676
      6  C         1.2171668908   -0.0016628944   -2.2629051524
      7  H         1.4013249172   -0.0189669204   -3.3312067159
      8  C        -0.0530647259    0.0429408013   -1.7376231459
      9  C        -1.3374786135    0.0624268070   -2.4486304315
     10  C        -2.1154127268   -1.0015912489   -2.8412643324
     11  H        -1.8350416262   -2.0292521310   -2.6388824606
     12  C        -3.3081569625   -0.6151081487   -3.5222753020
     13  H        -4.0395977112   -1.3173542260   -3.9060718506
     14  C        -3.4315194877    0.7448646493   -3.6411293850
     15  H        -4.2296405978    1.3058089826   -4.1085881080
     16  S        -2.0923592475    1.5751675380   -2.9227841859
   Point Group: c1    Number of degrees of freedom:    42


   Energy is  -1104.837245633

              Constraints and their Current Values
                                        Value     Constraint
   Dihedral:        6   8   9  10       90.000       90.000
 Hessian Updated using BFGS Update

 39 Hessian modes will be used to form the next step
  Hessian Eigenvalues:
     0.032062    0.045000    0.045000    0.045001    0.045002    0.045003
     0.045004    0.045012    0.045171    0.046332    0.150359    0.159947
     0.159992    0.160000    0.160162    0.160570    0.219619    0.221305
     0.227144    0.237839    0.250004    0.284305    0.294437    0.298536
     0.312550    0.313942    0.354779    0.354923    0.355128    0.355216
     0.358269    0.358722    0.392564    0.404882    0.425051    0.463578
     0.476213    0.497935    0.499601

 Minimum Search - Taking Simple RFO Step
 Searching for Lamda that Minimizes Along All modes
 Value Taken    Lamda =  -0.00000568
 Step Taken.  Stepsize is  0.010299

                             Maximum     Tolerance    Cnvgd?
         Gradient           0.000359      0.000300      NO
         Displacement       0.006805      0.001200      NO
         Energy change     -0.000022      0.000001      NO


 New Cartesian Coordinates Obtained by Inverse Iteration

 Displacement from previous Coordinates is:  0.016873
 ----------------------------------------------------------------
             Standard Nuclear Orientation (Angstroms)
    I     Atom           X                Y                Z
 ----------------------------------------------------------------
    1      S       0.0162775190     0.0735788289     0.0174416195
    2      C       1.7472400093     0.0196583187     0.0048497630
    3      H       2.2972882240     0.0148740084     0.9362615043
    4      C       2.2435783391    -0.0166799370    -1.2722932793
    5      H       3.3025933193    -0.0558256257    -1.5006246193
    6      C       1.2158963065     0.0000121608    -2.2625745291
    7      H       1.3985328705    -0.0192658808    -3.3310743696
    8      C      -0.0539358658     0.0448423315    -1.7361530553
    9      C      -1.3381434602     0.0645686032    -2.4472935283
   10      C      -2.1151435641    -1.0004383556    -2.8394366113
   11      H      -1.8323919882    -2.0276060073    -2.6380410419
   12      C      -3.3078559179    -0.6152691987    -3.5221375814
   13      H      -4.0383585981    -1.3179362519    -3.9067082915
   14      C      -3.4319740863     0.7444461016    -3.6420000686
   15      H      -4.2299202380     1.3039527961    -4.1116351408
   16      S      -2.0934156492     1.5758009577    -2.9239990504
 ----------------------------------------------------------------
 Nuclear Repulsion Energy =   627.8627736631 hartrees
 There are       43 alpha and       43 beta electrons
 Applying Cartesian multipole field
    Component          Value
    ---------          -----
     (2,0,0)        1.00000E-11
     (0,2,0)        2.00000E-11
     (0,0,2)       -3.00000E-11
 Nucleus-field energy     =    -0.0000000352 hartrees
 Requested basis set is 6-31++G(d,p)
 There are 76 shells and 234 basis functions
 A cutoff of  1.0D-12 yielded   2526 shell pairs
 There are     24868 function pairs

 Q-Chem warning in module /project/projectdirs/jcesr/qchem/qc44/cnl_qc441/compile/cori/qc_src/libqints/qchem/aobasis.C, line 68:

 Using reconstructed effective core potential

 Smallest overlap matrix eigenvalue = 1.18E-06
 Guess MOs from SCF MO coefficient file
 Reading MOs from coefficient file
 Reading MOs from coefficient file
 A restricted hybrid HF-DFT SCF calculation will be
 performed using Pulay DIIS extrapolation
 Exchange:     0.2000 Hartree-Fock + 0.0800 Slater + 0.7200 B88
 Correlation:  0.1900 VWN1RPA + 0.8100 LYP
 Using SG-1 standard quadrature grid
 SCF converges when DIIS error is below 1.0E-08
 Geometry optimization detected.  Setting ReadMinima to 0
 Setting SaveMinima to 0
 ---------------------------------------
  Cycle       Energy         DIIS Error
 ---------------------------------------
    1   -1104.8374915513      6.36E-05
    2   -1104.8372469694      1.61E-05
    3   -1104.8372418280      3.03E-05
    4   -1104.8372490558      3.56E-06
    5   -1104.8372491338      1.46E-06
    6   -1104.8372491485      4.19E-07
    7   -1104.8372491485      1.17E-07
    8   -1104.8372491495      3.07E-08
    9   -1104.8372491505      5.55E-09 Convergence criterion met
 ---------------------------------------
 SCF time:  CPU 4.89 s  wall 5.31 s
 SCF   energy in the final basis set = -1104.8372491505
 Total energy in the final basis set = -1104.8372491505
 
 --------------------------------------------------------------
 
                    Orbital Energies (a.u.)
 --------------------------------------------------------------
 
 Alpha MOs
 -- Occupied --
-88.919 -88.919 -10.235 -10.235 -10.224 -10.224 -10.204 -10.204
-10.203 -10.203  -7.978  -7.978  -5.942  -5.942  -5.939  -5.938
 -5.936  -5.935  -0.898  -0.877  -0.768  -0.741  -0.741  -0.705
 -0.600  -0.567  -0.565  -0.534  -0.523  -0.478  -0.417  -0.414
 -0.413  -0.405  -0.393  -0.375  -0.375  -0.351  -0.350  -0.264
 -0.257  -0.243  -0.243
 -- Virtual --
 -0.034  -0.033  -0.005  -0.003   0.007   0.013   0.021   0.022
  0.026   0.034   0.035   0.041   0.045   0.048   0.065   0.071
  0.071   0.071   0.080   0.102   0.102   0.107   0.111   0.112
  0.114   0.118   0.125   0.127   0.132   0.132   0.137   0.142
  0.146   0.150   0.157   0.162   0.169   0.173   0.179   0.182
  0.186   0.191   0.191   0.206   0.212   0.218   0.220   0.226
  0.243   0.248   0.256   0.270   0.271   0.274   0.293   0.298
  0.306   0.316   0.329   0.332   0.357   0.363   0.371   0.391
  0.431   0.472   0.483   0.486   0.519   0.531   0.548   0.578
  0.580   0.587   0.617   0.633   0.642   0.667   0.674   0.676
  0.690   0.698   0.725   0.726   0.738   0.754   0.768   0.773
  0.794   0.801   0.813   0.828   0.842   0.893   0.911   0.942
  0.945   0.957   0.960   0.967   0.971   0.987   0.993   1.016
  1.020   1.022   1.034   1.058   1.078   1.094   1.103   1.110
  1.129   1.184   1.217   1.221   1.244   1.287   1.324   1.347
  1.352   1.354   1.363   1.396   1.459   1.471   1.475   1.523
  1.563   1.691   1.695   1.780   1.827   1.850   1.875   1.881
  1.917   1.923   1.960   1.972   2.011   2.018   2.061   2.108
  2.125   2.162   2.186   2.197   2.208   2.251   2.266   2.341
  2.367   2.371   2.429   2.438   2.465   2.478   2.494   2.511
  2.513   2.522   2.579   2.587   2.611   2.645   2.698   2.702
  2.755   2.831   2.859   2.878   2.933   3.168   3.171   3.269
  3.271   3.401   3.426   3.721   3.741   3.967   3.970   4.284
  4.306   4.320   4.328   4.437   4.534   4.661   4.710
 --------------------------------------------------------------
 
          Ground-State Mulliken Net Atomic Charges

     Atom                 Charge (a.u.)
  ----------------------------------------
      1 S                     0.059739
      2 C                    -0.043536
      3 H                     0.187588
      4 C                    -0.378702
      5 H                     0.118772
      6 C                     0.316396
      7 H                     0.131979
      8 C                    -0.391242
      9 C                    -0.392758
     10 C                     0.314745
     11 H                     0.131678
     12 C                    -0.378073
     13 H                     0.118869
     14 C                    -0.043467
     15 H                     0.187547
     16 S                     0.060465
  ----------------------------------------
  Sum of atomic charges =     0.000000

 -----------------------------------------------------------------
                    Cartesian Multipole Moments
 -----------------------------------------------------------------
    Charge (ESU x 10^10)
                 0.0000
    Dipole Moment (Debye)
         X       0.2414      Y      -0.5484      Z      -0.4534
       Tot       0.7514
    Quadrupole Moments (Debye-Ang)
        XX     -64.1134     XY       0.3543     YY     -73.5544
        XZ       5.0675     YZ       1.0663     ZZ     -68.7604
    Octopole Moments (Debye-Ang^2)
       XXX     155.3019    XXY     -13.9969    XYY      43.4412
       YYY     -51.5540    XXZ     107.4520    XYZ       1.4987
       YYZ     136.9249    XZZ      39.8560    YZZ     -16.5473
       ZZZ     423.1687
    Hexadecapole Moments (Debye-Ang^3)
      XXXX   -1731.5970   XXXY      77.2853   XXYY    -356.9750
      XYYY     100.9317   YYYY    -372.3737   XXXZ    -605.0532
      XXYZ      28.6572   XYYZ    -210.2485   YYYZ     142.2374
      XXZZ    -579.5861   XYZZ      18.0597   YYZZ    -469.8866
      XZZZ    -683.6452   YZZZ     128.0717   ZZZZ   -2585.6071
 -----------------------------------------------------------------
 Calculating analytic gradient of the SCF energy
 Gradient of SCF Energy
            1           2           3           4           5           6
    1   0.0000131  -0.0000699   0.0000115   0.0000939  -0.0000080  -0.0001701
    2   0.0000383  -0.0000093   0.0000024   0.0000492  -0.0000448  -0.0002414
    3   0.0000944  -0.0000452  -0.0000003   0.0000437  -0.0000141   0.0000636
            7           8           9          10          11          12
    1  -0.0000187   0.0003788  -0.0003364   0.0002219  -0.0000185  -0.0001215
    2   0.0000864   0.0001701  -0.0002923   0.0001249   0.0000046   0.0000179
    3  -0.0000149  -0.0001334   0.0000369  -0.0001729   0.0000779   0.0000013
           13          14          15          16
    1   0.0000316   0.0000661  -0.0000156  -0.0000582
    2  -0.0000004  -0.0000026   0.0000096   0.0000874
    3  -0.0000358   0.0000507   0.0000193   0.0000288
 Max gradient component =       3.788E-04
 RMS gradient           =       1.173E-04
 Gradient time:  CPU 2.05 s  wall 2.06 s
 Geometry Optimization Parameters
   NAtoms,    NIC,     NZ,  NCons,   NDum,   NFix, NCnnct, MaxDiis
       16     111       0       1       0       0       0       0

 Cartesian Hessian Update
 Hessian Updated using BFGS Update


** CONSTRAINED OPTIMIZATION IN DELOCALIZED INTERNAL COORDINATES **
   Searching for a Minimum

   Optimization Cycle:   4

                       Coordinates (Angstroms)
     ATOM                X               Y               Z
      1  S         0.0162775190    0.0735788289    0.0174416195
      2  C         1.7472400093    0.0196583187    0.0048497630
      3  H         2.2972882240    0.0148740084    0.9362615043
      4  C         2.2435783391   -0.0166799370   -1.2722932793
      5  H         3.3025933193   -0.0558256257   -1.5006246193
      6  C         1.2158963065    0.0000121608   -2.2625745291
      7  H         1.3985328705   -0.0192658808   -3.3310743696
      8  C        -0.0539358658    0.0448423315   -1.7361530553
      9  C        -1.3381434602    0.0645686032   -2.4472935283
     10  C        -2.1151435641   -1.0004383556   -2.8394366113
     11  H        -1.8323919882   -2.0276060073   -2.6380410419
     12  C        -3.3078559179   -0.6152691987   -3.5221375814
     13  H        -4.0383585981   -1.3179362519   -3.9067082915
     14  C        -3.4319740863    0.7444461016   -3.6420000686
     15  H        -4.2299202380    1.3039527961   -4.1116351408
     16  S        -2.0934156492    1.5758009577   -2.9239990504
   Point Group: c1    Number of degrees of freedom:    42


   Energy is  -1104.837249150

              Constraints and their Current Values
                                        Value     Constraint
   Dihedral:        6   8   9  10       90.000       90.000
 Hessian Updated using BFGS Update

 40 Hessian modes will be used to form the next step
  Hessian Eigenvalues:
     0.024275    0.044314    0.045000    0.045000    0.045000    0.045002
     0.045002    0.045004    0.045011    0.045025    0.047606    0.156571
     0.159610    0.159947    0.159995    0.160000    0.160281    0.221238
     0.222158    0.224665    0.237839    0.249983    0.277912    0.289778
     0.294464    0.312551    0.314064    0.354724    0.354842    0.355129
     0.355452    0.358273    0.358731    0.378050    0.404880    0.450361
     0.457216    0.463585    0.497931    0.515865

 Minimum Search - Taking Simple RFO Step
 Searching for Lamda that Minimizes Along All modes
 Value Taken    Lamda =  -0.00000112
 Step Taken.  Stepsize is  0.005586

                             Maximum     Tolerance    Cnvgd?
         Gradient           0.000188      0.000300     YES
         Displacement       0.002515      0.001200      NO
         Energy change     -0.000004      0.000001      NO


 New Cartesian Coordinates Obtained by Inverse Iteration

 Displacement from previous Coordinates is:  0.008593
 ----------------------------------------------------------------
             Standard Nuclear Orientation (Angstroms)
    I     Atom           X                Y                Z
 ----------------------------------------------------------------
    1      S       0.0164403927     0.0730919692     0.0178010452
    2      C       1.7474237557     0.0188799970     0.0047866149
    3      H       2.2978222680     0.0128078637     0.9359777793
    4      C       2.2432974471    -0.0165694155    -1.2725575682
    5      H       3.3022617351    -0.0558163769    -1.5011113147
    6      C       1.2153932002     0.0010759886    -2.2625539624
    7      H       1.3977072361    -0.0189686814    -3.3310780318
    8      C      -0.0544186880     0.0459382883    -1.7355659038
    9      C      -1.3384014970     0.0655942992    -2.4465032684
   10      C      -2.1151135135    -0.9999997461    -2.8383520969
   11      H      -1.8316446507    -2.0270479535    -2.6374559011
   12      C      -3.3075746468    -0.6154120150    -3.5217556165
   13      H      -4.0379603992    -1.3183244286    -3.9060991168
   14      C      -3.4318475967     0.7441907798    -3.6427210312
   15      H      -4.2295493341     1.3031559275    -4.1134054801
   16      S      -2.0935684887     1.5761163536    -2.9248244274
 ----------------------------------------------------------------
 Nuclear Repulsion Energy =   627.8687942340 hartrees
 There are       43 alpha and       43 beta electrons
 Applying Cartesian multipole field
    Component          Value
    ---------          -----
     (2,0,0)        1.00000E-11
     (0,2,0)        2.00000E-11
     (0,0,2)       -3.00000E-11
 Nucleus-field energy     =    -0.0000000352 hartrees
 Requested basis set is 6-31++G(d,p)
 There are 76 shells and 234 basis functions
 A cutoff of  1.0D-12 yielded   2526 shell pairs
 There are     24868 function pairs

 Q-Chem warning in module /project/projectdirs/jcesr/qchem/qc44/cnl_qc441/compile/cori/qc_src/libqints/qchem/aobasis.C, line 68:

 Using reconstructed effective core potential

 Smallest overlap matrix eigenvalue = 1.18E-06
 Guess MOs from SCF MO coefficient file
 Reading MOs from coefficient file
 Reading MOs from coefficient file
 A restricted hybrid HF-DFT SCF calculation will be
 performed using Pulay DIIS extrapolation
 Exchange:     0.2000 Hartree-Fock + 0.0800 Slater + 0.7200 B88
 Correlation:  0.1900 VWN1RPA + 0.8100 LYP
 Using SG-1 standard quadrature grid
 SCF converges when DIIS error is below 1.0E-08
 Geometry optimization detected.  Setting ReadMinima to 0
 Setting SaveMinima to 0
 ---------------------------------------
  Cycle       Energy         DIIS Error
 ---------------------------------------
    1   -1104.8374205967      3.87E-05
    2   -1104.8372494534      6.69E-06
    3   -1104.8372484747      1.30E-05
    4   -1104.8372498286      1.57E-06
    5   -1104.8372498427      7.43E-07
    6   -1104.8372498466      2.10E-07
    7   -1104.8372498446      7.12E-08
    8   -1104.8372498453      1.84E-08
    9   -1104.8372498451      3.60E-09 Convergence criterion met
 ---------------------------------------
 SCF time:  CPU 4.98 s  wall 4.75 s
 SCF   energy in the final basis set = -1104.8372498451
 Total energy in the final basis set = -1104.8372498451
 
 --------------------------------------------------------------
 
                    Orbital Energies (a.u.)
 --------------------------------------------------------------
 
 Alpha MOs
 -- Occupied --
-88.919 -88.919 -10.235 -10.235 -10.224 -10.224 -10.204 -10.204
-10.203 -10.203  -7.978  -7.978  -5.942  -5.942  -5.939  -5.938
 -5.936  -5.935  -0.898  -0.877  -0.768  -0.741  -0.741  -0.705
 -0.600  -0.567  -0.565  -0.534  -0.523  -0.478  -0.417  -0.414
 -0.413  -0.405  -0.393  -0.375  -0.375  -0.351  -0.350  -0.264
 -0.257  -0.243  -0.243
 -- Virtual --
 -0.034  -0.033  -0.005  -0.003   0.007   0.013   0.021   0.022
  0.026   0.034   0.035   0.041   0.045   0.048   0.065   0.071
  0.071   0.071   0.080   0.102   0.102   0.107   0.111   0.112
  0.114   0.118   0.125   0.127   0.132   0.132   0.137   0.142
  0.146   0.150   0.157   0.162   0.169   0.173   0.179   0.182
  0.186   0.191   0.191   0.206   0.212   0.218   0.220   0.226
  0.243   0.248   0.257   0.270   0.271   0.274   0.293   0.298
  0.306   0.316   0.329   0.332   0.357   0.363   0.371   0.391
  0.431   0.472   0.483   0.486   0.519   0.531   0.548   0.578
  0.580   0.587   0.617   0.633   0.642   0.667   0.674   0.676
  0.691   0.698   0.725   0.726   0.738   0.754   0.767   0.773
  0.794   0.801   0.813   0.828   0.842   0.893   0.911   0.942
  0.945   0.958   0.960   0.967   0.971   0.987   0.993   1.016
  1.020   1.022   1.034   1.058   1.078   1.094   1.103   1.110
  1.129   1.184   1.217   1.221   1.245   1.287   1.325   1.346
  1.352   1.354   1.363   1.396   1.459   1.470   1.476   1.522
  1.563   1.691   1.695   1.780   1.827   1.851   1.875   1.881
  1.917   1.923   1.960   1.973   2.011   2.018   2.061   2.108
  2.125   2.162   2.186   2.197   2.208   2.251   2.267   2.341
  2.367   2.371   2.429   2.438   2.465   2.478   2.494   2.511
  2.513   2.522   2.579   2.587   2.611   2.645   2.698   2.702
  2.756   2.831   2.859   2.878   2.933   3.168   3.171   3.269
  3.271   3.401   3.426   3.721   3.741   3.967   3.970   4.284
  4.306   4.320   4.328   4.437   4.534   4.661   4.710
 --------------------------------------------------------------
 
          Ground-State Mulliken Net Atomic Charges

     Atom                 Charge (a.u.)
  ----------------------------------------
      1 S                     0.059991
      2 C                    -0.043659
      3 H                     0.187567
      4 C                    -0.378420
      5 H                     0.118769
      6 C                     0.315730
      7 H                     0.131966
      8 C                    -0.391114
      9 C                    -0.392277
     10 C                     0.313922
     11 H                     0.131666
     12 C                    -0.377697
     13 H                     0.118866
     14 C                    -0.043585
     15 H                     0.187529
     16 S                     0.060744
  ----------------------------------------
  Sum of atomic charges =     0.000000

 -----------------------------------------------------------------
                    Cartesian Multipole Moments
 -----------------------------------------------------------------
    Charge (ESU x 10^10)
                 0.0000
    Dipole Moment (Debye)
         X       0.2422      Y      -0.5506      Z      -0.4548
       Tot       0.7541
    Quadrupole Moments (Debye-Ang)
        XX     -64.1197     XY       0.3507     YY     -73.5561
        XZ       5.0708     YZ       1.0645     ZZ     -68.7498
    Octopole Moments (Debye-Ang^2)
       XXX     155.3426    XXY     -14.0254    XYY      43.4575
       YYY     -51.5879    XXZ     107.4531    XYZ       1.5010
       YYZ     136.9230    XZZ      39.8243    YZZ     -16.5529
       ZZZ     423.0902
    Hexadecapole Moments (Debye-Ang^3)
      XXXX   -1731.6367   XXXY      77.3747   XXYY    -357.0133
      XYYY     101.0008   YYYY    -372.4250   XXXZ    -605.1182
      XXYZ      28.7238   XYYZ    -210.2923   YYYZ     142.4811
      XXZZ    -579.4856   XYZZ      17.9996   YYZZ    -469.8939
      XZZZ    -683.4608   YZZZ     128.2153   ZZZZ   -2585.3456
 -----------------------------------------------------------------
 Calculating analytic gradient of the SCF energy
 Gradient of SCF Energy
            1           2           3           4           5           6
    1   0.0000135  -0.0000301   0.0000228   0.0000657  -0.0000081  -0.0000589
    2   0.0000055   0.0000069  -0.0000167   0.0000460  -0.0000380  -0.0001907
    3  -0.0000006  -0.0000251  -0.0000074   0.0000557  -0.0000019  -0.0000360
            7           8           9          10          11          12
    1  -0.0000114   0.0000571  -0.0001133   0.0001499  -0.0000003  -0.0001014
    2   0.0000241   0.0001878  -0.0000632  -0.0000127   0.0000062   0.0000335
    3  -0.0000054  -0.0000583   0.0001686  -0.0001449   0.0000155   0.0000043
           13          14          15          16
    1   0.0000207   0.0000254  -0.0000151  -0.0000166
    2   0.0000132   0.0000026  -0.0000033  -0.0000013
    3  -0.0000305   0.0000437   0.0000029   0.0000193
 Max gradient component =       1.907E-04
 RMS gradient           =       6.503E-05
 Gradient time:  CPU 2.08 s  wall 2.05 s
 Geometry Optimization Parameters
   NAtoms,    NIC,     NZ,  NCons,   NDum,   NFix, NCnnct, MaxDiis
       16     111       0       1       0       0       0       0

 Cartesian Hessian Update
 Hessian Updated using BFGS Update


** CONSTRAINED OPTIMIZATION IN DELOCALIZED INTERNAL COORDINATES **
   Searching for a Minimum

   Optimization Cycle:   5

                       Coordinates (Angstroms)
     ATOM                X               Y               Z
      1  S         0.0164403927    0.0730919692    0.0178010452
      2  C         1.7474237557    0.0188799970    0.0047866149
      3  H         2.2978222680    0.0128078637    0.9359777793
      4  C         2.2432974471   -0.0165694155   -1.2725575682
      5  H         3.3022617351   -0.0558163769   -1.5011113147
      6  C         1.2153932002    0.0010759886   -2.2625539624
      7  H         1.3977072361   -0.0189686814   -3.3310780318
      8  C        -0.0544186880    0.0459382883   -1.7355659038
      9  C        -1.3384014970    0.0655942992   -2.4465032684
     10  C        -2.1151135135   -0.9999997461   -2.8383520969
     11  H        -1.8316446507   -2.0270479535   -2.6374559011
     12  C        -3.3075746468   -0.6154120150   -3.5217556165
     13  H        -4.0379603992   -1.3183244286   -3.9060991168
     14  C        -3.4318475967    0.7441907798   -3.6427210312
     15  H        -4.2295493341    1.3031559275   -4.1134054801
     16  S        -2.0935684887    1.5761163536   -2.9248244274
   Point Group: c1    Number of degrees of freedom:    42


   Energy is  -1104.837249845

              Constraints and their Current Values
                                        Value     Constraint
   Dihedral:        6   8   9  10       90.000       90.000
 Hessian Updated using BFGS Update

 37 Hessian modes will be used to form the next step
  Hessian Eigenvalues:
     0.018266    0.042030    0.045000    0.045000    0.045001    0.045003
     0.045004    0.045012    0.045608    0.047699    0.153408    0.159947
     0.159988    0.160270    0.161134    0.220042    0.221280    0.230385
     0.237858    0.249870    0.275154    0.290984    0.294475    0.312554
     0.354719    0.354824    0.355129    0.355433    0.358274    0.358845
     0.395318    0.404881    0.442474    0.463574    0.469708    0.497929
     0.510296

 Minimum Search - Taking Simple RFO Step
 Searching for Lamda that Minimizes Along All modes
 Value Taken    Lamda =   0.00000000
 Step Taken.  Stepsize is  0.003162

                             Maximum     Tolerance    Cnvgd?
         Gradient           0.000064      0.000300     YES
         Displacement       0.001751      0.001200      NO
         Energy change     -0.000001      0.000001     YES

 Final energy is   -1104.83724984509     


 ******************************
 **  OPTIMIZATION CONVERGED  **
 ******************************

                       Coordinates (Angstroms)
     ATOM                X               Y               Z
      1  S         0.0164403927    0.0730919692    0.0178010452
      2  C         1.7474237557    0.0188799970    0.0047866149
      3  H         2.2978222680    0.0128078637    0.9359777793
      4  C         2.2432974471   -0.0165694155   -1.2725575682
      5  H         3.3022617351   -0.0558163769   -1.5011113147
      6  C         1.2153932002    0.0010759886   -2.2625539624
      7  H         1.3977072361   -0.0189686814   -3.3310780318
      8  C        -0.0544186880    0.0459382883   -1.7355659038
      9  C        -1.3384014970    0.0655942992   -2.4465032684
     10  C        -2.1151135135   -0.9999997461   -2.8383520969
     11  H        -1.8316446507   -2.0270479535   -2.6374559011
     12  C        -3.3075746468   -0.6154120150   -3.5217556165
     13  H        -4.0379603992   -1.3183244286   -3.9060991168
     14  C        -3.4318475967    0.7441907798   -3.6427210312
     15  H        -4.2295493341    1.3031559275   -4.1134054801
     16  S        -2.0935684887    1.5761163536   -2.9248244274

Z-matrix Print:
$molecule
0 1
S 
C  1 1.731881
H  2 1.081708 1 120.150066
C  2 1.370677 1 111.678483 3 179.788005 0
H  4 1.084058 2 123.422619 1 -179.833453 0
C  4 1.427232 2 112.677522 1 0.045973 0
H  6 1.084151 4 124.215600 2 179.860678 0
C  6 1.375555 4 113.547166 2 -0.172400 0
C  8 1.467798 6 128.491417 4 -179.535738 0
C  9 1.375615 8 128.426959 6 90.000000 0
H  10 1.084224 9 122.234055 8 0.419035 0
C  10 1.427204 9 113.541940 8 -179.611289 0
H  12 1.084098 10 123.914595 9 179.791491 0
C  12 1.370619 10 112.663625 9 -0.145440 0
H  14 1.081810 12 128.155507 10 179.874038 0
S  14 1.731608 12 111.710085 10 0.044764 0
$end

 
 --------------------------------------------------------------
 
                    Orbital Energies (a.u.)
 --------------------------------------------------------------
 
 Alpha MOs
 -- Occupied --
-88.919 -88.919 -10.235 -10.235 -10.224 -10.224 -10.204 -10.204
-10.203 -10.203  -7.978  -7.978  -5.942  -5.942  -5.939  -5.938
 -5.936  -5.935  -0.898  -0.877  -0.768  -0.741  -0.741  -0.705
 -0.600  -0.567  -0.565  -0.534  -0.523  -0.478  -0.417  -0.414
 -0.413  -0.405  -0.393  -0.375  -0.375  -0.351  -0.350  -0.264
 -0.257  -0.243  -0.243
 -- Virtual --
 -0.034  -0.033  -0.005  -0.003   0.007   0.013   0.021   0.022
  0.026   0.034   0.035   0.041   0.045   0.048   0.065   0.071
  0.071   0.071   0.080   0.102   0.102   0.107   0.111   0.112
  0.114   0.118   0.125   0.127   0.132   0.132   0.137   0.142
  0.146   0.150   0.157   0.162   0.169   0.173   0.179   0.182
  0.186   0.191   0.191   0.206   0.212   0.218   0.220   0.226
  0.243   0.248   0.257   0.270   0.271   0.274   0.293   0.298
  0.306   0.316   0.329   0.332   0.357   0.363   0.371   0.391
  0.431   0.472   0.483   0.486   0.519   0.531   0.548   0.578
  0.580   0.587   0.617   0.633   0.642   0.667   0.674   0.676
  0.691   0.698   0.725   0.726   0.738   0.754   0.767   0.773
  0.794   0.801   0.813   0.828   0.842   0.893   0.911   0.942
  0.945   0.958   0.960   0.967   0.971   0.987   0.993   1.016
  1.020   1.022   1.034   1.058   1.078   1.094   1.103   1.110
  1.129   1.184   1.217   1.221   1.245   1.287   1.325   1.346
  1.352   1.354   1.363   1.396   1.459   1.470   1.476   1.522
  1.563   1.691   1.695   1.780   1.827   1.851   1.875   1.881
  1.917   1.923   1.960   1.973   2.011   2.018   2.061   2.108
  2.125   2.162   2.186   2.197   2.208   2.251   2.267   2.341
  2.367   2.371   2.429   2.438   2.465   2.478   2.494   2.511
  2.513   2.522   2.579   2.587   2.611   2.645   2.698   2.702
  2.756   2.831   2.859   2.878   2.933   3.168   3.171   3.269
  3.271   3.401   3.426   3.721   3.741   3.967   3.970   4.284
  4.306   4.320   4.328   4.437   4.534   4.661   4.710
 --------------------------------------------------------------
 
          Ground-State Mulliken Net Atomic Charges

     Atom                 Charge (a.u.)
  ----------------------------------------
      1 S                     0.059991
      2 C                    -0.043659
      3 H                     0.187567
      4 C                    -0.378420
      5 H                     0.118769
      6 C                     0.315730
      7 H                     0.131966
      8 C                    -0.391114
      9 C                    -0.392277
     10 C                     0.313922
     11 H                     0.131666
     12 C                    -0.377697
     13 H                     0.118866
     14 C                    -0.043585
     15 H                     0.187529
     16 S                     0.060744
  ----------------------------------------
  Sum of atomic charges =     0.000000

 -----------------------------------------------------------------
                    Cartesian Multipole Moments
 -----------------------------------------------------------------
    Charge (ESU x 10^10)
                 0.0000
    Dipole Moment (Debye)
         X       0.2422      Y      -0.5506      Z      -0.4548
       Tot       0.7541
    Quadrupole Moments (Debye-Ang)
        XX     -64.1197     XY       0.3507     YY     -73.5561
        XZ       5.0708     YZ       1.0645     ZZ     -68.7498
    Octopole Moments (Debye-Ang^2)
       XXX     155.3426    XXY     -14.0254    XYY      43.4575
       YYY     -51.5879    XXZ     107.4531    XYZ       1.5010
       YYZ     136.9230    XZZ      39.8243    YZZ     -16.5529
       ZZZ     423.0902
    Hexadecapole Moments (Debye-Ang^3)
      XXXX   -1731.6367   XXXY      77.3747   XXYY    -357.0133
      XYYY     101.0008   YYYY    -372.4250   XXXZ    -605.1182
      XXYZ      28.7238   XYYZ    -210.2923   YYYZ     142.4811
      XXZZ    -579.4856   XYZZ      17.9996   YYZZ    -469.8939
      XZZZ    -683.4608   YZZZ     128.2153   ZZZZ   -2585.3456
 -----------------------------------------------------------------
Archival summary:
1\1\nid00484\OPT\ProcedureUnspecified\BasisUnspecified\286\bwood\WedMay3102:25:212017WedMay3102:25:212017\0\\#,OPT,ProcedureUnspecified,BasisUnspecified,\\0,1\S\C,1,1.73188\H,2,1.08171,1,120.15\C,2,1.37068,1,111.678,3,179.788,0\H,4,1.08406,2,123.423,1,-179.833,0\C,4,1.42723,2,112.678,1,0.045973,0\H,6,1.08415,4,124.216,2,179.861,0\C,6,1.37555,4,113.547,2,-0.1724,0\C,8,1.4678,6,128.491,4,-179.536,0\C,9,1.37562,8,128.427,6,90,0\H,10,1.08422,9,122.234,8,0.419035,0\C,10,1.4272,9,113.542,8,-179.611,0\H,12,1.0841,10,123.915,9,179.791,0\C,12,1.37062,10,112.664,9,-0.14544,0\H,14,1.08181,12,128.156,10,179.874,0\S,14,1.73161,12,111.71,10,0.0447639,0\\\@

 Total job time:  40.78s(wall), 40.54s(cpu) 
 Wed May 31 02:25:21 2017

        *************************************************************
        *                                                           *
        *  Thank you very much for using Q-Chem.  Have a nice day.  *
        *                                                           *
        *************************************************************


0 sent ACK to 0 
now end server 0 ... 
