srun -N 1 --ntasks-per-node 16 --cpus-per-task 4 --cpu_bind=cores --nodelist nid00457 /global/project/projectdirs/jcesr/qchem/qc44/cnl_qc441/dist/exe/qcprog.cori.haswell.exe .pt_n2_neutral_-120.0.in.47742.qcin.1 /global/cscratch1/sd/bwood/qchem/nx/qchem47742/
Process 1 of 16 is on nid00457 - thread support 0
Process 2 of 16 is on nid00457 - thread support 0
Process 3 of 16 is on nid00457 - thread support 0
Process 4 of 16 is on nid00457 - thread support 0
Process 5 of 16 is on nid00457 - thread support 0
Process 6 of 16 is on nid00457 - thread support 0
Process 0 of 16 is on nid00457 - thread support 0
initial socket setup ...start
Process 15 of 16 is on nid00457 - thread support 0
initial socket setup ...done 
now start server 0 ... 
nid00457 10.128.1
Q-Chem Developer Version! Running on 10.128.1.*
                  Welcome to Q-Chem
     A Quantum Leap Into The Future Of Chemistry


 Q-Chem 4.4, Q-Chem, Inc., Pleasanton, CA (2016)

 Y. Shao,  Z. Gan,  E. Epifanovsky,  A. T. B. Gilbert,  M. Wormit,  
 J. Kussmann,  A. W. Lange,  A. Behn,  J. Deng,  X. Feng,  D. Ghosh,  
 M. Goldey,  P. R. Horn,  L. D. Jacobson,  I. Kaliman,  F. Rob,  
 R. Z. Khaliullin,  T. Kus,  A. Landau,  J. Liu,  E. I. Proynov,  Y. M. Rhee,  
 R. M. Richard,  M. A. Rohrdanz,  R. P. Steele,  E. J. Sundstrom,  
 H. L. Woodcock III,  P. M. Zimmerman,  D. Zuev,  B. Albrecht,  E. Alguire,  
 B. Austin,  S. A. Baeppler,  G. J. O. Beran,  Y. A. Bernard,  
 E. J. Berquist,  K. Brandhorst,  K. B. Bravaya,  S. T. Brown,  D. Casanova,  
 C.-M. Chang,  Y. Chen,  S. H. Chien,  K. D. Closser,  M. P. Coons,  
 D. L. Crittenden,  S. Dasgupta,  M. Diedenhofen,  R. A. DiStasio Jr.,  
 H. Do,  A. D. Dutoi,  R. G. Edgar,  P.-T. Fang,  S. Fatehi,  Q. Feng,  
 L. Fusti-Molnar,  A. Ghysels,  A. Golubeva-Zadorozhnaya,  J. Gomes,  
 A. Gunina,  M. W. D. Hanson-Heine,  P. H. P. Harbach,  A. W. Hauser,  
 J. E. Herr,  E. G. Hohenstein,  Z. C. Holden,  K. Hui,  T.-C. Jagau,  H. Ji,  
 B. Kaduk,  K. Khistyaev,  Jaehoon Kim,  Jihan Kim,  R. A. King,  
 P. Klunzinger,  K. Koh,  D. Kosenkov,  T. Kowalczyk,  C. M. Krauter,  
 A. Kunitsa,  K. U. Lao,  A. Laurent,  K. V. Lawler,  J. Lee,  D. Lefrancois,  
 S. Lehtola,  S. V. Levchenko,  C. Y. Lin,  Y.-S. Lin,  F. Liu,  E. Livshits,  
 R. C. Lochan,  A. Luenser,  P. Manohar,  S. F. Manzer,  S.-P. Mao,  Y. Mao,  
 N. Mardirossian,  A. V. Marenich,  L. A. Martinez-Martinez,  S. A. Maurer,  
 N. J. Mayhall,  J.-M. Mewes,  A. F. Morrison,  K. Nanda,  T. S. Nguyen-Beck,  
 C. M. Oana,  R. Olivares-Amaya,  D. P. O'Neill,  J. A. Parkhill,  
 T. M. Perrine,  R. Peverati,  P. A. Pieniazek,  F. Plasser,  A. Prociuk,  
 D. R. Rehn,  E. Rosta,  N. J. Russ,  N. Sergueev,  S. M. Sharada,  
 S. Sharma,  D. W. Small,  A. Sodt,  T. Stauch,  T. Stein,  D. Stuck,  
 Y.-C. Su,  A. J. W. Thom,  T. Tsuchimochi,  L. Vogt,  O. Vydrov,  T. Wang,  
 M. A. Watson,  J. Wenzel,  A. White,  C. F. Williams,  V. Vanovschi,  
 K. Yao,  S. Yeganeh,  S. R. Yost,  Z.-Q. You,  I. Y. Zhang,  X. Zhang,  
 Y. Zhao,  B. R. Brooks,  G. K. L. Chan,  D. M. Chipman,  C. J. Cramer,  
 W. A. Goddard III,  M. S. Gordon,  W. J. Hehre,  A. Klamt,  
 H. F. Schaefer III,  M. W. Schmidt,  C. D. Sherrill,  D. G. Truhlar,  
 A. Warshel,  X. Xu,  A. Aspuru-Guzik,  R. Baer,  A. T. Bell,  N. A. Besley,  
 J.-D. Chai,  A. Dreuw,  B. D. Dunietz,  T. R. Furlani,  S. R. Gwaltney,  
 C.-P. Hsu,  Y. Jung,  J. Kong,  D. S. Lambrecht,  W. Liang,  C. Ochsenfeld,  
 V. A. Rassolov,  L. V. Slipchenko,  J. E. Subotnik,  T. Van Voorhis,  
 J. M. Herbert,  A. I. Krylov,  P. M. W. Gill,  M. Head-Gordon

 Contributors to earlier versions of Q-Chem not listed above: 
 R. D. Adamson,  J. Baker,  E. F. C. Byrd,  A. K. Chakraborty,  C.-L. Cheng,  
 H. Dachsel,  R. J. Doerksen,  G. Hawkins,  A. Heyden,  S. Hirata,  
 G. Kedziora,  F. J. Keil,  C. Kelley,  P. P. Korambath,  W. Kurlancheek,  
 A. M. Lee,  M. S. Lee,  D. Liotard,  I. Lotan,  P. E. Maslen,  N. Nair,  
 D. Neuhauser,  R. Olson,  B. Peters,  J. Ritchie,  N. E. Schultz,  
 N. Shenvi,  A. C. Simmonett,  K. S. Thanthiriwatte,  Q. Wu,  W. Zhang

 Please cite Q-Chem as follows:
 Y. Shao et al., Mol. Phys. 113, 184-215 (2015)
 DOI: 10.1080/00268976.2014.952696

 Q-Chem 4.4.2 for Intel X86 EM64T Linux

 Parts of Q-Chem use Armadillo 5.200.1 (Boston Tea Smuggler).
 http://arma.sourceforge.net/

 Q-Chem begins on Wed May 31 02:24:40 2017  

Host: nid00447
0

     Scratch files written to /global/cscratch1/sd/bwood/qchem/nx/qchem47742.0//
 Parallel job on  16  processors

Checking the input file for inconsistencies... 	...done.

--------------------------------------------------------------
User input:
--------------------------------------------------------------
$molecule
 0  1
 S           0.00238887        0.06077275        0.00183269
 C           1.73707619        0.03315849        0.00323229
 H           2.27612737        0.05289032        0.94042557
 C           2.24169204       -0.01546201       -1.26965798
 H           3.30285780       -0.04005365       -1.48972496
 C           1.22479222       -0.01612968       -2.26811464
 H           1.42674790       -0.02650987       -3.33334501
 C          -0.05393771        0.02880388       -1.75170966
 C          -1.32450815        0.04889988       -2.45636342
 C          -2.31837192        1.00567861       -2.42724843
 H          -2.23977204        1.91601295       -1.84335501
 C          -3.43197739        0.69444124       -3.26025436
 H          -4.30084585        1.33341705       -3.36921385
 C          -3.28430360       -0.49580374       -3.92255603
 H          -3.96462540       -0.96729104       -4.61850376
 S          -1.78262199       -1.26726977       -3.52339715
$end


$rem
         jobtype = opt
        exchange = b3lyp
           basis = 6-31++g**
  max_scf_cycles = 150
      mem_static = 775
       mem_total = 7750
      sym_ignore = true
        symmetry = false
          thresh = 12
$end


$opt
CONSTRAINT
tors 6 8 9 10 -120.0
ENDCONSTRAINT
$end

--------------------------------------------------------------
 ----------------------------------------------------------------
             Standard Nuclear Orientation (Angstroms)
    I     Atom           X                Y                Z
 ----------------------------------------------------------------
    1      S       0.0023888700     0.0607727500     0.0018326900
    2      C       1.7370761900     0.0331584900     0.0032322900
    3      H       2.2761273700     0.0528903200     0.9404255700
    4      C       2.2416920400    -0.0154620100    -1.2696579800
    5      H       3.3028578000    -0.0400536500    -1.4897249600
    6      C       1.2247922200    -0.0161296800    -2.2681146400
    7      H       1.4267479000    -0.0265098700    -3.3333450100
    8      C      -0.0539377100     0.0288038800    -1.7517096600
    9      C      -1.3245081500     0.0488998800    -2.4563634200
   10      C      -2.3183719200     1.0056786100    -2.4272484300
   11      H      -2.2397720400     1.9160129500    -1.8433550100
   12      C      -3.4319773900     0.6944412400    -3.2602543600
   13      H      -4.3008458500     1.3334170500    -3.3692138500
   14      C      -3.2843036000    -0.4958037400    -3.9225560300
   15      H      -3.9646254000    -0.9672910400    -4.6185037600
   16      S      -1.7826219900    -1.2672697700    -3.5233971500
 ----------------------------------------------------------------
 Nuclear Repulsion Energy =   628.3175491958 hartrees
 There are       43 alpha and       43 beta electrons
 Requested basis set is 6-31++G(d,p)
 There are 76 shells and 234 basis functions

 Total QAlloc Memory Limit   7750 MB
 Mega-Array Size       758 MB
 MEM_STATIC part       775 MB
 A cutoff of  1.0D-12 yielded   2534 shell pairs
 There are     24998 function pairs

 Q-Chem warning in module /project/projectdirs/jcesr/qchem/qc44/cnl_qc441/compile/cori/qc_src/libqints/qchem/aobasis.C, line 68:

 Using reconstructed effective core potential

 
 -------------------------------------------------------
 OpenMP Integral Computing Module                       
 Release: version 1.0, May 2013, Q-Chem Inc. Pittsburgh 
 -------------------------------------------------------
 Integral Job Info:
 Integral job number is                      11
 Integral operator is                         1
 short-range coefficients                     0
 long-range coefficients              100000000
 Omega coefficients                           0
 if combine SR and LR in K                    0
 Integral screening is                        0
 Integral computing path is                   2
 max size of driver memory is            800000
 size of driver memory is                593474
 size of scratch memory is             15166112
 max col of scratch BK array               1296
 max len of scratch array in speh3          155
 max len of scratch index in speh4           18
 max int batch size is                      520
 min int batch size is                       52
 fixed nKL is                                52
 max L of basis functions is                  2
 order of int derivative is                   0
 number of shells is                         76
 number of basis is                         234
 number of cartesian basis is               234
 number of contracted shell pairs          2534
 number of primitive shell pairs           8241
 maxK2 (contraction) of shell pair           36
 max number of K2 of shell pair               1
 max number of CS2 of shell pair            270
 max number of PS2 of shell pair           1512
 mem total for path MDJ                   52824
 -------------------------------------------------------
 Smallest overlap matrix eigenvalue = 1.08E-06

 Scale SEOQF with 1.000000e-01/1.000000e-01/1.000000e-01

 Standard Electronic Orientation quadrupole field applied
 Nucleus-field energy     =    -0.0000000421 hartrees
 Guess from superposition of atomic densities
 Warning:  Energy on first SCF cycle will be non-variational
 A restricted hybrid HF-DFT SCF calculation will be
 performed using Pulay DIIS extrapolation
 Exchange:     0.2000 Hartree-Fock + 0.0800 Slater + 0.7200 B88
 Correlation:  0.1900 VWN1RPA + 0.8100 LYP
 Using SG-1 standard quadrature grid
 SCF converges when DIIS error is below 1.0E-08
 ---------------------------------------
  Cycle       Energy         DIIS Error
 ---------------------------------------
    1   -1107.1538880246      4.39E-02
    2   -1104.6577089575      4.84E-03
    3   -1104.4066851034      7.32E-03
    4   -1104.8285546070      1.13E-03
    5   -1104.8359112810      6.27E-04
    6   -1104.8383926593      2.36E-04
    7   -1104.8387880759      8.22E-05
    8   -1104.8388359136      1.46E-05
    9   -1104.8388374928      1.76E-06
   10   -1104.8388375175      5.08E-07
   11   -1104.8388375199      3.29E-07
   12   -1104.8388375207      8.18E-08
   13   -1104.8388375208      3.64E-08
   14   -1104.8388375207      3.90E-09 Convergence criterion met
 ---------------------------------------
 SCF time:  CPU 7.64 s  wall 7.20 s
 SCF   energy in the final basis set = -1104.8388375207
 Total energy in the final basis set = -1104.8388375207
 
 --------------------------------------------------------------
 
                    Orbital Energies (a.u.)
 --------------------------------------------------------------
 
 Alpha MOs
 -- Occupied --
-88.920 -88.919 -10.236 -10.236 -10.224 -10.224 -10.204 -10.204
-10.203 -10.203  -7.979  -7.979  -5.943  -5.943  -5.939  -5.939
 -5.936  -5.936  -0.899  -0.877  -0.770  -0.745  -0.739  -0.705
 -0.603  -0.573  -0.558  -0.534  -0.524  -0.478  -0.418  -0.417
 -0.410  -0.405  -0.396  -0.376  -0.374  -0.353  -0.348  -0.263
 -0.261  -0.259  -0.226
 -- Virtual --
 -0.046  -0.020  -0.006  -0.003   0.006   0.011   0.018   0.022
  0.028   0.036   0.038   0.039   0.044   0.055   0.061   0.063
  0.070   0.076   0.088   0.096   0.103   0.104   0.108   0.108
  0.118   0.122   0.127   0.131   0.132   0.133   0.135   0.144
  0.145   0.152   0.153   0.164   0.166   0.173   0.178   0.181
  0.186   0.189   0.197   0.207   0.212   0.224   0.225   0.231
  0.236   0.241   0.261   0.265   0.275   0.282   0.287   0.289
  0.311   0.318   0.322   0.337   0.356   0.360   0.376   0.389
  0.435   0.462   0.466   0.510   0.520   0.528   0.532   0.573
  0.580   0.596   0.618   0.628   0.649   0.660   0.674   0.683
  0.696   0.715   0.722   0.725   0.738   0.756   0.764   0.779
  0.780   0.804   0.806   0.827   0.836   0.878   0.914   0.942
  0.943   0.949   0.961   0.967   0.970   0.986   0.996   1.014
  1.016   1.029   1.034   1.072   1.091   1.092   1.102   1.115
  1.145   1.180   1.200   1.217   1.257   1.273   1.318   1.348
  1.350   1.351   1.366   1.385   1.464   1.465   1.487   1.534
  1.553   1.690   1.694   1.762   1.803   1.861   1.875   1.887
  1.917   1.924   1.968   1.995   2.003   2.032   2.072   2.097
  2.130   2.133   2.180   2.183   2.219   2.261   2.268   2.338
  2.366   2.368   2.424   2.437   2.468   2.468   2.495   2.505
  2.523   2.525   2.583   2.588   2.600   2.653   2.697   2.708
  2.748   2.848   2.856   2.895   2.932   3.154   3.187   3.270
  3.273   3.404   3.426   3.722   3.741   3.972   3.975   4.270
  4.303   4.319   4.331   4.428   4.535   4.657   4.712
 --------------------------------------------------------------
 
          Ground-State Mulliken Net Atomic Charges

     Atom                 Charge (a.u.)
  ----------------------------------------
      1 S                     0.050930
      2 C                    -0.051098
      3 H                     0.187270
      4 C                    -0.382875
      5 H                     0.117496
      6 C                     0.242586
      7 H                     0.136197
      8 C                    -0.297080
      9 C                    -0.301803
     10 C                     0.239746
     11 H                     0.136198
     12 C                    -0.381920
     13 H                     0.117521
     14 C                    -0.051714
     15 H                     0.187268
     16 S                     0.051280
  ----------------------------------------
  Sum of atomic charges =     0.000000

 -----------------------------------------------------------------
                    Cartesian Multipole Moments
 -----------------------------------------------------------------
    Charge (ESU x 10^10)
                 0.0000
    Dipole Moment (Debye)
         X       0.1470      Y       0.4698      Z      -0.2526
       Tot       0.5532
    Quadrupole Moments (Debye-Ang)
        XX     -63.7821     XY      -1.6671     YY     -74.6009
        XZ       4.6558     YZ       0.8877     ZZ     -68.6816
    Octopole Moments (Debye-Ang^2)
       XXX     147.0267    XXY      12.4194    XYY      43.5046
       YYY      24.8075    XXZ     114.3333    XYZ      -2.1396
       YYZ     147.7710    XZZ      36.2960    YZZ      -3.6814
       ZZZ     431.9992
    Hexadecapole Moments (Debye-Ang^3)
      XXXX   -1668.9504   XXXY     -49.0360   XXYY    -343.2888
      XYYY     -33.5752   YYYY    -301.1002   XXXZ    -612.6094
      XXYZ     -32.7408   XYYZ    -225.9863   YYYZ    -121.9106
      XXZZ    -608.2258   XYZZ      29.7562   YYZZ    -513.1792
      XZZZ    -650.5421   YZZZ     -52.1938   ZZZZ   -2749.5727
 -----------------------------------------------------------------
 Calculating analytic gradient of the SCF energy
 Gradient of SCF Energy
            1           2           3           4           5           6
    1  -0.0010687   0.0015824  -0.0003509  -0.0005588  -0.0000759   0.0017260
    2  -0.0008699   0.0003034  -0.0000402  -0.0001122  -0.0000874   0.0010582
    3   0.0001977  -0.0007619   0.0000057  -0.0002670   0.0000023  -0.0002999
            7           8           9          10          11          12
    1   0.0007241  -0.0067748   0.0062251  -0.0010848  -0.0005878   0.0005897
    2   0.0003115  -0.0007027  -0.0016989   0.0013971   0.0004397  -0.0000288
    3   0.0000929  -0.0021304   0.0036152  -0.0010486  -0.0004941   0.0003554
           13          14          15          16
    1   0.0000463  -0.0009711   0.0002686   0.0003106
    2  -0.0001001   0.0014548  -0.0001906  -0.0011338
    3   0.0000561  -0.0001603   0.0000995   0.0007374
 Max gradient component =       6.775E-03
 RMS gradient           =       1.625E-03
 Gradient time:  CPU 2.07 s  wall 2.09 s
 Geometry Optimization Parameters
   NAtoms,    NIC,     NZ,  NCons,   NDum,   NFix, NCnnct, MaxDiis
       16     111       0       1       0       0       0       0


** CONSTRAINED OPTIMIZATION IN DELOCALIZED INTERNAL COORDINATES **
   Searching for a Minimum

   Optimization Cycle:   1

                       Coordinates (Angstroms)
     ATOM                X               Y               Z
      1  S         0.0023888700    0.0607727500    0.0018326900
      2  C         1.7370761900    0.0331584900    0.0032322900
      3  H         2.2761273700    0.0528903200    0.9404255700
      4  C         2.2416920400   -0.0154620100   -1.2696579800
      5  H         3.3028578000   -0.0400536500   -1.4897249600
      6  C         1.2247922200   -0.0161296800   -2.2681146400
      7  H         1.4267479000   -0.0265098700   -3.3333450100
      8  C        -0.0539377100    0.0288038800   -1.7517096600
      9  C        -1.3245081500    0.0488998800   -2.4563634200
     10  C        -2.3183719200    1.0056786100   -2.4272484300
     11  H        -2.2397720400    1.9160129500   -1.8433550100
     12  C        -3.4319773900    0.6944412400   -3.2602543600
     13  H        -4.3008458500    1.3334170500   -3.3692138500
     14  C        -3.2843036000   -0.4958037400   -3.9225560300
     15  H        -3.9646254000   -0.9672910400   -4.6185037600
     16  S        -1.7826219900   -1.2672697700   -3.5233971500
   Point Group: c1    Number of degrees of freedom:    42


   Energy is  -1104.838837521

              Constraints and their Current Values
                                        Value     Constraint
   Dihedral:        6   8   9  10     -120.000     -120.000

 Attempting to Generate Delocalized Internal Coordinates

 41 Hessian modes will be used to form the next step
  Hessian Eigenvalues:
     0.045000    0.045000    0.045000    0.045000    0.045000    0.045000
     0.045002    0.045002    0.045003    0.045004    0.045011    0.045012
     0.159943    0.159949    0.159991    0.159992    0.160000    0.160000
     0.221282    0.221282    0.237835    0.237839    0.250000    0.250000
     0.294264    0.294663    0.312518    0.312618    0.354736    0.354850
     0.355125    0.355132    0.358226    0.358329    0.378510    0.404854
     0.404909    0.463547    0.463616    0.497922    0.497945

 Minimum Search - Taking Simple RFO Step
 Searching for Lamda that Minimizes Along All modes
 Value Taken    Lamda =  -0.00020096
 Step Taken.  Stepsize is  0.042293

                             Maximum     Tolerance    Cnvgd?
         Gradient           0.003290      0.000300      NO
         Displacement       0.021103      0.001200      NO
         Energy change     *********      0.000001      NO


 New Cartesian Coordinates Obtained by Inverse Iteration

 Displacement from previous Coordinates is:  0.081226
 ----------------------------------------------------------------
             Standard Nuclear Orientation (Angstroms)
    I     Atom           X                Y                Z
 ----------------------------------------------------------------
    1      S       0.0072378768     0.0706808818     0.0046986163
    2      C       1.7402097455     0.0407552152     0.0053824474
    3      H       2.2821234235     0.0682254060     0.9410230321
    4      C       2.2432649237    -0.0150966224    -1.2684554985
    5      H       3.3042698879    -0.0393875771    -1.4898423478
    6      C       1.2240467763    -0.0236445721    -2.2660530614
    7      H       1.4192723756    -0.0421486936    -3.3323605223
    8      C      -0.0516087105     0.0217333383    -1.7484806700
    9      C      -1.3299714652     0.0434861125    -2.4555382162
   10      C      -2.3202464523     1.0002012841    -2.4233640127
   11      H      -2.2375943629     1.9041004175    -1.8302808996
   12      C      -3.4337378411     0.6945370975    -3.2605367535
   13      H      -4.3021451236     1.3348008827    -3.3670564978
   14      C      -3.2854302165    -0.4923361415    -3.9300235194
   15      H      -3.9654695001    -0.9576256210    -4.6307504286
   16      S      -1.7835029970    -1.2627259980    -3.5363153779
 ----------------------------------------------------------------
 Nuclear Repulsion Energy =   627.9853876459 hartrees
 There are       43 alpha and       43 beta electrons
 Applying Cartesian multipole field
    Component          Value
    ---------          -----
     (2,0,0)        1.00000E-11
     (0,2,0)        2.00000E-11
     (0,0,2)       -3.00000E-11
 Nucleus-field energy     =    -0.0000000422 hartrees
 Requested basis set is 6-31++G(d,p)
 There are 76 shells and 234 basis functions
 A cutoff of  1.0D-12 yielded   2534 shell pairs
 There are     24998 function pairs

 Q-Chem warning in module /project/projectdirs/jcesr/qchem/qc44/cnl_qc441/compile/cori/qc_src/libqints/qchem/aobasis.C, line 68:

 Using reconstructed effective core potential

 Smallest overlap matrix eigenvalue = 1.12E-06
 Guess MOs from SCF MO coefficient file
 Reading MOs from coefficient file
 Reading MOs from coefficient file
 A restricted hybrid HF-DFT SCF calculation will be
 performed using Pulay DIIS extrapolation
 Exchange:     0.2000 Hartree-Fock + 0.0800 Slater + 0.7200 B88
 Correlation:  0.1900 VWN1RPA + 0.8100 LYP
 Using SG-1 standard quadrature grid
 SCF converges when DIIS error is below 1.0E-08
 Geometry optimization detected.  Setting ReadMinima to 0
 Setting SaveMinima to 0
 ---------------------------------------
  Cycle       Energy         DIIS Error
 ---------------------------------------
    1   -1104.8409111196      4.23E-04
    2   -1104.8389397909      5.42E-05
    3   -1104.8389248342      7.23E-05
    4   -1104.8389610389      2.07E-05
    5   -1104.8389639428      6.67E-06
    6   -1104.8389642487      2.05E-06
    7   -1104.8389642743      8.25E-07
    8   -1104.8389642797      2.86E-07
    9   -1104.8389642800      2.97E-08
   10   -1104.8389642790      1.60E-08
   11   -1104.8389642781      6.84E-09 Convergence criterion met
 ---------------------------------------
 SCF time:  CPU 6.04 s  wall 5.72 s
 SCF   energy in the final basis set = -1104.8389642781
 Total energy in the final basis set = -1104.8389642781
 
 --------------------------------------------------------------
 
                    Orbital Energies (a.u.)
 --------------------------------------------------------------
 
 Alpha MOs
 -- Occupied --
-88.920 -88.920 -10.237 -10.236 -10.225 -10.224 -10.204 -10.204
-10.203 -10.203  -7.979  -7.979  -5.943  -5.943  -5.939  -5.939
 -5.936  -5.936  -0.899  -0.878  -0.769  -0.745  -0.739  -0.705
 -0.602  -0.574  -0.558  -0.534  -0.524  -0.478  -0.417  -0.417
 -0.410  -0.406  -0.395  -0.376  -0.374  -0.353  -0.348  -0.264
 -0.261  -0.259  -0.226
 -- Virtual --
 -0.045  -0.019  -0.006  -0.003   0.007   0.011   0.018   0.022
  0.028   0.036   0.038   0.039   0.044   0.055   0.061   0.063
  0.070   0.076   0.088   0.096   0.103   0.104   0.107   0.108
  0.118   0.122   0.127   0.131   0.132   0.133   0.135   0.144
  0.145   0.152   0.153   0.164   0.166   0.173   0.177   0.181
  0.186   0.189   0.197   0.207   0.211   0.224   0.225   0.232
  0.235   0.240   0.261   0.266   0.275   0.281   0.286   0.289
  0.311   0.318   0.322   0.337   0.356   0.360   0.376   0.389
  0.435   0.461   0.467   0.511   0.521   0.527   0.531   0.573
  0.581   0.596   0.617   0.627   0.650   0.659   0.675   0.682
  0.697   0.714   0.722   0.725   0.737   0.757   0.764   0.778
  0.779   0.804   0.806   0.827   0.835   0.877   0.914   0.941
  0.944   0.949   0.961   0.966   0.969   0.986   0.997   1.014
  1.017   1.029   1.034   1.072   1.091   1.093   1.101   1.114
  1.145   1.180   1.200   1.216   1.258   1.271   1.318   1.349
  1.351   1.351   1.366   1.385   1.464   1.464   1.486   1.536
  1.551   1.690   1.694   1.760   1.799   1.865   1.873   1.885
  1.917   1.923   1.965   1.993   2.003   2.032   2.073   2.098
  2.130   2.134   2.181   2.184   2.219   2.259   2.264   2.336
  2.367   2.368   2.423   2.437   2.467   2.468   2.494   2.505
  2.523   2.525   2.582   2.587   2.599   2.652   2.697   2.707
  2.747   2.848   2.854   2.893   2.931   3.154   3.186   3.269
  3.272   3.404   3.424   3.721   3.741   3.971   3.975   4.268
  4.303   4.320   4.330   4.427   4.535   4.657   4.711
 --------------------------------------------------------------
 
          Ground-State Mulliken Net Atomic Charges

     Atom                 Charge (a.u.)
  ----------------------------------------
      1 S                     0.048664
      2 C                    -0.047970
      3 H                     0.187677
      4 C                    -0.385665
      5 H                     0.117279
      6 C                     0.241634
      7 H                     0.136513
      8 C                    -0.297581
      9 C                    -0.296035
     10 C                     0.236775
     11 H                     0.136545
     12 C                    -0.383309
     13 H                     0.117365
     14 C                    -0.048976
     15 H                     0.187648
     16 S                     0.049436
  ----------------------------------------
  Sum of atomic charges =    -0.000000

 -----------------------------------------------------------------
                    Cartesian Multipole Moments
 -----------------------------------------------------------------
    Charge (ESU x 10^10)
                -0.0000
    Dipole Moment (Debye)
         X       0.1494      Y       0.4790      Z      -0.2562
       Tot       0.5634
    Quadrupole Moments (Debye-Ang)
        XX     -63.8075     XY      -1.6680     YY     -74.6511
        XZ       4.6842     YZ       0.9357     ZZ     -68.6130
    Octopole Moments (Debye-Ang^2)
       XXX     147.0149    XXY      12.4130    XYY      43.6227
       YYY      24.4642    XXZ     114.4884    XYZ      -2.0569
       YYZ     148.0403    XZZ      36.0038    YZZ      -3.9251
       ZZZ     431.7055
    Hexadecapole Moments (Debye-Ang^3)
      XXXX   -1671.4678   XXXY     -49.1314   XXYY    -343.8952
      XYYY     -33.5186   YYYY    -300.0380   XXXZ    -614.1142
      XXYZ     -33.0556   XYYZ    -227.1726   YYYZ    -123.0295
      XXZZ    -609.1280   XYZZ      29.7905   YYZZ    -514.6849
      XZZZ    -650.1377   YZZZ     -52.1644   ZZZZ   -2753.3154
 -----------------------------------------------------------------
 Calculating analytic gradient of the SCF energy
 Gradient of SCF Energy
            1           2           3           4           5           6
    1   0.0001767   0.0006164  -0.0001269  -0.0003701   0.0000108   0.0002369
    2  -0.0004079  -0.0000455  -0.0000120   0.0000092  -0.0000188   0.0013925
    3   0.0001024   0.0001602   0.0001082  -0.0000771   0.0000080   0.0000772
            7           8           9          10          11          12
    1   0.0001281  -0.0008552   0.0003071   0.0004040  -0.0000204   0.0003607
    2   0.0002595  -0.0013744  -0.0002445   0.0006250   0.0001489  -0.0000666
    3   0.0000325  -0.0009331   0.0019482  -0.0012455  -0.0002496   0.0001368
           13          14          15          16
    1  -0.0000213  -0.0005428   0.0000719  -0.0003760
    2  -0.0000007   0.0001111  -0.0001495  -0.0002262
    3  -0.0000017  -0.0002101  -0.0000125   0.0001561
 Max gradient component =       1.948E-03
 RMS gradient           =       5.255E-04
 Gradient time:  CPU 2.07 s  wall 2.08 s
 Geometry Optimization Parameters
   NAtoms,    NIC,     NZ,  NCons,   NDum,   NFix, NCnnct, MaxDiis
       16     111       0       1       0       0       0       0

 Cartesian Hessian Update
 Hessian Updated using BFGS Update


** CONSTRAINED OPTIMIZATION IN DELOCALIZED INTERNAL COORDINATES **
   Searching for a Minimum

   Optimization Cycle:   2

                       Coordinates (Angstroms)
     ATOM                X               Y               Z
      1  S         0.0072378768    0.0706808818    0.0046986163
      2  C         1.7402097455    0.0407552152    0.0053824474
      3  H         2.2821234235    0.0682254060    0.9410230321
      4  C         2.2432649237   -0.0150966224   -1.2684554985
      5  H         3.3042698879   -0.0393875771   -1.4898423478
      6  C         1.2240467763   -0.0236445721   -2.2660530614
      7  H         1.4192723756   -0.0421486936   -3.3323605223
      8  C        -0.0516087105    0.0217333383   -1.7484806700
      9  C        -1.3299714652    0.0434861125   -2.4555382162
     10  C        -2.3202464523    1.0002012841   -2.4233640127
     11  H        -2.2375943629    1.9041004175   -1.8302808996
     12  C        -3.4337378411    0.6945370975   -3.2605367535
     13  H        -4.3021451236    1.3348008827   -3.3670564978
     14  C        -3.2854302165   -0.4923361415   -3.9300235194
     15  H        -3.9654695001   -0.9576256210   -4.6307504286
     16  S        -1.7835029970   -1.2627259980   -3.5363153779
   Point Group: c1    Number of degrees of freedom:    42


   Energy is  -1104.838964278

              Constraints and their Current Values
                                        Value     Constraint
   Dihedral:        6   8   9  10     -120.000     -120.000
 Hessian Updated using BFGS Update

 39 Hessian modes will be used to form the next step
  Hessian Eigenvalues:
     0.029161    0.045000    0.045000    0.045000    0.045000    0.045002
     0.045003    0.045011    0.045012    0.045954    0.156397    0.159947
     0.159990    0.159992    0.160000    0.160748    0.221281    0.222116
     0.235947    0.237904    0.249883    0.250480    0.292219    0.294577
     0.312565    0.313986    0.354739    0.354851    0.355127    0.355140
     0.358236    0.358345    0.400821    0.404879    0.420559    0.463549
     0.477083    0.497933    0.499751

 Minimum Search - Taking Simple RFO Step
 Searching for Lamda that Minimizes Along All modes
 Value Taken    Lamda =  -0.00006364
 Step Taken.  Stepsize is  0.044153

                             Maximum     Tolerance    Cnvgd?
         Gradient           0.001045      0.000300      NO
         Displacement       0.033154      0.001200      NO
         Energy change     -0.000127      0.000001      NO


 New Cartesian Coordinates Obtained by Inverse Iteration

 Displacement from previous Coordinates is:  0.105664
 ----------------------------------------------------------------
             Standard Nuclear Orientation (Angstroms)
    I     Atom           X                Y                Z
 ----------------------------------------------------------------
    1      S       0.0075492920     0.0800399626     0.0064836493
    2      C       1.7398791566     0.0524801070     0.0035910167
    3      H       2.2847166536     0.0909504924     0.9371435697
    4      C       2.2424271284    -0.0149030923    -1.2701329309
    5      H       3.3032154782    -0.0387921635    -1.4925929609
    6      C       1.2211870029    -0.0347275780    -2.2658571783
    7      H       1.4116710464    -0.0642361147    -3.3327802486
    8      C      -0.0522712079     0.0113424641    -1.7453235907
    9      C      -1.3341869756     0.0352573752    -2.4511311451
   10      C      -2.3216622899     0.9934033916    -2.4147035165
   11      H      -2.2384798617     1.8903158004    -1.8111775737
   12      C      -3.4326527566     0.6956142928    -3.2585388879
   13      H      -4.3004448514     1.3370034851    -3.3632159072
   14      C      -3.2806826127    -0.4855730873    -3.9376326422
   15      H      -3.9587127330    -0.9426270416    -4.6456854479
   16      S      -1.7808341295    -1.2599928838    -3.5463999158
 ----------------------------------------------------------------
 Nuclear Repulsion Energy =   628.0278974879 hartrees
 There are       43 alpha and       43 beta electrons
 Applying Cartesian multipole field
    Component          Value
    ---------          -----
     (2,0,0)        1.00000E-11
     (0,2,0)        2.00000E-11
     (0,0,2)       -3.00000E-11
 Nucleus-field energy     =    -0.0000000424 hartrees
 Requested basis set is 6-31++G(d,p)
 There are 76 shells and 234 basis functions
 A cutoff of  1.0D-12 yielded   2534 shell pairs
 There are     24998 function pairs

 Q-Chem warning in module /project/projectdirs/jcesr/qchem/qc44/cnl_qc441/compile/cori/qc_src/libqints/qchem/aobasis.C, line 68:

 Using reconstructed effective core potential

 Smallest overlap matrix eigenvalue = 1.11E-06
 Guess MOs from SCF MO coefficient file
 Reading MOs from coefficient file
 Reading MOs from coefficient file
 A restricted hybrid HF-DFT SCF calculation will be
 performed using Pulay DIIS extrapolation
 Exchange:     0.2000 Hartree-Fock + 0.0800 Slater + 0.7200 B88
 Correlation:  0.1900 VWN1RPA + 0.8100 LYP
 Using SG-1 standard quadrature grid
 SCF converges when DIIS error is below 1.0E-08
 Geometry optimization detected.  Setting ReadMinima to 0
 Setting SaveMinima to 0
 ---------------------------------------
  Cycle       Energy         DIIS Error
 ---------------------------------------
    1   -1104.8404111291      3.71E-04
    2   -1104.8389870610      4.57E-05
    3   -1104.8389598895      7.69E-05
    4   -1104.8390056824      1.45E-05
    5   -1104.8390069888      6.17E-06
    6   -1104.8390072343      2.48E-06
    7   -1104.8390072760      6.33E-07
    8   -1104.8390072795      1.64E-07
    9   -1104.8390072812      3.08E-08
   10   -1104.8390072799      2.03E-08
   11   -1104.8390072799      4.42E-09 Convergence criterion met
 ---------------------------------------
 SCF time:  CPU 5.97 s  wall 5.68 s
 SCF   energy in the final basis set = -1104.8390072799
 Total energy in the final basis set = -1104.8390072799
 
 --------------------------------------------------------------
 
                    Orbital Energies (a.u.)
 --------------------------------------------------------------
 
 Alpha MOs
 -- Occupied --
-88.920 -88.920 -10.237 -10.236 -10.224 -10.224 -10.204 -10.204
-10.203 -10.203  -7.979  -7.979  -5.943  -5.943  -5.939  -5.939
 -5.936  -5.936  -0.899  -0.878  -0.769  -0.745  -0.739  -0.705
 -0.601  -0.574  -0.558  -0.534  -0.524  -0.478  -0.417  -0.417
 -0.410  -0.405  -0.395  -0.376  -0.374  -0.354  -0.348  -0.264
 -0.261  -0.259  -0.226
 -- Virtual --
 -0.045  -0.018  -0.006  -0.003   0.006   0.011   0.018   0.022
  0.028   0.036   0.039   0.039   0.044   0.055   0.061   0.063
  0.070   0.076   0.089   0.096   0.103   0.104   0.107   0.109
  0.118   0.122   0.127   0.131   0.133   0.133   0.135   0.144
  0.144   0.152   0.154   0.164   0.165   0.173   0.177   0.180
  0.186   0.189   0.197   0.207   0.211   0.225   0.226   0.232
  0.235   0.240   0.261   0.266   0.275   0.281   0.286   0.288
  0.311   0.318   0.321   0.337   0.356   0.360   0.375   0.389
  0.436   0.462   0.467   0.512   0.522   0.527   0.530   0.572
  0.581   0.596   0.617   0.627   0.651   0.659   0.675   0.682
  0.698   0.714   0.721   0.725   0.738   0.758   0.764   0.778
  0.779   0.805   0.806   0.827   0.835   0.877   0.914   0.941
  0.945   0.949   0.962   0.965   0.969   0.987   0.997   1.014
  1.017   1.028   1.033   1.072   1.091   1.093   1.100   1.114
  1.146   1.181   1.200   1.215   1.259   1.270   1.318   1.349
  1.350   1.352   1.366   1.386   1.462   1.463   1.485   1.539
  1.549   1.689   1.694   1.759   1.797   1.868   1.873   1.885
  1.918   1.923   1.965   1.993   2.003   2.033   2.075   2.098
  2.130   2.135   2.182   2.184   2.220   2.259   2.262   2.336
  2.368   2.368   2.423   2.437   2.466   2.467   2.495   2.505
  2.523   2.524   2.581   2.586   2.600   2.652   2.697   2.707
  2.747   2.848   2.854   2.893   2.931   3.154   3.186   3.269
  3.271   3.403   3.424   3.721   3.742   3.971   3.975   4.268
  4.303   4.319   4.330   4.426   4.536   4.657   4.711
 --------------------------------------------------------------
 
          Ground-State Mulliken Net Atomic Charges

     Atom                 Charge (a.u.)
  ----------------------------------------
      1 S                     0.047635
      2 C                    -0.047278
      3 H                     0.187487
      4 C                    -0.386460
      5 H                     0.117058
      6 C                     0.240949
      7 H                     0.136742
      8 C                    -0.297905
      9 C                    -0.291393
     10 C                     0.234616
     11 H                     0.136826
     12 C                    -0.383296
     13 H                     0.117175
     14 C                    -0.048367
     15 H                     0.187449
     16 S                     0.048762
  ----------------------------------------
  Sum of atomic charges =     0.000000

 -----------------------------------------------------------------
                    Cartesian Multipole Moments
 -----------------------------------------------------------------
    Charge (ESU x 10^10)
                -0.0000
    Dipole Moment (Debye)
         X       0.1518      Y       0.4875      Z      -0.2594
       Tot       0.5727
    Quadrupole Moments (Debye-Ang)
        XX     -63.8644     XY      -1.6893     YY     -74.6870
        XZ       4.6578     YZ       0.9993     ZZ     -68.5494
    Octopole Moments (Debye-Ang^2)
       XXX     147.2538    XXY      12.6232    XYY      43.7659
       YYY      24.2107    XXZ     114.7466    XYZ      -1.8361
       YYZ     148.2707    XZZ      35.8518    YZZ      -4.1271
       ZZZ     431.2400
    Hexadecapole Moments (Debye-Ang^3)
      XXXX   -1670.8553   XXXY     -49.7610   XXYY    -343.8376
      XYYY     -33.3225   YYYY    -299.0992   XXXZ    -615.2420
      XXYZ     -34.0731   XYYZ    -227.8476   YYYZ    -124.4543
      XXZZ    -609.7391   XYZZ      29.3594   YYZZ    -515.7613
      XZZZ    -648.3927   YZZZ     -52.5669   ZZZZ   -2753.6938
 -----------------------------------------------------------------
 Calculating analytic gradient of the SCF energy
 Gradient of SCF Energy
            1           2           3           4           5           6
    1   0.0001002  -0.0003222  -0.0000245   0.0000496   0.0000350  -0.0002398
    2  -0.0002026  -0.0001616   0.0000418  -0.0000035   0.0000103   0.0018210
    3   0.0002354   0.0000189   0.0000132  -0.0001051  -0.0000366   0.0001773
            7           8           9          10          11          12
    1  -0.0000902   0.0017288  -0.0024139   0.0010388   0.0001623  -0.0000532
    2   0.0001457  -0.0020468   0.0001105   0.0005814   0.0000228   0.0000929
    3  -0.0000227  -0.0003269   0.0014147  -0.0015198  -0.0000511   0.0000552
           13          14          15          16
    1  -0.0000185   0.0002219   0.0000283  -0.0002028
    2   0.0000564  -0.0002411  -0.0000055  -0.0002216
    3   0.0000081   0.0001717  -0.0000181  -0.0000141
 Max gradient component =       2.414E-03
 RMS gradient           =       6.895E-04
 Gradient time:  CPU 2.10 s  wall 2.08 s
 Geometry Optimization Parameters
   NAtoms,    NIC,     NZ,  NCons,   NDum,   NFix, NCnnct, MaxDiis
       16     111       0       1       0       0       0       0

 Cartesian Hessian Update
 Hessian Updated using BFGS Update


** CONSTRAINED OPTIMIZATION IN DELOCALIZED INTERNAL COORDINATES **
   Searching for a Minimum

   Optimization Cycle:   3

                       Coordinates (Angstroms)
     ATOM                X               Y               Z
      1  S         0.0075492920    0.0800399626    0.0064836493
      2  C         1.7398791566    0.0524801070    0.0035910167
      3  H         2.2847166536    0.0909504924    0.9371435697
      4  C         2.2424271284   -0.0149030923   -1.2701329309
      5  H         3.3032154782   -0.0387921635   -1.4925929609
      6  C         1.2211870029   -0.0347275780   -2.2658571783
      7  H         1.4116710464   -0.0642361147   -3.3327802486
      8  C        -0.0522712079    0.0113424641   -1.7453235907
      9  C        -1.3341869756    0.0352573752   -2.4511311451
     10  C        -2.3216622899    0.9934033916   -2.4147035165
     11  H        -2.2384798617    1.8903158004   -1.8111775737
     12  C        -3.4326527566    0.6956142928   -3.2585388879
     13  H        -4.3004448514    1.3370034851   -3.3632159072
     14  C        -3.2806826127   -0.4855730873   -3.9376326422
     15  H        -3.9587127330   -0.9426270416   -4.6456854479
     16  S        -1.7808341295   -1.2599928838   -3.5463999158
   Point Group: c1    Number of degrees of freedom:    42


   Energy is  -1104.839007280

              Constraints and their Current Values
                                        Value     Constraint
   Dihedral:        6   8   9  10     -120.000     -120.000
 Hessian Updated using BFGS Update

 38 Hessian modes will be used to form the next step
  Hessian Eigenvalues:
     0.013515    0.045000    0.045000    0.045002    0.045003    0.045008
     0.045011    0.045137    0.045799    0.159066    0.159948    0.159992
     0.160000    0.160147    0.163050    0.221283    0.223664    0.237845
     0.249808    0.250095    0.272319    0.294283    0.294794    0.312569
     0.313925    0.354760    0.354874    0.355128    0.355130    0.358266
     0.358580    0.404877    0.409206    0.424859    0.463582    0.495350
     0.497934    0.539874

 Minimum Search - Taking Simple RFO Step
 Searching for Lamda that Minimizes Along All modes
 Value Taken    Lamda =  -0.00003870
 Step Taken.  Stepsize is  0.050194

                             Maximum     Tolerance    Cnvgd?
         Gradient           0.000801      0.000300      NO
         Displacement       0.039251      0.001200      NO
         Energy change     -0.000043      0.000001      NO


 New Cartesian Coordinates Obtained by Inverse Iteration

 Displacement from previous Coordinates is:  0.124750
 ----------------------------------------------------------------
             Standard Nuclear Orientation (Angstroms)
    I     Atom           X                Y                Z
 ----------------------------------------------------------------
    1      S       0.0093735505     0.0902721253     0.0082049688
    2      C       1.7416509699     0.0668576741     0.0019530600
    3      H       2.2896275100     0.1176573956     0.9331292698
    4      C       2.2415167963    -0.0146265066    -1.2719313875
    5      H       3.3018618619    -0.0383541350    -1.4961065299
    6      C       1.2177539647    -0.0481053258    -2.2653274679
    7      H       1.4049193706    -0.0904273492    -3.3323842903
    8      C      -0.0544589964    -0.0011220781    -1.7418006993
    9      C      -1.3381746320     0.0253373344    -2.4444824370
   10      C      -2.3240761935     0.9850320228    -2.4039951466
   11      H      -2.2430121165     1.8746952290    -1.7896033714
   12      C      -3.4313401276     0.6967327082    -3.2567263283
   13      H      -4.2982138627     1.3395180432    -3.3594658024
   14      C      -3.2762886526    -0.4769099113    -3.9479176411
   15      H      -3.9514612644    -0.9247906739    -4.6645863501
   16      S      -1.7789598382    -1.2562111427    -3.5569135567
 ----------------------------------------------------------------
 Nuclear Repulsion Energy =   628.0460543996 hartrees
 There are       43 alpha and       43 beta electrons
 Applying Cartesian multipole field
    Component          Value
    ---------          -----
     (2,0,0)        1.00000E-11
     (0,2,0)        2.00000E-11
     (0,0,2)       -3.00000E-11
 Nucleus-field energy     =    -0.0000000425 hartrees
 Requested basis set is 6-31++G(d,p)
 There are 76 shells and 234 basis functions
 A cutoff of  1.0D-12 yielded   2534 shell pairs
 There are     24998 function pairs

 Q-Chem warning in module /project/projectdirs/jcesr/qchem/qc44/cnl_qc441/compile/cori/qc_src/libqints/qchem/aobasis.C, line 68:

 Using reconstructed effective core potential

 Smallest overlap matrix eigenvalue = 1.10E-06
 Guess MOs from SCF MO coefficient file
 Reading MOs from coefficient file
 Reading MOs from coefficient file
 A restricted hybrid HF-DFT SCF calculation will be
 performed using Pulay DIIS extrapolation
 Exchange:     0.2000 Hartree-Fock + 0.0800 Slater + 0.7200 B88
 Correlation:  0.1900 VWN1RPA + 0.8100 LYP
 Using SG-1 standard quadrature grid
 SCF converges when DIIS error is below 1.0E-08
 Geometry optimization detected.  Setting ReadMinima to 0
 Setting SaveMinima to 0
 ---------------------------------------
  Cycle       Energy         DIIS Error
 ---------------------------------------
    1   -1104.8388109195      4.44E-04
    2   -1104.8390104272      4.81E-05
    3   -1104.8389693523      8.98E-05
    4   -1104.8390327306      1.10E-05
    5   -1104.8390331946      7.85E-06
    6   -1104.8390336208      2.16E-06
    7   -1104.8390336515      6.93E-07
    8   -1104.8390336567      1.33E-07
    9   -1104.8390336579      3.53E-08
   10   -1104.8390336567      1.77E-08
   11   -1104.8390336568      5.32E-09 Convergence criterion met
 ---------------------------------------
 SCF time:  CPU 5.96 s  wall 6.81 s
 SCF   energy in the final basis set = -1104.8390336568
 Total energy in the final basis set = -1104.8390336568
 
 --------------------------------------------------------------
 
                    Orbital Energies (a.u.)
 --------------------------------------------------------------
 
 Alpha MOs
 -- Occupied --
-88.920 -88.920 -10.237 -10.237 -10.224 -10.224 -10.204 -10.204
-10.203 -10.203  -7.979  -7.979  -5.943  -5.943  -5.939  -5.939
 -5.936  -5.936  -0.899  -0.878  -0.769  -0.745  -0.739  -0.705
 -0.601  -0.574  -0.558  -0.534  -0.524  -0.478  -0.417  -0.417
 -0.410  -0.405  -0.396  -0.376  -0.374  -0.354  -0.348  -0.265
 -0.262  -0.259  -0.225
 -- Virtual --
 -0.046  -0.018  -0.006  -0.003   0.007   0.011   0.018   0.022
  0.028   0.036   0.039   0.039   0.045   0.055   0.060   0.063
  0.070   0.076   0.089   0.095   0.103   0.104   0.107   0.109
  0.119   0.122   0.128   0.131   0.133   0.133   0.135   0.143
  0.144   0.152   0.154   0.164   0.165   0.173   0.177   0.180
  0.186   0.189   0.198   0.206   0.211   0.225   0.226   0.231
  0.236   0.240   0.262   0.267   0.275   0.281   0.286   0.287
  0.311   0.318   0.321   0.338   0.356   0.360   0.375   0.389
  0.436   0.461   0.467   0.512   0.523   0.526   0.530   0.572
  0.582   0.596   0.617   0.626   0.651   0.658   0.675   0.681
  0.698   0.714   0.721   0.725   0.738   0.759   0.764   0.777
  0.779   0.805   0.806   0.828   0.835   0.877   0.914   0.940
  0.946   0.950   0.963   0.965   0.968   0.987   0.998   1.014
  1.018   1.028   1.033   1.072   1.091   1.093   1.098   1.114
  1.146   1.181   1.200   1.214   1.259   1.269   1.319   1.349
  1.350   1.353   1.365   1.388   1.459   1.463   1.485   1.542
  1.547   1.689   1.694   1.758   1.795   1.868   1.872   1.885
  1.919   1.923   1.964   1.992   2.003   2.035   2.077   2.098
  2.130   2.136   2.183   2.183   2.220   2.259   2.259   2.337
  2.368   2.368   2.423   2.437   2.465   2.467   2.495   2.505
  2.524   2.524   2.581   2.586   2.601   2.652   2.696   2.707
  2.747   2.847   2.854   2.893   2.930   3.154   3.186   3.269
  3.271   3.403   3.424   3.721   3.742   3.971   3.976   4.267
  4.303   4.318   4.329   4.426   4.536   4.657   4.711
 --------------------------------------------------------------
 
          Ground-State Mulliken Net Atomic Charges

     Atom                 Charge (a.u.)
  ----------------------------------------
      1 S                     0.045156
      2 C                    -0.044350
      3 H                     0.187539
      4 C                    -0.388159
      5 H                     0.116799
      6 C                     0.239083
      7 H                     0.136904
      8 C                    -0.296489
      9 C                    -0.286689
     10 C                     0.232295
     11 H                     0.137037
     12 C                    -0.384807
     13 H                     0.116923
     14 C                    -0.045216
     15 H                     0.187505
     16 S                     0.046469
  ----------------------------------------
  Sum of atomic charges =     0.000000

 -----------------------------------------------------------------
                    Cartesian Multipole Moments
 -----------------------------------------------------------------
    Charge (ESU x 10^10)
                 0.0000
    Dipole Moment (Debye)
         X       0.1552      Y       0.4986      Z      -0.2645
       Tot       0.5854
    Quadrupole Moments (Debye-Ang)
        XX     -63.8940     XY      -1.7143     YY     -74.7401
        XZ       4.6618     YZ       1.0605     ZZ     -68.4715
    Octopole Moments (Debye-Ang^2)
       XXX     147.4415    XXY      12.8434    XYY      43.9418
       YYY      23.9421    XXZ     114.9141    XYZ      -1.5819
       YYZ     148.5646    XZZ      35.5392    YZZ      -4.3095
       ZZZ     430.6105
    Hexadecapole Moments (Debye-Ang^3)
      XXXX   -1670.6593   XXXY     -50.3702   XXYY    -343.8995
      XYYY     -33.1452   YYYY    -297.9817   XXXZ    -616.1976
      XXYZ     -35.1024   XYYZ    -228.7525   YYYZ    -126.0881
      XXZZ    -609.8077   XYZZ      28.8851   YYZZ    -517.0823
      XZZZ    -645.8646   YZZZ     -53.1117   ZZZZ   -2753.3215
 -----------------------------------------------------------------
 Calculating analytic gradient of the SCF energy
 Gradient of SCF Energy
            1           2           3           4           5           6
    1   0.0001772  -0.0004939   0.0001077   0.0003296  -0.0000079  -0.0004331
    2  -0.0000769  -0.0001847   0.0000793  -0.0000116   0.0000294   0.0022725
    3  -0.0000818   0.0000609  -0.0000237   0.0001793   0.0000229  -0.0000028
            7           8           9          10          11          12
    1  -0.0001812   0.0020374  -0.0029454   0.0014318   0.0001880  -0.0003693
    2   0.0000186  -0.0027226  -0.0000530   0.0008748  -0.0000762  -0.0000285
    3  -0.0000260  -0.0003630   0.0018003  -0.0016796   0.0000774  -0.0001767
           13          14          15          16
    1   0.0000139   0.0003305  -0.0000586  -0.0001265
    2  -0.0000058  -0.0003359   0.0000983   0.0001222
    3  -0.0000267   0.0002095  -0.0000608   0.0000908
 Max gradient component =       2.945E-03
 RMS gradient           =       8.619E-04
 Gradient time:  CPU 2.13 s  wall 2.09 s
 Geometry Optimization Parameters
   NAtoms,    NIC,     NZ,  NCons,   NDum,   NFix, NCnnct, MaxDiis
       16     111       0       1       0       0       0       0

 Cartesian Hessian Update
 Hessian Updated using BFGS Update


** CONSTRAINED OPTIMIZATION IN DELOCALIZED INTERNAL COORDINATES **
   Searching for a Minimum

   Optimization Cycle:   4

                       Coordinates (Angstroms)
     ATOM                X               Y               Z
      1  S         0.0093735505    0.0902721253    0.0082049688
      2  C         1.7416509699    0.0668576741    0.0019530600
      3  H         2.2896275100    0.1176573956    0.9331292698
      4  C         2.2415167963   -0.0146265066   -1.2719313875
      5  H         3.3018618619   -0.0383541350   -1.4961065299
      6  C         1.2177539647   -0.0481053258   -2.2653274679
      7  H         1.4049193706   -0.0904273492   -3.3323842903
      8  C        -0.0544589964   -0.0011220781   -1.7418006993
      9  C        -1.3381746320    0.0253373344   -2.4444824370
     10  C        -2.3240761935    0.9850320228   -2.4039951466
     11  H        -2.2430121165    1.8746952290   -1.7896033714
     12  C        -3.4313401276    0.6967327082   -3.2567263283
     13  H        -4.2982138627    1.3395180432   -3.3594658024
     14  C        -3.2762886526   -0.4769099113   -3.9479176411
     15  H        -3.9514612644   -0.9247906739   -4.6645863501
     16  S        -1.7789598382   -1.2562111427   -3.5569135567
   Point Group: c1    Number of degrees of freedom:    42


   Energy is  -1104.839033657

              Constraints and their Current Values
                                        Value     Constraint
   Dihedral:        6   8   9  10     -120.000     -120.000
 Hessian Updated using BFGS Update

 41 Hessian modes will be used to form the next step
  Hessian Eigenvalues:
     0.008942    0.045000    0.045000    0.045000    0.045001    0.045002
     0.045003    0.045004    0.045008    0.045013    0.045426    0.045590
     0.159944    0.159992    0.159999    0.160145    0.160702    0.164520
     0.221282    0.223502    0.237847    0.249883    0.250034    0.270014
     0.294485    0.299419    0.312575    0.314134    0.354758    0.354871
     0.355130    0.355350    0.358268    0.358604    0.404884    0.408600
     0.426099    0.463602    0.489392    0.497936    0.508888

 Minimum Search - Taking Simple RFO Step
 Searching for Lamda that Minimizes Along All modes
 Value Taken    Lamda =  -0.00001875
 Step Taken.  Stepsize is  0.036565

                             Maximum     Tolerance    Cnvgd?
         Gradient           0.000910      0.000300      NO
         Displacement       0.028466      0.001200      NO
         Energy change     -0.000026      0.000001      NO


 New Cartesian Coordinates Obtained by Inverse Iteration

 Displacement from previous Coordinates is:  0.090238
 ----------------------------------------------------------------
             Standard Nuclear Orientation (Angstroms)
    I     Atom           X                Y                Z
 ----------------------------------------------------------------
    1      S       0.0103480638     0.0974745453     0.0098273691
    2      C       1.7429509276     0.0776205699     0.0002444679
    3      H       2.2925407526     0.1364442573     0.9299436862
    4      C       2.2401321520    -0.0142987825    -1.2739397589
    5      H       3.3000708646    -0.0382174076    -1.5000709568
    6      C       1.2148670741    -0.0579732142    -2.2649782411
    7      H       1.4010354154    -0.1091463239    -3.3318180425
    8      C      -0.0569208020    -0.0102781658    -1.7390836667
    9      C      -1.3405761684     0.0178865218    -2.4387907758
   10      C      -2.3259553247     0.9788143680    -2.3957513926
   11      H      -2.2479699213     1.8640860101    -1.7746817765
   12      C      -3.4295008925     0.6977571742    -3.2551836737
   13      H      -4.2955850839     1.3418690187    -3.3563647242
   14      C      -3.2724664135    -0.4702112040    -3.9553916126
   15      H      -3.9450622798    -0.9124031450    -4.6779265318
   16      S      -1.7771900240    -1.2538688123    -3.5639880799
 ----------------------------------------------------------------
 Nuclear Repulsion Energy =   628.0766565759 hartrees
 There are       43 alpha and       43 beta electrons
 Applying Cartesian multipole field
    Component          Value
    ---------          -----
     (2,0,0)        1.00000E-11
     (0,2,0)        2.00000E-11
     (0,0,2)       -3.00000E-11
 Nucleus-field energy     =    -0.0000000426 hartrees
 Requested basis set is 6-31++G(d,p)
 There are 76 shells and 234 basis functions
 A cutoff of  1.0D-12 yielded   2534 shell pairs
 There are     24998 function pairs

 Q-Chem warning in module /project/projectdirs/jcesr/qchem/qc44/cnl_qc441/compile/cori/qc_src/libqints/qchem/aobasis.C, line 68:

 Using reconstructed effective core potential

 Smallest overlap matrix eigenvalue = 1.08E-06
 Guess MOs from SCF MO coefficient file
 Reading MOs from coefficient file
 Reading MOs from coefficient file
 A restricted hybrid HF-DFT SCF calculation will be
 performed using Pulay DIIS extrapolation
 Exchange:     0.2000 Hartree-Fock + 0.0800 Slater + 0.7200 B88
 Correlation:  0.1900 VWN1RPA + 0.8100 LYP
 Using SG-1 standard quadrature grid
 SCF converges when DIIS error is below 1.0E-08
 Geometry optimization detected.  Setting ReadMinima to 0
 Setting SaveMinima to 0
 ---------------------------------------
  Cycle       Energy         DIIS Error
 ---------------------------------------
    1   -1104.8382894559      3.47E-04
    2   -1104.8390342877      3.24E-05
    3   -1104.8390134890      6.30E-05
    4   -1104.8390446512      7.71E-06
    5   -1104.8390448563      5.85E-06
    6   -1104.8390450989      1.25E-06
    7   -1104.8390451075      4.63E-07
    8   -1104.8390451112      7.44E-08
    9   -1104.8390451115      2.32E-08
   10   -1104.8390451107      8.26E-09 Convergence criterion met
 ---------------------------------------
 SCF time:  CPU 5.59 s  wall 5.19 s
 SCF   energy in the final basis set = -1104.8390451107
 Total energy in the final basis set = -1104.8390451107
 
 --------------------------------------------------------------
 
                    Orbital Energies (a.u.)
 --------------------------------------------------------------
 
 Alpha MOs
 -- Occupied --
-88.920 -88.920 -10.237 -10.237 -10.224 -10.224 -10.204 -10.204
-10.203 -10.203  -7.979  -7.979  -5.943  -5.943  -5.939  -5.939
 -5.936  -5.936  -0.899  -0.878  -0.769  -0.745  -0.739  -0.705
 -0.601  -0.574  -0.558  -0.534  -0.524  -0.478  -0.418  -0.417
 -0.410  -0.405  -0.396  -0.376  -0.374  -0.354  -0.348  -0.265
 -0.262  -0.259  -0.225
 -- Virtual --
 -0.046  -0.017  -0.006  -0.003   0.006   0.011   0.018   0.022
  0.028   0.035   0.039   0.039   0.045   0.055   0.060   0.062
  0.070   0.076   0.090   0.095   0.103   0.105   0.106   0.109
  0.119   0.122   0.128   0.131   0.133   0.133   0.135   0.143
  0.145   0.152   0.154   0.165   0.165   0.172   0.178   0.180
  0.187   0.190   0.198   0.206   0.211   0.226   0.226   0.231
  0.236   0.240   0.262   0.267   0.275   0.282   0.286   0.287
  0.311   0.318   0.321   0.338   0.356   0.360   0.375   0.389
  0.436   0.461   0.467   0.513   0.524   0.525   0.531   0.571
  0.582   0.596   0.617   0.625   0.652   0.658   0.675   0.680
  0.698   0.714   0.721   0.725   0.738   0.760   0.764   0.777
  0.780   0.806   0.806   0.828   0.835   0.876   0.915   0.939
  0.947   0.950   0.963   0.965   0.967   0.988   0.998   1.013
  1.018   1.028   1.033   1.072   1.091   1.093   1.097   1.114
  1.147   1.181   1.201   1.214   1.259   1.268   1.319   1.349
  1.349   1.353   1.365   1.389   1.458   1.463   1.486   1.544
  1.545   1.688   1.694   1.757   1.794   1.868   1.872   1.885
  1.920   1.923   1.963   1.991   2.003   2.036   2.078   2.098
  2.130   2.136   2.182   2.183   2.220   2.258   2.259   2.338
  2.368   2.368   2.423   2.438   2.464   2.467   2.496   2.505
  2.524   2.524   2.581   2.586   2.602   2.652   2.696   2.706
  2.747   2.847   2.854   2.893   2.930   3.154   3.186   3.269
  3.271   3.404   3.424   3.721   3.742   3.972   3.976   4.267
  4.304   4.317   4.329   4.425   4.536   4.657   4.711
 --------------------------------------------------------------
 
          Ground-State Mulliken Net Atomic Charges

     Atom                 Charge (a.u.)
  ----------------------------------------
      1 S                     0.043542
      2 C                    -0.042491
      3 H                     0.187614
      4 C                    -0.389186
      5 H                     0.116612
      6 C                     0.237049
      7 H                     0.136986
      8 C                    -0.294280
      9 C                    -0.283723
     10 C                     0.230781
     11 H                     0.137147
     12 C                    -0.386184
     13 H                     0.116722
     14 C                    -0.042970
     15 H                     0.187599
     16 S                     0.044782
  ----------------------------------------
  Sum of atomic charges =     0.000000

 -----------------------------------------------------------------
                    Cartesian Multipole Moments
 -----------------------------------------------------------------
    Charge (ESU x 10^10)
                 0.0000
    Dipole Moment (Debye)
         X       0.1577      Y       0.5062      Z      -0.2684
       Tot       0.5943
    Quadrupole Moments (Debye-Ang)
        XX     -63.9180     XY      -1.7368     YY     -74.7727
        XZ       4.6558     YZ       1.1014     ZZ     -68.4182
    Octopole Moments (Debye-Ang^2)
       XXX     147.5902    XXY      13.0059    XYY      44.0528
       YYY      23.7710    XXZ     115.0353    XYZ      -1.3972
       YYZ     148.7444    XZZ      35.3593    YZZ      -4.4307
       ZZZ     430.1482
    Hexadecapole Moments (Debye-Ang^3)
      XXXX   -1670.1549   XXXY     -50.8182   XXYY    -343.7831
      XYYY     -33.0400   YYYY    -297.2765   XXXZ    -616.8945
      XXYZ     -35.8540   XYYZ    -229.2631   YYYZ    -127.3027
      XXZZ    -609.8204   XYZZ      28.5447   YYZZ    -517.9161
      XZZZ    -644.0031   YZZZ     -53.5366   ZZZZ   -2752.7838
 -----------------------------------------------------------------
 Calculating analytic gradient of the SCF energy
 Gradient of SCF Energy
            1           2           3           4           5           6
    1   0.0000344  -0.0003221   0.0000859   0.0001827  -0.0000102  -0.0001077
    2  -0.0000048  -0.0001320   0.0000719  -0.0000078   0.0000273   0.0025426
    3  -0.0000869   0.0000358  -0.0000399   0.0000995   0.0000198  -0.0001267
            7           8           9          10          11          12
    1  -0.0000814   0.0011666  -0.0022658   0.0012744   0.0000529  -0.0001968
    2  -0.0000548  -0.0031656  -0.0003729   0.0012262  -0.0000696  -0.0000254
    3  -0.0000093  -0.0006969   0.0025156  -0.0018534   0.0000850  -0.0000939
           13          14          15          16
    1   0.0000147   0.0001986  -0.0000342   0.0000081
    2  -0.0000090  -0.0002204   0.0000972   0.0000971
    3  -0.0000270   0.0001518  -0.0000479   0.0000746
 Max gradient component =       3.166E-03
 RMS gradient           =       8.771E-04
 Gradient time:  CPU 2.06 s  wall 2.06 s
 Geometry Optimization Parameters
   NAtoms,    NIC,     NZ,  NCons,   NDum,   NFix, NCnnct, MaxDiis
       16     111       0       1       0       0       0       0

 Cartesian Hessian Update
 Hessian Updated using BFGS Update


** CONSTRAINED OPTIMIZATION IN DELOCALIZED INTERNAL COORDINATES **
   Searching for a Minimum

   Optimization Cycle:   5

                       Coordinates (Angstroms)
     ATOM                X               Y               Z
      1  S         0.0103480638    0.0974745453    0.0098273691
      2  C         1.7429509276    0.0776205699    0.0002444679
      3  H         2.2925407526    0.1364442573    0.9299436862
      4  C         2.2401321520   -0.0142987825   -1.2739397589
      5  H         3.3000708646   -0.0382174076   -1.5000709568
      6  C         1.2148670741   -0.0579732142   -2.2649782411
      7  H         1.4010354154   -0.1091463239   -3.3318180425
      8  C        -0.0569208020   -0.0102781658   -1.7390836667
      9  C        -1.3405761684    0.0178865218   -2.4387907758
     10  C        -2.3259553247    0.9788143680   -2.3957513926
     11  H        -2.2479699213    1.8640860101   -1.7746817765
     12  C        -3.4295008925    0.6977571742   -3.2551836737
     13  H        -4.2955850839    1.3418690187   -3.3563647242
     14  C        -3.2724664135   -0.4702112040   -3.9553916126
     15  H        -3.9450622798   -0.9124031450   -4.6779265318
     16  S        -1.7771900240   -1.2538688123   -3.5639880799
   Point Group: c1    Number of degrees of freedom:    42


   Energy is  -1104.839045111

              Constraints and their Current Values
                                        Value     Constraint
   Dihedral:        6   8   9  10     -120.000     -120.000
 Hessian Updated using BFGS Update

 41 Hessian modes will be used to form the next step
  Hessian Eigenvalues:
     0.008860    0.044372    0.045000    0.045000    0.045000    0.045001
     0.045002    0.045004    0.045008    0.045010    0.045031    0.045729
     0.155446    0.159945    0.159992    0.159999    0.160218    0.161212
     0.221286    0.223933    0.237821    0.249519    0.249927    0.262502
     0.293311    0.294693    0.312561    0.313645    0.354748    0.354859
     0.355130    0.355260    0.358268    0.358596    0.395358    0.404886
     0.415937    0.463526    0.469165    0.497935    0.498821

 Minimum Search - Taking Simple RFO Step
 Searching for Lamda that Minimizes Along All modes
 Value Taken    Lamda =  -0.00000300
 Step Taken.  Stepsize is  0.008742

                             Maximum     Tolerance    Cnvgd?
         Gradient           0.000424      0.000300      NO
         Displacement       0.005263      0.001200      NO
         Energy change     -0.000011      0.000001      NO


 New Cartesian Coordinates Obtained by Inverse Iteration

 Displacement from previous Coordinates is:  0.017322
 ----------------------------------------------------------------
             Standard Nuclear Orientation (Angstroms)
    I     Atom           X                Y                Z
 ----------------------------------------------------------------
    1      S       0.0109021088     0.0988916153     0.0104000149
    2      C       1.7437490058     0.0799751427    -0.0000527868
    3      H       2.2932483076     0.1395989485     0.9296215870
    4      C       2.2398682879    -0.0142148636    -1.2744366589
    5      H       3.2996573517    -0.0384767947    -1.5013501211
    6      C       1.2142251279    -0.0599797327    -2.2646967518
    7      H       1.4006982858    -0.1124001580    -3.3314205072
    8      C      -0.0577007301    -0.0120522741    -1.7384675302
    9      C      -1.3409381654     0.0164220429    -2.4372501536
   10      C      -2.3265918479     0.9774311627    -2.3940715217
   11      H      -2.2496799057     1.8623910559    -1.7724275944
   12      C      -3.4291088510     0.6980141792    -3.2549971164
   13      H      -4.2950250938     1.3424691600    -3.3556673833
   14      C      -3.2718294477    -0.4686456972    -3.9572483498
   15      H      -3.9437420009    -0.9104995175    -4.6805905166
   16      S      -1.7770140927    -1.2533688593    -3.5652983200
 ----------------------------------------------------------------
 Nuclear Repulsion Energy =   628.0610062228 hartrees
 There are       43 alpha and       43 beta electrons
 Applying Cartesian multipole field
    Component          Value
    ---------          -----
     (2,0,0)        1.00000E-11
     (0,2,0)        2.00000E-11
     (0,0,2)       -3.00000E-11
 Nucleus-field energy     =    -0.0000000427 hartrees
 Requested basis set is 6-31++G(d,p)
 There are 76 shells and 234 basis functions
 A cutoff of  1.0D-12 yielded   2534 shell pairs
 There are     24998 function pairs

 Q-Chem warning in module /project/projectdirs/jcesr/qchem/qc44/cnl_qc441/compile/cori/qc_src/libqints/qchem/aobasis.C, line 68:

 Using reconstructed effective core potential

 Smallest overlap matrix eigenvalue = 1.08E-06
 Guess MOs from SCF MO coefficient file
 Reading MOs from coefficient file
 Reading MOs from coefficient file
 A restricted hybrid HF-DFT SCF calculation will be
 performed using Pulay DIIS extrapolation
 Exchange:     0.2000 Hartree-Fock + 0.0800 Slater + 0.7200 B88
 Correlation:  0.1900 VWN1RPA + 0.8100 LYP
 Using SG-1 standard quadrature grid
 SCF converges when DIIS error is below 1.0E-08
 Geometry optimization detected.  Setting ReadMinima to 0
 Setting SaveMinima to 0
 ---------------------------------------
  Cycle       Energy         DIIS Error
 ---------------------------------------
    1   -1104.8385779187      8.58E-05
    2   -1104.8390465056      6.33E-06
    3   -1104.8390461073      1.02E-05
    4   -1104.8390468640      2.48E-06
    5   -1104.8390469024      1.04E-06
    6   -1104.8390469082      3.44E-07
    7   -1104.8390469093      1.22E-07
    8   -1104.8390469097      2.91E-08
    9   -1104.8390469080      6.80E-09 Convergence criterion met
 ---------------------------------------
 SCF time:  CPU 4.98 s  wall 5.04 s
 SCF   energy in the final basis set = -1104.8390469080
 Total energy in the final basis set = -1104.8390469080
 
 --------------------------------------------------------------
 
                    Orbital Energies (a.u.)
 --------------------------------------------------------------
 
 Alpha MOs
 -- Occupied --
-88.920 -88.920 -10.237 -10.237 -10.224 -10.224 -10.204 -10.204
-10.203 -10.203  -7.979  -7.979  -5.943  -5.943  -5.939  -5.939
 -5.936  -5.936  -0.899  -0.878  -0.769  -0.745  -0.739  -0.705
 -0.602  -0.574  -0.558  -0.534  -0.524  -0.478  -0.418  -0.417
 -0.410  -0.405  -0.396  -0.376  -0.374  -0.354  -0.347  -0.265
 -0.262  -0.259  -0.225
 -- Virtual --
 -0.046  -0.017  -0.006  -0.003   0.006   0.011   0.018   0.022
  0.028   0.035   0.039   0.039   0.045   0.055   0.060   0.062
  0.070   0.076   0.090   0.095   0.103   0.105   0.106   0.109
  0.119   0.122   0.128   0.131   0.133   0.133   0.135   0.142
  0.145   0.152   0.155   0.164   0.165   0.172   0.178   0.180
  0.187   0.190   0.198   0.206   0.210   0.226   0.227   0.231
  0.236   0.240   0.262   0.267   0.275   0.282   0.286   0.286
  0.311   0.318   0.321   0.338   0.356   0.360   0.375   0.389
  0.436   0.461   0.467   0.513   0.524   0.525   0.531   0.571
  0.582   0.596   0.616   0.625   0.652   0.658   0.675   0.680
  0.698   0.714   0.721   0.725   0.738   0.760   0.764   0.777
  0.780   0.806   0.806   0.828   0.835   0.876   0.915   0.939
  0.947   0.950   0.963   0.965   0.967   0.988   0.998   1.013
  1.019   1.028   1.033   1.072   1.091   1.093   1.097   1.114
  1.147   1.181   1.201   1.213   1.259   1.268   1.319   1.349
  1.349   1.353   1.365   1.389   1.458   1.463   1.486   1.545
  1.545   1.688   1.694   1.757   1.794   1.868   1.872   1.885
  1.920   1.923   1.963   1.991   2.003   2.036   2.078   2.098
  2.130   2.136   2.182   2.183   2.220   2.258   2.259   2.338
  2.368   2.368   2.423   2.438   2.464   2.467   2.496   2.505
  2.524   2.524   2.582   2.587   2.602   2.652   2.696   2.706
  2.748   2.847   2.853   2.894   2.930   3.154   3.186   3.269
  3.271   3.404   3.424   3.721   3.742   3.972   3.976   4.267
  4.304   4.316   4.328   4.425   4.536   4.657   4.711
 --------------------------------------------------------------
 
          Ground-State Mulliken Net Atomic Charges

     Atom                 Charge (a.u.)
  ----------------------------------------
      1 S                     0.043141
      2 C                    -0.042096
      3 H                     0.187693
      4 C                    -0.389157
      5 H                     0.116592
      6 C                     0.236074
      7 H                     0.136989
      8 C                    -0.293053
      9 C                    -0.283350
     10 C                     0.230253
     11 H                     0.137149
     12 C                    -0.386411
     13 H                     0.116689
     14 C                    -0.042470
     15 H                     0.187687
     16 S                     0.044269
  ----------------------------------------
  Sum of atomic charges =     0.000000

 -----------------------------------------------------------------
                    Cartesian Multipole Moments
 -----------------------------------------------------------------
    Charge (ESU x 10^10)
                 0.0000
    Dipole Moment (Debye)
         X       0.1582      Y       0.5074      Z      -0.2693
       Tot       0.5959
    Quadrupole Moments (Debye-Ang)
        XX     -63.9159     XY      -1.7426     YY     -74.7793
        XZ       4.6581     YZ       1.1058     ZZ     -68.4099
    Octopole Moments (Debye-Ang^2)
       XXX     147.5916    XXY      13.0211    XYY      44.0666
       YYY      23.7367    XXZ     115.0350    XYZ      -1.3688
       YYZ     148.7716    XZZ      35.3202    YZZ      -4.4500
       ZZZ     430.0674
    Hexadecapole Moments (Debye-Ang^3)
      XXXX   -1670.1382   XXXY     -50.8812   XXYY    -343.7579
      XYYY     -33.0315   YYYY    -297.1343   XXXZ    -617.0302
      XXYZ     -35.9530   XYYZ    -229.3590   YYYZ    -127.5462
      XXZZ    -609.7817   XYZZ      28.5233   YYZZ    -518.0700
      XZZZ    -643.6892   YZZZ     -53.6111   ZZZZ   -2752.8139
 -----------------------------------------------------------------
 Calculating analytic gradient of the SCF energy
 Gradient of SCF Energy
            1           2           3           4           5           6
    1   0.0000094  -0.0000739   0.0000313   0.0000351  -0.0000014   0.0000661
    2  -0.0000039  -0.0000646   0.0000442  -0.0000033   0.0000184   0.0025510
    3  -0.0000612   0.0000321  -0.0000164   0.0000301   0.0000162  -0.0000829
            7           8           9          10          11          12
    1  -0.0000118   0.0005476  -0.0016864   0.0011078  -0.0000150  -0.0000397
    2  -0.0000451  -0.0032386  -0.0004528   0.0012472  -0.0000389  -0.0000206
    3   0.0000083  -0.0009673   0.0028969  -0.0019220   0.0000389  -0.0000161
           13          14          15          16
    1   0.0000042   0.0000192  -0.0000019   0.0000093
    2  -0.0000080  -0.0000863   0.0000431   0.0000582
    3  -0.0000226   0.0000488  -0.0000310   0.0000481
 Max gradient component =       3.239E-03
 RMS gradient           =       8.685E-04
 Gradient time:  CPU 2.07 s  wall 2.07 s
 Geometry Optimization Parameters
   NAtoms,    NIC,     NZ,  NCons,   NDum,   NFix, NCnnct, MaxDiis
       16     111       0       1       0       0       0       0

 Cartesian Hessian Update
 Hessian Updated using BFGS Update


** CONSTRAINED OPTIMIZATION IN DELOCALIZED INTERNAL COORDINATES **
   Searching for a Minimum

   Optimization Cycle:   6

                       Coordinates (Angstroms)
     ATOM                X               Y               Z
      1  S         0.0109021088    0.0988916153    0.0104000149
      2  C         1.7437490058    0.0799751427   -0.0000527868
      3  H         2.2932483076    0.1395989485    0.9296215870
      4  C         2.2398682879   -0.0142148636   -1.2744366589
      5  H         3.2996573517   -0.0384767947   -1.5013501211
      6  C         1.2142251279   -0.0599797327   -2.2646967518
      7  H         1.4006982858   -0.1124001580   -3.3314205072
      8  C        -0.0577007301   -0.0120522741   -1.7384675302
      9  C        -1.3409381654    0.0164220429   -2.4372501536
     10  C        -2.3265918479    0.9774311627   -2.3940715217
     11  H        -2.2496799057    1.8623910559   -1.7724275944
     12  C        -3.4291088510    0.6980141792   -3.2549971164
     13  H        -4.2950250938    1.3424691600   -3.3556673833
     14  C        -3.2718294477   -0.4686456972   -3.9572483498
     15  H        -3.9437420009   -0.9104995175   -4.6805905166
     16  S        -1.7770140927   -1.2533688593   -3.5652983200
   Point Group: c1    Number of degrees of freedom:    42


   Energy is  -1104.839046908

              Constraints and their Current Values
                                        Value     Constraint
   Dihedral:        6   8   9  10     -120.000     -120.000
 Hessian Updated using BFGS Update

 41 Hessian modes will be used to form the next step
  Hessian Eigenvalues:
     0.009391    0.036443    0.045000    0.045000    0.045001    0.045001
     0.045002    0.045004    0.045008    0.045010    0.045042    0.045693
     0.143087    0.159945    0.159992    0.160000    0.160215    0.161914
     0.221277    0.223687    0.237807    0.247383    0.249911    0.263621
     0.286300    0.294555    0.312558    0.313530    0.354776    0.354921
     0.355130    0.355244    0.358268    0.358611    0.398716    0.404886
     0.414092    0.463518    0.479320    0.497937    0.499416

 Minimum Search - Taking Simple RFO Step
 Searching for Lamda that Minimizes Along All modes
 Value Taken    Lamda =   0.00000000
 Step Taken.  Stepsize is  0.002904

                             Maximum     Tolerance    Cnvgd?
         Gradient           0.000105      0.000300     YES
         Displacement       0.001887      0.001200      NO
         Energy change     -0.000002      0.000001      NO


 New Cartesian Coordinates Obtained by Inverse Iteration

 Displacement from previous Coordinates is:  0.002688
 ----------------------------------------------------------------
             Standard Nuclear Orientation (Angstroms)
    I     Atom           X                Y                Z
 ----------------------------------------------------------------
    1      S       0.0109894658     0.0989187641     0.0105610320
    2      C       1.7439027481     0.0800233633    -0.0000604248
    3      H       2.2931352671     0.1389540352     0.9298075526
    4      C       2.2398434737    -0.0142141402    -1.2745065542
    5      H       3.2995926824    -0.0387060001    -1.5016163003
    6      C       1.2141771552    -0.0599195735    -2.2646371202
    7      H       1.4008210662    -0.1118125528    -3.3313664764
    8      C      -0.0577905311    -0.0119248262    -1.7384350807
    9      C      -1.3409085699     0.0165205083    -2.4370802731
   10      C      -2.3266861063     0.9774389025    -2.3940821721
   11      H      -2.2498083693     1.8628022052    -1.7729873041
   12      C      -3.4290710201     0.6980384904    -3.2550568511
   13      H      -4.2950246294     1.3424783159    -3.3555735316
   14      C      -3.2717763173    -0.4685859619    -3.9573613650
   15      H      -3.9436858953    -0.9110533085    -4.6803218775
   16      S      -1.7769920801    -1.2534028117    -3.5652369634
 ----------------------------------------------------------------
 Nuclear Repulsion Energy =   628.0518267786 hartrees
 There are       43 alpha and       43 beta electrons
 Applying Cartesian multipole field
    Component          Value
    ---------          -----
     (2,0,0)        1.00000E-11
     (0,2,0)        2.00000E-11
     (0,0,2)       -3.00000E-11
 Nucleus-field energy     =    -0.0000000427 hartrees
 Requested basis set is 6-31++G(d,p)
 There are 76 shells and 234 basis functions
 A cutoff of  1.0D-12 yielded   2534 shell pairs
 There are     24998 function pairs

 Q-Chem warning in module /project/projectdirs/jcesr/qchem/qc44/cnl_qc441/compile/cori/qc_src/libqints/qchem/aobasis.C, line 68:

 Using reconstructed effective core potential

 Smallest overlap matrix eigenvalue = 1.08E-06
 Guess MOs from SCF MO coefficient file
 Reading MOs from coefficient file
 Reading MOs from coefficient file
 A restricted hybrid HF-DFT SCF calculation will be
 performed using Pulay DIIS extrapolation
 Exchange:     0.2000 Hartree-Fock + 0.0800 Slater + 0.7200 B88
 Correlation:  0.1900 VWN1RPA + 0.8100 LYP
 Using SG-1 standard quadrature grid
 SCF converges when DIIS error is below 1.0E-08
 Geometry optimization detected.  Setting ReadMinima to 0
 Setting SaveMinima to 0
 ---------------------------------------
  Cycle       Energy         DIIS Error
 ---------------------------------------
    1   -1104.8389187950      1.10E-05
    2   -1104.8390471153      2.04E-06
    3   -1104.8390470755      3.03E-06
    4   -1104.8390471488      5.62E-07
    5   -1104.8390471494      1.58E-07
    6   -1104.8390471500      8.85E-08
    7   -1104.8390471512      2.29E-08
    8   -1104.8390471506      8.46E-09 Convergence criterion met
 ---------------------------------------
 SCF time:  CPU 4.39 s  wall 4.09 s
 SCF   energy in the final basis set = -1104.8390471506
 Total energy in the final basis set = -1104.8390471506
 
 --------------------------------------------------------------
 
                    Orbital Energies (a.u.)
 --------------------------------------------------------------
 
 Alpha MOs
 -- Occupied --
-88.920 -88.920 -10.237 -10.237 -10.224 -10.224 -10.204 -10.204
-10.203 -10.203  -7.979  -7.979  -5.943  -5.943  -5.939  -5.939
 -5.936  -5.936  -0.899  -0.878  -0.769  -0.745  -0.739  -0.705
 -0.602  -0.574  -0.558  -0.534  -0.524  -0.478  -0.418  -0.417
 -0.410  -0.405  -0.396  -0.376  -0.374  -0.354  -0.347  -0.265
 -0.262  -0.259  -0.225
 -- Virtual --
 -0.046  -0.017  -0.006  -0.003   0.006   0.011   0.018   0.022
  0.028   0.035   0.039   0.039   0.045   0.055   0.060   0.062
  0.070   0.076   0.090   0.095   0.103   0.105   0.106   0.109
  0.119   0.122   0.128   0.131   0.133   0.133   0.135   0.142
  0.145   0.152   0.155   0.164   0.165   0.172   0.178   0.180
  0.187   0.190   0.198   0.206   0.211   0.226   0.227   0.231
  0.236   0.240   0.262   0.267   0.275   0.282   0.286   0.286
  0.311   0.318   0.321   0.338   0.356   0.360   0.375   0.389
  0.436   0.461   0.467   0.513   0.524   0.525   0.531   0.571
  0.582   0.596   0.616   0.625   0.652   0.658   0.675   0.680
  0.698   0.714   0.721   0.725   0.738   0.760   0.764   0.777
  0.780   0.806   0.806   0.828   0.835   0.876   0.915   0.939
  0.947   0.950   0.963   0.965   0.967   0.988   0.998   1.013
  1.019   1.028   1.033   1.072   1.091   1.093   1.097   1.114
  1.147   1.181   1.201   1.213   1.259   1.268   1.318   1.349
  1.349   1.353   1.365   1.389   1.458   1.463   1.486   1.544
  1.545   1.688   1.694   1.757   1.795   1.867   1.872   1.885
  1.920   1.922   1.963   1.992   2.003   2.036   2.078   2.098
  2.130   2.136   2.182   2.183   2.220   2.258   2.259   2.338
  2.368   2.368   2.423   2.438   2.465   2.467   2.496   2.505
  2.524   2.524   2.582   2.587   2.602   2.652   2.696   2.706
  2.748   2.847   2.853   2.893   2.931   3.154   3.186   3.269
  3.271   3.404   3.424   3.721   3.742   3.972   3.976   4.268
  4.304   4.316   4.328   4.426   4.536   4.657   4.711
 --------------------------------------------------------------
 
          Ground-State Mulliken Net Atomic Charges

     Atom                 Charge (a.u.)
  ----------------------------------------
      1 S                     0.043169
      2 C                    -0.042194
      3 H                     0.187717
      4 C                    -0.388990
      5 H                     0.116600
      6 C                     0.235841
      7 H                     0.136997
      8 C                    -0.292609
      9 C                    -0.283595
     10 C                     0.230178
     11 H                     0.137152
     12 C                    -0.386328
     13 H                     0.116691
     14 C                    -0.042589
     15 H                     0.187711
     16 S                     0.044248
  ----------------------------------------
  Sum of atomic charges =     0.000000

 -----------------------------------------------------------------
                    Cartesian Multipole Moments
 -----------------------------------------------------------------
    Charge (ESU x 10^10)
                 0.0000
    Dipole Moment (Debye)
         X       0.1581      Y       0.5070      Z      -0.2692
       Tot       0.5954
    Quadrupole Moments (Debye-Ang)
        XX     -63.9143     XY      -1.7432     YY     -74.7779
        XZ       4.6577     YZ       1.1038     ZZ     -68.4125
    Octopole Moments (Debye-Ang^2)
       XXX     147.5754    XXY      13.0056    XYY      44.0585
       YYY      23.7336    XXZ     115.0293    XYZ      -1.3780
       YYZ     148.7615    XZZ      35.3327    YZZ      -4.4513
       ZZZ     430.0886
    Hexadecapole Moments (Debye-Ang^3)
      XXXX   -1670.0992   XXXY     -50.8579   XXYY    -343.7373
      XYYY     -33.0326   YYYY    -297.1405   XXXZ    -617.0308
      XXYZ     -35.9166   XYYZ    -229.3333   YYYZ    -127.5379
      XXZZ    -609.8036   XYZZ      28.5645   YYZZ    -518.0450
      XZZZ    -643.7843   YZZZ     -53.5898   ZZZZ   -2752.9808
 -----------------------------------------------------------------
 Calculating analytic gradient of the SCF energy
 Gradient of SCF Energy
            1           2           3           4           5           6
    1  -0.0000040  -0.0000015  -0.0000017  -0.0000151   0.0000001   0.0001045
    2  -0.0000028  -0.0000279   0.0000238  -0.0000004   0.0000128   0.0025119
    3  -0.0000075   0.0000170   0.0000002  -0.0000115   0.0000078  -0.0000445
            7           8           9          10          11          12
    1   0.0000087   0.0004341  -0.0015682   0.0010496  -0.0000235   0.0000150
    2  -0.0000232  -0.0032334  -0.0004256   0.0012037  -0.0000143  -0.0000030
    3   0.0000057  -0.0010517   0.0029871  -0.0019267   0.0000153   0.0000180
           13          14          15          16
    1   0.0000021  -0.0000182   0.0000138   0.0000042
    2  -0.0000039  -0.0000300   0.0000072   0.0000050
    3  -0.0000134   0.0000136  -0.0000185   0.0000092
 Max gradient component =       3.233E-03
 RMS gradient           =       8.649E-04
 Gradient time:  CPU 2.06 s  wall 2.06 s
 Geometry Optimization Parameters
   NAtoms,    NIC,     NZ,  NCons,   NDum,   NFix, NCnnct, MaxDiis
       16     111       0       1       0       0       0       0

 Cartesian Hessian Update
 Hessian Updated using BFGS Update


** CONSTRAINED OPTIMIZATION IN DELOCALIZED INTERNAL COORDINATES **
   Searching for a Minimum

   Optimization Cycle:   7

                       Coordinates (Angstroms)
     ATOM                X               Y               Z
      1  S         0.0109894658    0.0989187641    0.0105610320
      2  C         1.7439027481    0.0800233633   -0.0000604248
      3  H         2.2931352671    0.1389540352    0.9298075526
      4  C         2.2398434737   -0.0142141402   -1.2745065542
      5  H         3.2995926824   -0.0387060001   -1.5016163003
      6  C         1.2141771552   -0.0599195735   -2.2646371202
      7  H         1.4008210662   -0.1118125528   -3.3313664764
      8  C        -0.0577905311   -0.0119248262   -1.7384350807
      9  C        -1.3409085699    0.0165205083   -2.4370802731
     10  C        -2.3266861063    0.9774389025   -2.3940821721
     11  H        -2.2498083693    1.8628022052   -1.7729873041
     12  C        -3.4290710201    0.6980384904   -3.2550568511
     13  H        -4.2950246294    1.3424783159   -3.3555735316
     14  C        -3.2717763173   -0.4685859619   -3.9573613650
     15  H        -3.9436858953   -0.9110533085   -4.6803218775
     16  S        -1.7769920801   -1.2534028117   -3.5652369634
   Point Group: c1    Number of degrees of freedom:    42


   Energy is  -1104.839047151

              Constraints and their Current Values
                                        Value     Constraint
   Dihedral:        6   8   9  10     -120.000     -120.000
 Hessian Updated using BFGS Update

 41 Hessian modes will be used to form the next step
  Hessian Eigenvalues:
     0.009393    0.022889    0.045000    0.045000    0.045001    0.045002
     0.045004    0.045005    0.045009    0.045011    0.045052    0.045550
     0.153644    0.159945    0.159992    0.160002    0.160219    0.161967
     0.221263    0.223186    0.237833    0.247376    0.249956    0.270711
     0.290206    0.294704    0.312565    0.313500    0.354771    0.354920
     0.355130    0.355315    0.358268    0.358612    0.404762    0.404951
     0.425940    0.463545    0.481903    0.497933    0.506516

 Minimum Search - Taking Simple RFO Step
 Searching for Lamda that Minimizes Along All modes
 Value Taken    Lamda =   0.00000000
 Step Taken.  Stepsize is  0.001813

                             Maximum     Tolerance    Cnvgd?
         Gradient           0.000041      0.000300     YES
         Displacement       0.001108      0.001200     YES
         Energy change     -0.000000      0.000001     YES

 Final energy is   -1104.83904715061     


 ******************************
 **  OPTIMIZATION CONVERGED  **
 ******************************

                       Coordinates (Angstroms)
     ATOM                X               Y               Z
      1  S         0.0109894658    0.0989187641    0.0105610320
      2  C         1.7439027481    0.0800233633   -0.0000604248
      3  H         2.2931352671    0.1389540352    0.9298075526
      4  C         2.2398434737   -0.0142141402   -1.2745065542
      5  H         3.2995926824   -0.0387060001   -1.5016163003
      6  C         1.2141771552   -0.0599195735   -2.2646371202
      7  H         1.4008210662   -0.1118125528   -3.3313664764
      8  C        -0.0577905311   -0.0119248262   -1.7384350807
      9  C        -1.3409085699    0.0165205083   -2.4370802731
     10  C        -2.3266861063    0.9774389025   -2.3940821721
     11  H        -2.2498083693    1.8628022052   -1.7729873041
     12  C        -3.4290710201    0.6980384904   -3.2550568511
     13  H        -4.2950246294    1.3424783159   -3.3555735316
     14  C        -3.2717763173   -0.4685859619   -3.9573613650
     15  H        -3.9436858953   -0.9110533085   -4.6803218775
     16  S        -1.7769920801   -1.2534028117   -3.5652369634

Z-matrix Print:
$molecule
0 1
S 
C  1 1.733049
H  2 1.081565 1 120.126422
C  2 1.370785 1 111.605424 3 179.982695 0
H  4 1.084088 2 123.366628 1 179.843625 0
C  4 1.426338 2 112.794734 1 0.553224 0
H  6 1.084177 4 124.107385 2 178.565218 0
C  6 1.377350 4 113.437778 2 -0.530171 0
C  8 1.461269 6 128.970758 4 177.311040 0
C  9 1.377305 8 128.838402 6 -119.999999 0
H  10 1.084222 9 122.469586 8 -1.521158 0
C  10 1.426392 9 113.431055 8 177.537574 0
H  12 1.084104 10 123.838700 9 -179.800867 0
C  12 1.370761 10 112.785232 9 -0.507631 0
H  14 1.081625 12 128.266974 10 -179.400346 0
S  14 1.733228 12 111.618466 10 0.539127 0
$end

 
 --------------------------------------------------------------
 
                    Orbital Energies (a.u.)
 --------------------------------------------------------------
 
 Alpha MOs
 -- Occupied --
-88.920 -88.920 -10.237 -10.237 -10.224 -10.224 -10.204 -10.204
-10.203 -10.203  -7.979  -7.979  -5.943  -5.943  -5.939  -5.939
 -5.936  -5.936  -0.899  -0.878  -0.769  -0.745  -0.739  -0.705
 -0.602  -0.574  -0.558  -0.534  -0.524  -0.478  -0.418  -0.417
 -0.410  -0.405  -0.396  -0.376  -0.374  -0.354  -0.347  -0.265
 -0.262  -0.259  -0.225
 -- Virtual --
 -0.046  -0.017  -0.006  -0.003   0.006   0.011   0.018   0.022
  0.028   0.035   0.039   0.039   0.045   0.055   0.060   0.062
  0.070   0.076   0.090   0.095   0.103   0.105   0.106   0.109
  0.119   0.122   0.128   0.131   0.133   0.133   0.135   0.142
  0.145   0.152   0.155   0.164   0.165   0.172   0.178   0.180
  0.187   0.190   0.198   0.206   0.211   0.226   0.227   0.231
  0.236   0.240   0.262   0.267   0.275   0.282   0.286   0.286
  0.311   0.318   0.321   0.338   0.356   0.360   0.375   0.389
  0.436   0.461   0.467   0.513   0.524   0.525   0.531   0.571
  0.582   0.596   0.616   0.625   0.652   0.658   0.675   0.680
  0.698   0.714   0.721   0.725   0.738   0.760   0.764   0.777
  0.780   0.806   0.806   0.828   0.835   0.876   0.915   0.939
  0.947   0.950   0.963   0.965   0.967   0.988   0.998   1.013
  1.019   1.028   1.033   1.072   1.091   1.093   1.097   1.114
  1.147   1.181   1.201   1.213   1.259   1.268   1.318   1.349
  1.349   1.353   1.365   1.389   1.458   1.463   1.486   1.544
  1.545   1.688   1.694   1.757   1.795   1.867   1.872   1.885
  1.920   1.922   1.963   1.992   2.003   2.036   2.078   2.098
  2.130   2.136   2.182   2.183   2.220   2.258   2.259   2.338
  2.368   2.368   2.423   2.438   2.465   2.467   2.496   2.505
  2.524   2.524   2.582   2.587   2.602   2.652   2.696   2.706
  2.748   2.847   2.853   2.893   2.931   3.154   3.186   3.269
  3.271   3.404   3.424   3.721   3.742   3.972   3.976   4.268
  4.304   4.316   4.328   4.426   4.536   4.657   4.711
 --------------------------------------------------------------
 
          Ground-State Mulliken Net Atomic Charges

     Atom                 Charge (a.u.)
  ----------------------------------------
      1 S                     0.043169
      2 C                    -0.042194
      3 H                     0.187717
      4 C                    -0.388990
      5 H                     0.116600
      6 C                     0.235841
      7 H                     0.136997
      8 C                    -0.292609
      9 C                    -0.283595
     10 C                     0.230178
     11 H                     0.137152
     12 C                    -0.386328
     13 H                     0.116691
     14 C                    -0.042589
     15 H                     0.187711
     16 S                     0.044248
  ----------------------------------------
  Sum of atomic charges =     0.000000

 -----------------------------------------------------------------
                    Cartesian Multipole Moments
 -----------------------------------------------------------------
    Charge (ESU x 10^10)
                 0.0000
    Dipole Moment (Debye)
         X       0.1581      Y       0.5070      Z      -0.2692
       Tot       0.5954
    Quadrupole Moments (Debye-Ang)
        XX     -63.9143     XY      -1.7432     YY     -74.7779
        XZ       4.6577     YZ       1.1038     ZZ     -68.4125
    Octopole Moments (Debye-Ang^2)
       XXX     147.5754    XXY      13.0056    XYY      44.0585
       YYY      23.7336    XXZ     115.0293    XYZ      -1.3780
       YYZ     148.7615    XZZ      35.3327    YZZ      -4.4513
       ZZZ     430.0886
    Hexadecapole Moments (Debye-Ang^3)
      XXXX   -1670.0992   XXXY     -50.8579   XXYY    -343.7373
      XYYY     -33.0326   YYYY    -297.1405   XXXZ    -617.0308
      XXYZ     -35.9166   XYYZ    -229.3333   YYYZ    -127.5379
      XXZZ    -609.8036   XYZZ      28.5645   YYZZ    -518.0450
      XZZZ    -643.7843   YZZZ     -53.5898   ZZZZ   -2752.9808
 -----------------------------------------------------------------
Archival summary:
1\1\nid00457\OPT\ProcedureUnspecified\BasisUnspecified\286\bwood\WedMay3102:25:372017WedMay3102:25:372017\0\\#,OPT,ProcedureUnspecified,BasisUnspecified,\\0,1\S\C,1,1.73305\H,2,1.08157,1,120.126\C,2,1.37078,1,111.605,3,179.983,0\H,4,1.08409,2,123.367,1,179.844,0\C,4,1.42634,2,112.795,1,0.553224,0\H,6,1.08418,4,124.107,2,178.565,0\C,6,1.37735,4,113.438,2,-0.530171,0\C,8,1.46127,6,128.971,4,177.311,0\C,9,1.37731,8,128.838,6,-120,0\H,10,1.08422,9,122.47,8,-1.52116,0\C,10,1.42639,9,113.431,8,177.538,0\H,12,1.0841,10,123.839,9,-179.801,0\C,12,1.37076,10,112.785,9,-0.507631,0\H,14,1.08162,12,128.267,10,-179.4,0\S,14,1.73323,12,111.618,10,0.539127,0\\\@

 Total job time:  57.14s(wall), 56.64s(cpu) 
 Wed May 31 02:25:37 2017

        *************************************************************
        *                                                           *
        *  Thank you very much for using Q-Chem.  Have a nice day.  *
        *                                                           *
        *************************************************************


0 sent ACK to 0 
now end server 0 ... 
