srun -N 1 --ntasks-per-node 16 --cpus-per-task 4 --cpu_bind=cores --nodelist nid00489 /global/project/projectdirs/jcesr/qchem/qc44/cnl_qc441/dist/exe/qcprog.cori.haswell.exe .pt_n2_neutral_-20.0.in.49017.qcin.1 /global/cscratch1/sd/bwood/qchem/nx/qchem49017/
Process 1 of 16 is on nid00489 - thread support 0
Process 2 of 16 is on nid00489 - thread support 0
Process 3 of 16 is on nid00489 - thread support 0
Process 4 of 16 is on nid00489 - thread support 0
Process 0 of 16 is on nid00489 - thread support 0
initial socket setup ...start
Process 5 of 16 is on nid00489 - thread support 0
Process 6 of 16 is on nid00489 - thread support 0
Process 15 of 16 is on nid00489 - thread support 0
initial socket setup ...done 
now start server 0 ... 
nid00489 10.128.1
Q-Chem Developer Version! Running on 10.128.1.*
                  Welcome to Q-Chem
     A Quantum Leap Into The Future Of Chemistry


 Q-Chem 4.4, Q-Chem, Inc., Pleasanton, CA (2016)

 Y. Shao,  Z. Gan,  E. Epifanovsky,  A. T. B. Gilbert,  M. Wormit,  
 J. Kussmann,  A. W. Lange,  A. Behn,  J. Deng,  X. Feng,  D. Ghosh,  
 M. Goldey,  P. R. Horn,  L. D. Jacobson,  I. Kaliman,  F. Rob,  
 R. Z. Khaliullin,  T. Kus,  A. Landau,  J. Liu,  E. I. Proynov,  Y. M. Rhee,  
 R. M. Richard,  M. A. Rohrdanz,  R. P. Steele,  E. J. Sundstrom,  
 H. L. Woodcock III,  P. M. Zimmerman,  D. Zuev,  B. Albrecht,  E. Alguire,  
 B. Austin,  S. A. Baeppler,  G. J. O. Beran,  Y. A. Bernard,  
 E. J. Berquist,  K. Brandhorst,  K. B. Bravaya,  S. T. Brown,  D. Casanova,  
 C.-M. Chang,  Y. Chen,  S. H. Chien,  K. D. Closser,  M. P. Coons,  
 D. L. Crittenden,  S. Dasgupta,  M. Diedenhofen,  R. A. DiStasio Jr.,  
 H. Do,  A. D. Dutoi,  R. G. Edgar,  P.-T. Fang,  S. Fatehi,  Q. Feng,  
 L. Fusti-Molnar,  A. Ghysels,  A. Golubeva-Zadorozhnaya,  J. Gomes,  
 A. Gunina,  M. W. D. Hanson-Heine,  P. H. P. Harbach,  A. W. Hauser,  
 J. E. Herr,  E. G. Hohenstein,  Z. C. Holden,  K. Hui,  T.-C. Jagau,  H. Ji,  
 B. Kaduk,  K. Khistyaev,  Jaehoon Kim,  Jihan Kim,  R. A. King,  
 P. Klunzinger,  K. Koh,  D. Kosenkov,  T. Kowalczyk,  C. M. Krauter,  
 A. Kunitsa,  K. U. Lao,  A. Laurent,  K. V. Lawler,  J. Lee,  D. Lefrancois,  
 S. Lehtola,  S. V. Levchenko,  C. Y. Lin,  Y.-S. Lin,  F. Liu,  E. Livshits,  
 R. C. Lochan,  A. Luenser,  P. Manohar,  S. F. Manzer,  S.-P. Mao,  Y. Mao,  
 N. Mardirossian,  A. V. Marenich,  L. A. Martinez-Martinez,  S. A. Maurer,  
 N. J. Mayhall,  J.-M. Mewes,  A. F. Morrison,  K. Nanda,  T. S. Nguyen-Beck,  
 C. M. Oana,  R. Olivares-Amaya,  D. P. O'Neill,  J. A. Parkhill,  
 T. M. Perrine,  R. Peverati,  P. A. Pieniazek,  F. Plasser,  A. Prociuk,  
 D. R. Rehn,  E. Rosta,  N. J. Russ,  N. Sergueev,  S. M. Sharada,  
 S. Sharma,  D. W. Small,  A. Sodt,  T. Stauch,  T. Stein,  D. Stuck,  
 Y.-C. Su,  A. J. W. Thom,  T. Tsuchimochi,  L. Vogt,  O. Vydrov,  T. Wang,  
 M. A. Watson,  J. Wenzel,  A. White,  C. F. Williams,  V. Vanovschi,  
 K. Yao,  S. Yeganeh,  S. R. Yost,  Z.-Q. You,  I. Y. Zhang,  X. Zhang,  
 Y. Zhao,  B. R. Brooks,  G. K. L. Chan,  D. M. Chipman,  C. J. Cramer,  
 W. A. Goddard III,  M. S. Gordon,  W. J. Hehre,  A. Klamt,  
 H. F. Schaefer III,  M. W. Schmidt,  C. D. Sherrill,  D. G. Truhlar,  
 A. Warshel,  X. Xu,  A. Aspuru-Guzik,  R. Baer,  A. T. Bell,  N. A. Besley,  
 J.-D. Chai,  A. Dreuw,  B. D. Dunietz,  T. R. Furlani,  S. R. Gwaltney,  
 C.-P. Hsu,  Y. Jung,  J. Kong,  D. S. Lambrecht,  W. Liang,  C. Ochsenfeld,  
 V. A. Rassolov,  L. V. Slipchenko,  J. E. Subotnik,  T. Van Voorhis,  
 J. M. Herbert,  A. I. Krylov,  P. M. W. Gill,  M. Head-Gordon

 Contributors to earlier versions of Q-Chem not listed above: 
 R. D. Adamson,  J. Baker,  E. F. C. Byrd,  A. K. Chakraborty,  C.-L. Cheng,  
 H. Dachsel,  R. J. Doerksen,  G. Hawkins,  A. Heyden,  S. Hirata,  
 G. Kedziora,  F. J. Keil,  C. Kelley,  P. P. Korambath,  W. Kurlancheek,  
 A. M. Lee,  M. S. Lee,  D. Liotard,  I. Lotan,  P. E. Maslen,  N. Nair,  
 D. Neuhauser,  R. Olson,  B. Peters,  J. Ritchie,  N. E. Schultz,  
 N. Shenvi,  A. C. Simmonett,  K. S. Thanthiriwatte,  Q. Wu,  W. Zhang

 Please cite Q-Chem as follows:
 Y. Shao et al., Mol. Phys. 113, 184-215 (2015)
 DOI: 10.1080/00268976.2014.952696

 Q-Chem 4.4.2 for Intel X86 EM64T Linux

 Parts of Q-Chem use Armadillo 5.200.1 (Boston Tea Smuggler).
 http://arma.sourceforge.net/

 Q-Chem begins on Wed May 31 02:24:49 2017  

Host: nid00447
0

     Scratch files written to /global/cscratch1/sd/bwood/qchem/nx/qchem49017.0//
 Parallel job on  16  processors

Checking the input file for inconsistencies... 	...done.

--------------------------------------------------------------
User input:
--------------------------------------------------------------
$molecule
 0  1
 S           0.00238887        0.06077275        0.00183269
 C           1.73707619        0.03315849        0.00323229
 H           2.27612737        0.05289032        0.94042557
 C           2.24169204       -0.01546201       -1.26965798
 H           3.30285780       -0.04005365       -1.48972496
 C           1.22479222       -0.01612968       -2.26811464
 H           1.42674790       -0.02650987       -3.33334501
 C          -0.05393771        0.02880388       -1.75170966
 C          -1.32450815        0.04889988       -2.45636342
 C          -1.58556928        0.39657881       -3.76594537
 H          -0.80828419        0.69827185       -4.45921823
 C          -2.96170210        0.28742390       -4.11982162
 H          -3.35016506        0.51093173       -5.10685526
 C          -3.74502092       -0.14390692       -3.08179486
 H          -4.81174129       -0.32140357       -3.07263795
 S          -2.81156773       -0.40802436       -1.64358681
$end


$rem
         jobtype = opt
        exchange = b3lyp
           basis = 6-31++g**
  max_scf_cycles = 150
      mem_static = 775
       mem_total = 7750
      sym_ignore = true
        symmetry = false
          thresh = 12
$end


$opt
CONSTRAINT
tors 6 8 9 10 -20.0
ENDCONSTRAINT
$end

--------------------------------------------------------------
 ----------------------------------------------------------------
             Standard Nuclear Orientation (Angstroms)
    I     Atom           X                Y                Z
 ----------------------------------------------------------------
    1      S       0.0023888700     0.0607727500     0.0018326900
    2      C       1.7370761900     0.0331584900     0.0032322900
    3      H       2.2761273700     0.0528903200     0.9404255700
    4      C       2.2416920400    -0.0154620100    -1.2696579800
    5      H       3.3028578000    -0.0400536500    -1.4897249600
    6      C       1.2247922200    -0.0161296800    -2.2681146400
    7      H       1.4267479000    -0.0265098700    -3.3333450100
    8      C      -0.0539377100     0.0288038800    -1.7517096600
    9      C      -1.3245081500     0.0488998800    -2.4563634200
   10      C      -1.5855692800     0.3965788100    -3.7659453700
   11      H      -0.8082841900     0.6982718500    -4.4592182300
   12      C      -2.9617021000     0.2874239000    -4.1198216200
   13      H      -3.3501650600     0.5109317300    -5.1068552600
   14      C      -3.7450209200    -0.1439069200    -3.0817948600
   15      H      -4.8117412900    -0.3214035700    -3.0726379500
   16      S      -2.8115677300    -0.4080243600    -1.6435868100
 ----------------------------------------------------------------
 Nuclear Repulsion Energy =   632.7183317704 hartrees
 There are       43 alpha and       43 beta electrons
 Requested basis set is 6-31++G(d,p)
 There are 76 shells and 234 basis functions

 Total QAlloc Memory Limit   7750 MB
 Mega-Array Size       758 MB
 MEM_STATIC part       775 MB
 A cutoff of  1.0D-12 yielded   2527 shell pairs
 There are     24869 function pairs

 Q-Chem warning in module /project/projectdirs/jcesr/qchem/qc44/cnl_qc441/compile/cori/qc_src/libqints/qchem/aobasis.C, line 68:

 Using reconstructed effective core potential

 
 -------------------------------------------------------
 OpenMP Integral Computing Module                       
 Release: version 1.0, May 2013, Q-Chem Inc. Pittsburgh 
 -------------------------------------------------------
 Integral Job Info:
 Integral job number is                      11
 Integral operator is                         1
 short-range coefficients                     0
 long-range coefficients              100000000
 Omega coefficients                           0
 if combine SR and LR in K                    0
 Integral screening is                        0
 Integral computing path is                   2
 max size of driver memory is            800000
 size of driver memory is                593474
 size of scratch memory is             15166112
 max col of scratch BK array               1296
 max len of scratch array in speh3          155
 max len of scratch index in speh4           18
 max int batch size is                      520
 min int batch size is                       52
 fixed nKL is                                52
 max L of basis functions is                  2
 order of int derivative is                   0
 number of shells is                         76
 number of basis is                         234
 number of cartesian basis is               234
 number of contracted shell pairs          2527
 number of primitive shell pairs           8243
 maxK2 (contraction) of shell pair           36
 max number of K2 of shell pair               1
 max number of CS2 of shell pair            258
 max number of PS2 of shell pair           1500
 mem total for path MDJ                   51992
 -------------------------------------------------------
 Smallest overlap matrix eigenvalue = 8.71E-07
 Linear dependence detected in AO basis
 Number of orthogonalized atomic orbitals = 233
 Maximum deviation from orthogonality = 9.893E-11

 Scale SEOQF with 1.000000e-01/1.000000e-01/1.000000e-02

 Standard Electronic Orientation quadrupole field applied
 Nucleus-field energy     =     0.0000000098 hartrees
 Guess from superposition of atomic densities
 Warning:  Energy on first SCF cycle will be non-variational
 A restricted hybrid HF-DFT SCF calculation will be
 performed using Pulay DIIS extrapolation
 Exchange:     0.2000 Hartree-Fock + 0.0800 Slater + 0.7200 B88
 Correlation:  0.1900 VWN1RPA + 0.8100 LYP
 Using SG-1 standard quadrature grid
 SCF converges when DIIS error is below 1.0E-08
 ---------------------------------------
  Cycle       Energy         DIIS Error
 ---------------------------------------
    1   -1107.1935928665      4.43E-02
    2   -1104.6621050412      4.83E-03
    3   -1104.3668552100      7.68E-03
    4   -1104.8283237137      1.11E-03
    5   -1104.8370306711      5.14E-04
    6   -1104.8386930583      1.85E-04
    7   -1104.8389139256      8.12E-05
    8   -1104.8389597953      1.92E-05
    9   -1104.8389625967      2.11E-06
   10   -1104.8389626324      5.53E-07
   11   -1104.8389626344      3.03E-07
   12   -1104.8389626347      6.33E-08
   13   -1104.8389626340      4.00E-08
   14   -1104.8389626334      6.37E-09 Convergence criterion met
 ---------------------------------------
 SCF time:  CPU 8.74 s  wall 8.37 s
 SCF   energy in the final basis set = -1104.8389626334
 Total energy in the final basis set = -1104.8389626334
 
 --------------------------------------------------------------
 
                    Orbital Energies (a.u.)
 --------------------------------------------------------------
 
 Alpha MOs
 -- Occupied --
-88.919 -88.919 -10.239 -10.239 -10.225 -10.225 -10.205 -10.205
-10.204 -10.204  -7.979  -7.979  -5.943  -5.943  -5.940  -5.939
 -5.936  -5.936  -0.901  -0.878  -0.772  -0.750  -0.737  -0.705
 -0.604  -0.580  -0.554  -0.533  -0.527  -0.477  -0.421  -0.419
 -0.408  -0.404  -0.401  -0.375  -0.374  -0.360  -0.343  -0.282
 -0.265  -0.258  -0.212
 -- Virtual --
 -0.058  -0.015  -0.004  -0.000   0.005   0.014   0.019   0.027
  0.027   0.037   0.039   0.045   0.049   0.060   0.063   0.070
  0.075   0.084   0.087   0.095   0.103   0.103   0.107   0.112
  0.116   0.122   0.126   0.129   0.136   0.139   0.142   0.144
  0.146   0.154   0.161   0.162   0.168   0.177   0.183   0.185
  0.188   0.194   0.194   0.207   0.213   0.221   0.222   0.243
  0.246   0.261   0.263   0.267   0.271   0.281   0.303   0.308
  0.312   0.318   0.325   0.348   0.361   0.374   0.382   0.419
  0.447   0.466   0.495   0.534   0.539   0.555   0.566   0.568
  0.597   0.620   0.635   0.654   0.659   0.671   0.672   0.682
  0.702   0.718   0.721   0.722   0.734   0.752   0.753   0.792
  0.802   0.818   0.830   0.848   0.886   0.919   0.933   0.946
  0.955   0.958   0.965   0.972   0.987   0.990   1.003   1.011
  1.037   1.037   1.078   1.082   1.104   1.109   1.129   1.167
  1.170   1.186   1.187   1.251   1.253   1.339   1.341   1.348
  1.356   1.370   1.377   1.437   1.499   1.510   1.554   1.596
  1.652   1.693   1.715   1.782   1.860   1.874   1.888   1.913
  1.924   1.967   1.991   2.009   2.024   2.068   2.086   2.129
  2.132   2.176   2.180   2.240   2.247   2.285   2.290   2.363
  2.366   2.417   2.452   2.471   2.479   2.496   2.506   2.522
  2.544   2.572   2.576   2.593   2.682   2.691   2.720   2.762
  2.791   2.854   2.939   2.976   3.139   3.213   3.270   3.271
  3.395   3.431   3.709   3.754   3.942   4.016   4.232   4.300
  4.304   4.327   4.403   4.545   4.647   4.732
 --------------------------------------------------------------
 
          Ground-State Mulliken Net Atomic Charges

     Atom                 Charge (a.u.)
  ----------------------------------------
      1 S                    -0.132593
      2 C                     0.008182
      3 H                     0.197182
      4 C                    -0.341229
      5 H                     0.120796
      6 C                     0.338295
      7 H                     0.117273
      8 C                    -0.309585
      9 C                    -0.304888
     10 C                     0.337269
     11 H                     0.117296
     12 C                    -0.340339
     13 H                     0.120807
     14 C                     0.007655
     15 H                     0.197175
     16 S                    -0.133296
  ----------------------------------------
  Sum of atomic charges =    -0.000000

 -----------------------------------------------------------------
                    Cartesian Multipole Moments
 -----------------------------------------------------------------
    Charge (ESU x 10^10)
                -0.0000
    Dipole Moment (Debye)
         X       0.4903      Y       0.1450      Z      -0.8814
       Tot       1.0189
    Quadrupole Moments (Debye-Ang)
        XX     -63.4048     XY       0.6112     YY     -78.4121
        XZ       2.9134     YZ      -1.5961     ZZ     -63.1444
    Octopole Moments (Debye-Ang^2)
       XXX     158.0855    XXY      -4.6992    XYY      64.4553
       YYY       1.2207    XXZ     107.2950    XYZ       1.3735
       YYZ     143.3538    XZZ      51.0202    YZZ      11.5665
       ZZZ     349.9208
    Hexadecapole Moments (Debye-Ang^3)
      XXXX   -1818.5293   XXXY       3.1410   XXYY    -403.0141
      XYYY     -26.4268   YYYY    -130.1858   XXXZ    -558.5789
      XXYZ      12.7989   XYYZ    -244.5433   YYYZ      23.7019
      XXZZ    -639.7524   XYZZ     -25.8790   YYZZ    -453.8009
      XZZZ    -593.1537   YZZZ     -41.6673   ZZZZ   -2130.2117
 -----------------------------------------------------------------
 Calculating analytic gradient of the SCF energy
 Gradient of SCF Energy
            1           2           3           4           5           6
    1  -0.0022953  -0.0000596   0.0000485   0.0004607  -0.0000025   0.0001611
    2  -0.0016582   0.0015782   0.0006167  -0.0018700   0.0000701  -0.0019772
    3  -0.0003984  -0.0005627   0.0000269   0.0002673   0.0000282   0.0013038
            7           8           9          10          11          12
    1   0.0000034   0.0002623   0.0011652  -0.0014965   0.0004033  -0.0006052
    2   0.0016697   0.0010130  -0.0007790   0.0017859  -0.0015695   0.0017307
    3  -0.0002147  -0.0012812  -0.0011398   0.0009212  -0.0004884   0.0001532
           13          14          15          16
    1  -0.0000103   0.0006949   0.0000240   0.0012460
    2  -0.0000680  -0.0013735  -0.0005816   0.0014126
    3   0.0000226  -0.0006065  -0.0002032   0.0021716
 Max gradient component =       2.295E-03
 RMS gradient           =       1.056E-03
 Gradient time:  CPU 2.11 s  wall 2.12 s
 Geometry Optimization Parameters
   NAtoms,    NIC,     NZ,  NCons,   NDum,   NFix, NCnnct, MaxDiis
       16     111       0       1       0       0       0       0


** CONSTRAINED OPTIMIZATION IN DELOCALIZED INTERNAL COORDINATES **
   Searching for a Minimum

   Optimization Cycle:   1

                       Coordinates (Angstroms)
     ATOM                X               Y               Z
      1  S         0.0023888700    0.0607727500    0.0018326900
      2  C         1.7370761900    0.0331584900    0.0032322900
      3  H         2.2761273700    0.0528903200    0.9404255700
      4  C         2.2416920400   -0.0154620100   -1.2696579800
      5  H         3.3028578000   -0.0400536500   -1.4897249600
      6  C         1.2247922200   -0.0161296800   -2.2681146400
      7  H         1.4267479000   -0.0265098700   -3.3333450100
      8  C        -0.0539377100    0.0288038800   -1.7517096600
      9  C        -1.3245081500    0.0488998800   -2.4563634200
     10  C        -1.5855692800    0.3965788100   -3.7659453700
     11  H        -0.8082841900    0.6982718500   -4.4592182300
     12  C        -2.9617021000    0.2874239000   -4.1198216200
     13  H        -3.3501650600    0.5109317300   -5.1068552600
     14  C        -3.7450209200   -0.1439069200   -3.0817948600
     15  H        -4.8117412900   -0.3214035700   -3.0726379500
     16  S        -2.8115677300   -0.4080243600   -1.6435868100
   Point Group: c1    Number of degrees of freedom:    42


   Energy is  -1104.838962633

              Constraints and their Current Values
                                        Value     Constraint
   Dihedral:        6   8   9  10      -20.000      -20.000

 Attempting to Generate Delocalized Internal Coordinates

 41 Hessian modes will be used to form the next step
  Hessian Eigenvalues:
     0.045000    0.045000    0.045000    0.045000    0.045000    0.045000
     0.045002    0.045002    0.045003    0.045004    0.045011    0.045012
     0.159943    0.159949    0.159991    0.159992    0.160000    0.160000
     0.221282    0.221282    0.237835    0.237839    0.250000    0.250000
     0.294264    0.294663    0.312518    0.312618    0.354736    0.354850
     0.355125    0.355132    0.358226    0.358329    0.378510    0.404854
     0.404909    0.463547    0.463616    0.497922    0.497945

 Minimum Search - Taking Simple RFO Step
 Searching for Lamda that Minimizes Along All modes
 Value Taken    Lamda =  -0.00067427
 Step Taken.  Stepsize is  0.091641

                             Maximum     Tolerance    Cnvgd?
         Gradient           0.008203      0.000300      NO
         Displacement       0.076511      0.001200      NO
         Energy change     *********      0.000001      NO


 New Cartesian Coordinates Obtained by Inverse Iteration

 Displacement from previous Coordinates is:  0.230771
 ----------------------------------------------------------------
             Standard Nuclear Orientation (Angstroms)
    I     Atom           X                Y                Z
 ----------------------------------------------------------------
    1      S       0.0227593085     0.0794368933     0.0268583945
    2      C       1.7562936975     0.0348230663     0.0001554355
    3      H       2.3112220729     0.0451488248     0.9280902713
    4      C       2.2377087928    -0.0036239162    -1.2820099220
    5      H       3.2947229997    -0.0330170499    -1.5207234061
    6      C       1.2041077657    -0.0109439286    -2.2628920416
    7      H       1.3887396118    -0.0394155565    -3.3306308974
    8      C      -0.0666819305     0.0297346239    -1.7263821183
    9      C      -1.3387356718     0.0412533838    -2.4332654044
   10      C      -1.5781725862     0.3876231265    -3.7474721008
   11      H      -0.7920722785     0.7047752613    -4.4233141316
   12      C      -2.9477373502     0.2785258802    -4.1256141282
   13      H      -3.3189972417     0.5101122520    -5.1174516196
   14      C      -3.7523958296    -0.1423325926    -3.0997725866
   15      H      -4.8210911485    -0.3069565392    -3.1060714265
   16      S      -2.8404842518    -0.4289021792    -1.6527895383
 ----------------------------------------------------------------
 Nuclear Repulsion Energy =   631.4861250061 hartrees
 There are       43 alpha and       43 beta electrons
 Applying Cartesian multipole field
    Component          Value
    ---------          -----
     (2,0,0)        1.00000E-11
     (0,2,0)        2.00000E-11
     (0,0,2)       -3.00000E-12
 Nucleus-field energy     =     0.0000000099 hartrees
 Requested basis set is 6-31++G(d,p)
 There are 76 shells and 234 basis functions
 A cutoff of  1.0D-12 yielded   2529 shell pairs
 There are     24877 function pairs

 Q-Chem warning in module /project/projectdirs/jcesr/qchem/qc44/cnl_qc441/compile/cori/qc_src/libqints/qchem/aobasis.C, line 68:

 Using reconstructed effective core potential

 Smallest overlap matrix eigenvalue = 9.13E-07
 Linear dependence detected in AO basis
 Number of orthogonalized atomic orbitals = 233
 Maximum deviation from orthogonality = 7.126E-11
 Guess MOs from SCF MO coefficient file
 Reading MOs from coefficient file
 Reading MOs from coefficient file
 A restricted hybrid HF-DFT SCF calculation will be
 performed using Pulay DIIS extrapolation
 Exchange:     0.2000 Hartree-Fock + 0.0800 Slater + 0.7200 B88
 Correlation:  0.1900 VWN1RPA + 0.8100 LYP
 Using SG-1 standard quadrature grid
 SCF converges when DIIS error is below 1.0E-08
 Geometry optimization detected.  Setting ReadMinima to 0
 Setting SaveMinima to 0
 ---------------------------------------
  Cycle       Energy         DIIS Error
 ---------------------------------------
    1   -1104.8305502353      9.10E-04
    2   -1104.8389866227      2.17E-04
    3   -1104.8377564784      4.58E-04
    4   -1104.8393585065      3.47E-05
    5   -1104.8393663162      1.31E-05
    6   -1104.8393673290      5.10E-06
    7   -1104.8393675046      1.80E-06
    8   -1104.8393675281      4.12E-07
    9   -1104.8393675286      9.23E-08
   10   -1104.8393675281      2.82E-08
   11   -1104.8393675274      9.37E-09 Convergence criterion met
 ---------------------------------------
 SCF time:  CPU 6.23 s  wall 5.82 s
 SCF   energy in the final basis set = -1104.8393675274
 Total energy in the final basis set = -1104.8393675274
 
 --------------------------------------------------------------
 
                    Orbital Energies (a.u.)
 --------------------------------------------------------------
 
 Alpha MOs
 -- Occupied --
-88.920 -88.920 -10.240 -10.239 -10.225 -10.225 -10.205 -10.205
-10.203 -10.203  -7.979  -7.979  -5.944  -5.943  -5.940  -5.940
 -5.936  -5.936  -0.900  -0.878  -0.771  -0.749  -0.737  -0.705
 -0.604  -0.579  -0.554  -0.533  -0.527  -0.477  -0.421  -0.418
 -0.408  -0.403  -0.401  -0.376  -0.374  -0.359  -0.344  -0.281
 -0.264  -0.258  -0.213
 -- Virtual --
 -0.058  -0.014  -0.004  -0.000   0.004   0.014   0.019   0.027
  0.027   0.037   0.039   0.046   0.049   0.060   0.063   0.070
  0.075   0.083   0.087   0.095   0.102   0.103   0.107   0.112
  0.115   0.123   0.126   0.130   0.136   0.139   0.141   0.144
  0.146   0.153   0.161   0.162   0.167   0.178   0.183   0.185
  0.187   0.194   0.195   0.207   0.212   0.220   0.221   0.241
  0.245   0.261   0.263   0.267   0.272   0.281   0.303   0.308
  0.312   0.317   0.326   0.348   0.360   0.375   0.382   0.418
  0.445   0.466   0.496   0.532   0.536   0.554   0.567   0.568
  0.599   0.622   0.633   0.653   0.660   0.670   0.671   0.680
  0.703   0.716   0.722   0.723   0.734   0.751   0.752   0.792
  0.800   0.817   0.830   0.846   0.885   0.918   0.934   0.949
  0.954   0.957   0.963   0.975   0.988   0.994   1.007   1.010
  1.035   1.038   1.077   1.081   1.102   1.107   1.129   1.166
  1.170   1.186   1.186   1.250   1.252   1.335   1.342   1.353
  1.356   1.369   1.375   1.438   1.496   1.508   1.551   1.593
  1.652   1.693   1.715   1.781   1.862   1.874   1.887   1.912
  1.923   1.967   1.989   2.009   2.021   2.069   2.082   2.131
  2.134   2.176   2.179   2.239   2.244   2.285   2.293   2.363
  2.366   2.419   2.454   2.471   2.473   2.501   2.505   2.520
  2.542   2.571   2.577   2.595   2.681   2.689   2.720   2.761
  2.793   2.856   2.936   2.971   3.140   3.212   3.270   3.272
  3.395   3.431   3.709   3.754   3.943   4.013   4.234   4.300
  4.301   4.327   4.402   4.541   4.646   4.730
 --------------------------------------------------------------
 
          Ground-State Mulliken Net Atomic Charges

     Atom                 Charge (a.u.)
  ----------------------------------------
      1 S                    -0.108835
      2 C                    -0.001430
      3 H                     0.196428
      4 C                    -0.331030
      5 H                     0.121285
      6 C                     0.299969
      7 H                     0.116557
      8 C                    -0.295056
      9 C                    -0.291075
     10 C                     0.300637
     11 H                     0.116635
     12 C                    -0.330380
     13 H                     0.121299
     14 C                    -0.001608
     15 H                     0.196453
     16 S                    -0.109851
  ----------------------------------------
  Sum of atomic charges =     0.000000

 -----------------------------------------------------------------
                    Cartesian Multipole Moments
 -----------------------------------------------------------------
    Charge (ESU x 10^10)
                -0.0000
    Dipole Moment (Debye)
         X       0.4983      Y       0.1460      Z      -0.8953
       Tot       1.0350
    Quadrupole Moments (Debye-Ang)
        XX     -63.3995     XY       0.5170     YY     -78.3979
        XZ       2.9805     YZ      -1.6252     ZZ     -63.1907
    Octopole Moments (Debye-Ang^2)
       XXX     158.5351    XXY      -4.4966    XYY      64.6542
       YYY       1.3715    XXZ     106.8178    XYZ       1.5387
       YYZ     142.9607    XZZ      51.1223    YZZ      11.6901
       ZZZ     349.2433
    Hexadecapole Moments (Debye-Ang^3)
      XXXX   -1827.7722   XXXY      -2.2935   XXYY    -405.2920
      XYYY     -30.8807   YYYY    -131.2807   XXXZ    -559.6038
      XXYZ      11.3756   XYYZ    -245.8898   YYYZ      20.8449
      XXZZ    -640.3946   XYZZ     -27.9049   YYZZ    -453.3407
      XZZZ    -596.5512   YZZZ     -44.4673   ZZZZ   -2130.2762
 -----------------------------------------------------------------
 Calculating analytic gradient of the SCF energy
 Gradient of SCF Energy
            1           2           3           4           5           6
    1   0.0000937   0.0002603   0.0000861   0.0000437  -0.0000376  -0.0003740
    2  -0.0000634  -0.0000650   0.0001865  -0.0002363   0.0000342  -0.0012764
    3   0.0004043   0.0001268  -0.0000026   0.0004467   0.0000498   0.0005837
            7           8           9          10          11          12
    1  -0.0000261   0.0005302   0.0006767  -0.0004491   0.0003068  -0.0004279
    2   0.0012174   0.0006231  -0.0003154   0.0010948  -0.0011485   0.0001085
    3  -0.0001077  -0.0010397  -0.0012208   0.0009342  -0.0003137   0.0002062
           13          14          15          16
    1  -0.0000012  -0.0003386  -0.0000037  -0.0003391
    2  -0.0000460   0.0000713  -0.0001603  -0.0000245
    3   0.0000292  -0.0001487  -0.0001424   0.0001945
 Max gradient component =       1.276E-03
 RMS gradient           =       5.070E-04
 Gradient time:  CPU 1.91 s  wall 2.45 s
 Geometry Optimization Parameters
   NAtoms,    NIC,     NZ,  NCons,   NDum,   NFix, NCnnct, MaxDiis
       16     111       0       1       0       0       0       0

 Cartesian Hessian Update
 Hessian Updated using BFGS Update


** CONSTRAINED OPTIMIZATION IN DELOCALIZED INTERNAL COORDINATES **
   Searching for a Minimum

   Optimization Cycle:   2

                       Coordinates (Angstroms)
     ATOM                X               Y               Z
      1  S         0.0227593085    0.0794368933    0.0268583945
      2  C         1.7562936975    0.0348230663    0.0001554355
      3  H         2.3112220729    0.0451488248    0.9280902713
      4  C         2.2377087928   -0.0036239162   -1.2820099220
      5  H         3.2947229997   -0.0330170499   -1.5207234061
      6  C         1.2041077657   -0.0109439286   -2.2628920416
      7  H         1.3887396118   -0.0394155565   -3.3306308974
      8  C        -0.0666819305    0.0297346239   -1.7263821183
      9  C        -1.3387356718    0.0412533838   -2.4332654044
     10  C        -1.5781725862    0.3876231265   -3.7474721008
     11  H        -0.7920722785    0.7047752613   -4.4233141316
     12  C        -2.9477373502    0.2785258802   -4.1256141282
     13  H        -3.3189972417    0.5101122520   -5.1174516196
     14  C        -3.7523958296   -0.1423325926   -3.0997725866
     15  H        -4.8210911485   -0.3069565392   -3.1060714265
     16  S        -2.8404842518   -0.4289021792   -1.6527895383
   Point Group: c1    Number of degrees of freedom:    42


   Energy is  -1104.839367527

              Constraints and their Current Values
                                        Value     Constraint
   Dihedral:        6   8   9  10      -20.000      -20.000
 Hessian Updated using BFGS Update

 38 Hessian modes will be used to form the next step
  Hessian Eigenvalues:
     0.031821    0.045000    0.045000    0.045000    0.045001    0.045002
     0.045007    0.045012    0.050244    0.159813    0.159948    0.159978
     0.159992    0.160000    0.160002    0.219689    0.221283    0.224528
     0.237837    0.249984    0.253907    0.294449    0.304463    0.312578
     0.313055    0.354716    0.354832    0.355129    0.355134    0.358223
     0.358327    0.386346    0.404876    0.407412    0.463590    0.463670
     0.497930    0.498807

 Minimum Search - Taking Simple RFO Step
 Searching for Lamda that Minimizes Along All modes
 Value Taken    Lamda =  -0.00013523
 Step Taken.  Stepsize is  0.059445

                             Maximum     Tolerance    Cnvgd?
         Gradient           0.001554      0.000300      NO
         Displacement       0.041736      0.001200      NO
         Energy change     -0.000405      0.000001      NO


 New Cartesian Coordinates Obtained by Inverse Iteration

 Displacement from previous Coordinates is:  0.113425
 ----------------------------------------------------------------
             Standard Nuclear Orientation (Angstroms)
    I     Atom           X                Y                Z
 ----------------------------------------------------------------
    1      S       0.0268147063     0.0886342814     0.0349353447
    2      C       1.7599178078     0.0414868042    -0.0042467726
    3      H       2.3202376807     0.0503827386     0.9203507276
    4      C       2.2338790269    -0.0004396073    -1.2894293976
    5      H       3.2892442676    -0.0358972272    -1.5349163372
    6      C       1.1941803291    -0.0133964906    -2.2626400950
    7      H       1.3712960857    -0.0621952545    -3.3307348104
    8      C      -0.0728875568     0.0281739617    -1.7161305834
    9      C      -1.3442003379     0.0402715760    -2.4223919956
   10      C      -1.5734359009     0.3886963003    -3.7384686675
   11      H      -0.7860589172     0.7243752615    -4.4034987592
   12      C      -2.9390112839     0.2766568014    -4.1269018388
   13      H      -3.3046120218     0.5151167025    -5.1193018509
   14      C      -3.7495571177    -0.1473835782    -3.1066862076
   15      H      -4.8185095628    -0.3095174631    -3.1188056305
   16      S      -2.8481112451    -0.4387232566    -1.6544183461
 ----------------------------------------------------------------
 Nuclear Repulsion Energy =   631.4308531962 hartrees
 There are       43 alpha and       43 beta electrons
 Applying Cartesian multipole field
    Component          Value
    ---------          -----
     (2,0,0)        1.00000E-11
     (0,2,0)        2.00000E-11
     (0,0,2)       -3.00000E-12
 Nucleus-field energy     =     0.0000000099 hartrees
 Requested basis set is 6-31++G(d,p)
 There are 76 shells and 234 basis functions
 A cutoff of  1.0D-12 yielded   2529 shell pairs
 There are     24877 function pairs

 Q-Chem warning in module /project/projectdirs/jcesr/qchem/qc44/cnl_qc441/compile/cori/qc_src/libqints/qchem/aobasis.C, line 68:

 Using reconstructed effective core potential

 Smallest overlap matrix eigenvalue = 8.97E-07
 Linear dependence detected in AO basis
 Number of orthogonalized atomic orbitals = 233
 Maximum deviation from orthogonality = 2.390E-11
 Guess MOs from SCF MO coefficient file
 Reading MOs from coefficient file
 Reading MOs from coefficient file
 A restricted hybrid HF-DFT SCF calculation will be
 performed using Pulay DIIS extrapolation
 Exchange:     0.2000 Hartree-Fock + 0.0800 Slater + 0.7200 B88
 Correlation:  0.1900 VWN1RPA + 0.8100 LYP
 Using SG-1 standard quadrature grid
 SCF converges when DIIS error is below 1.0E-08
 Geometry optimization detected.  Setting ReadMinima to 0
 Setting SaveMinima to 0
 ---------------------------------------
  Cycle       Energy         DIIS Error
 ---------------------------------------
    1   -1104.8391825212      4.03E-04
    2   -1104.8393600052      1.08E-04
    3   -1104.8391018295      2.14E-04
    4   -1104.8394522411      2.17E-05
    5   -1104.8394555371      6.97E-06
    6   -1104.8394558227      3.05E-06
    7   -1104.8394558903      8.41E-07
    8   -1104.8394558958      2.51E-07
    9   -1104.8394558956      4.29E-08
   10   -1104.8394558955      1.02E-08
   11   -1104.8394558961      4.00E-09 Convergence criterion met
 ---------------------------------------
 SCF time:  CPU 6.08 s  wall 5.79 s
 SCF   energy in the final basis set = -1104.8394558961
 Total energy in the final basis set = -1104.8394558961
 
 --------------------------------------------------------------
 
                    Orbital Energies (a.u.)
 --------------------------------------------------------------
 
 Alpha MOs
 -- Occupied --
-88.920 -88.920 -10.239 -10.239 -10.225 -10.225 -10.205 -10.205
-10.203 -10.203  -7.979  -7.979  -5.944  -5.944  -5.940  -5.940
 -5.937  -5.937  -0.900  -0.878  -0.771  -0.749  -0.737  -0.705
 -0.604  -0.579  -0.554  -0.533  -0.527  -0.477  -0.421  -0.418
 -0.408  -0.403  -0.401  -0.376  -0.374  -0.359  -0.344  -0.281
 -0.264  -0.259  -0.213
 -- Virtual --
 -0.057  -0.014  -0.004  -0.000   0.004   0.014   0.019   0.026
  0.027   0.037   0.039   0.046   0.048   0.059   0.062   0.070
  0.074   0.082   0.088   0.095   0.102   0.103   0.107   0.112
  0.115   0.124   0.126   0.130   0.137   0.139   0.141   0.145
  0.145   0.152   0.161   0.162   0.167   0.178   0.183   0.185
  0.187   0.194   0.195   0.208   0.213   0.220   0.221   0.241
  0.246   0.260   0.263   0.266   0.271   0.280   0.304   0.309
  0.312   0.317   0.325   0.349   0.359   0.375   0.382   0.419
  0.445   0.466   0.496   0.531   0.536   0.554   0.566   0.568
  0.600   0.624   0.632   0.653   0.661   0.670   0.670   0.680
  0.704   0.715   0.722   0.724   0.735   0.751   0.753   0.792
  0.799   0.817   0.830   0.846   0.885   0.919   0.935   0.951
  0.954   0.956   0.962   0.975   0.988   0.994   1.009   1.009
  1.035   1.039   1.078   1.081   1.101   1.107   1.129   1.167
  1.170   1.186   1.187   1.250   1.250   1.331   1.341   1.355
  1.356   1.368   1.377   1.440   1.494   1.508   1.551   1.588
  1.655   1.693   1.716   1.782   1.863   1.875   1.887   1.911
  1.924   1.968   1.988   2.012   2.020   2.071   2.080   2.133
  2.136   2.178   2.179   2.239   2.243   2.286   2.296   2.363
  2.366   2.419   2.455   2.468   2.472   2.505   2.506   2.520
  2.541   2.571   2.578   2.595   2.680   2.690   2.721   2.761
  2.795   2.857   2.935   2.969   3.141   3.212   3.270   3.272
  3.396   3.431   3.709   3.755   3.944   4.012   4.236   4.299
  4.301   4.328   4.402   4.541   4.646   4.730
 --------------------------------------------------------------
 
          Ground-State Mulliken Net Atomic Charges

     Atom                 Charge (a.u.)
  ----------------------------------------
      1 S                    -0.100886
      2 C                    -0.001940
      3 H                     0.195991
      4 C                    -0.334406
      5 H                     0.121036
      6 C                     0.300109
      7 H                     0.117755
      8 C                    -0.299756
      9 C                    -0.296740
     10 C                     0.301556
     11 H                     0.117863
     12 C                    -0.333936
     13 H                     0.121044
     14 C                    -0.001890
     15 H                     0.196058
     16 S                    -0.101859
  ----------------------------------------
  Sum of atomic charges =     0.000000

 -----------------------------------------------------------------
                    Cartesian Multipole Moments
 -----------------------------------------------------------------
    Charge (ESU x 10^10)
                -0.0000
    Dipole Moment (Debye)
         X       0.4956      Y       0.1445      Z      -0.8910
       Tot       1.0298
    Quadrupole Moments (Debye-Ang)
        XX     -63.4556     XY       0.4583     YY     -78.3537
        XZ       2.9569     YZ      -1.6429     ZZ     -63.2552
    Octopole Moments (Debye-Ang^2)
       XXX     158.9942    XXY      -4.5327    XYY      64.6709
       YYY       1.4326    XXZ     106.8080    XYZ       1.7618
       YYZ     142.6789    XZZ      51.2591    YZZ      11.8843
       ZZZ     349.2364
    Hexadecapole Moments (Debye-Ang^3)
      XXXX   -1828.9823   XXXY      -4.5167   XXYY    -405.1728
      XYYY     -32.9620   YYYY    -132.2261   XXXZ    -560.1988
      XXYZ      10.9933   XYYZ    -245.7465   YYYZ      19.3826
      XXZZ    -640.3175   XYZZ     -29.4301   YYZZ    -452.4257
      XZZZ    -597.0189   YZZZ     -46.6801   ZZZZ   -2130.4672
 -----------------------------------------------------------------
 Calculating analytic gradient of the SCF energy
 Gradient of SCF Energy
            1           2           3           4           5           6
    1   0.0000508  -0.0001891  -0.0000230  -0.0000296   0.0000053  -0.0001053
    2   0.0000774  -0.0002951   0.0000317   0.0002617  -0.0000900  -0.0004340
    3   0.0005621  -0.0001407  -0.0000368  -0.0000982  -0.0000568   0.0000804
            7           8           9          10          11          12
    1   0.0000881   0.0001495   0.0000893  -0.0000493   0.0000859   0.0000996
    2   0.0006542   0.0001433  -0.0000821   0.0003781  -0.0005945  -0.0002229
    3  -0.0000335  -0.0001913  -0.0003115   0.0002526  -0.0002525  -0.0000785
           13          14          15          16
    1   0.0000461   0.0001766   0.0000554  -0.0004502
    2   0.0001028   0.0003055  -0.0000271  -0.0002090
    3  -0.0000242   0.0001288  -0.0000255   0.0002257
 Max gradient component =       6.542E-04
 RMS gradient           =       2.305E-04
 Gradient time:  CPU 2.08 s  wall 2.12 s
 Geometry Optimization Parameters
   NAtoms,    NIC,     NZ,  NCons,   NDum,   NFix, NCnnct, MaxDiis
       16     111       0       1       0       0       0       0

 Cartesian Hessian Update
 Hessian Updated using BFGS Update


** CONSTRAINED OPTIMIZATION IN DELOCALIZED INTERNAL COORDINATES **
   Searching for a Minimum

   Optimization Cycle:   3

                       Coordinates (Angstroms)
     ATOM                X               Y               Z
      1  S         0.0268147063    0.0886342814    0.0349353447
      2  C         1.7599178078    0.0414868042   -0.0042467726
      3  H         2.3202376807    0.0503827386    0.9203507276
      4  C         2.2338790269   -0.0004396073   -1.2894293976
      5  H         3.2892442676   -0.0358972272   -1.5349163372
      6  C         1.1941803291   -0.0133964906   -2.2626400950
      7  H         1.3712960857   -0.0621952545   -3.3307348104
      8  C        -0.0728875568    0.0281739617   -1.7161305834
      9  C        -1.3442003379    0.0402715760   -2.4223919956
     10  C        -1.5734359009    0.3886963003   -3.7384686675
     11  H        -0.7860589172    0.7243752615   -4.4034987592
     12  C        -2.9390112839    0.2766568014   -4.1269018388
     13  H        -3.3046120218    0.5151167025   -5.1193018509
     14  C        -3.7495571177   -0.1473835782   -3.1066862076
     15  H        -4.8185095628   -0.3095174631   -3.1188056305
     16  S        -2.8481112451   -0.4387232566   -1.6544183461
   Point Group: c1    Number of degrees of freedom:    42


   Energy is  -1104.839455896

              Constraints and their Current Values
                                        Value     Constraint
   Dihedral:        6   8   9  10      -20.000      -20.000
 Hessian Updated using BFGS Update

 36 Hessian modes will be used to form the next step
  Hessian Eigenvalues:
     0.017273    0.045000    0.045001    0.045006    0.045012    0.045656
     0.049977    0.159912    0.159951    0.159970    0.159992    0.160000
     0.160806    0.221281    0.222390    0.237834    0.249961    0.253404
     0.272211    0.294447    0.303393    0.312570    0.312998    0.354691
     0.354828    0.355129    0.355194    0.358260    0.358428    0.385988
     0.404884    0.419228    0.463122    0.463600    0.497938    0.499652

 Minimum Search - Taking Simple RFO Step
 Searching for Lamda that Minimizes Along All modes
 Value Taken    Lamda =  -0.00005926
 Step Taken.  Stepsize is  0.054827

                             Maximum     Tolerance    Cnvgd?
         Gradient           0.000932      0.000300      NO
         Displacement       0.037761      0.001200      NO
         Energy change     -0.000088      0.000001      NO


 New Cartesian Coordinates Obtained by Inverse Iteration

 Displacement from previous Coordinates is:  0.086504
 ----------------------------------------------------------------
             Standard Nuclear Orientation (Angstroms)
    I     Atom           X                Y                Z
 ----------------------------------------------------------------
    1      S       0.0295658975     0.0964484299     0.0360251921
    2      C       1.7626039149     0.0489144911    -0.0054144921
    3      H       2.3244175984     0.0598530556     0.9183238513
    4      C       2.2335076952    -0.0015289938    -1.2914885820
    5      H       3.2882926580    -0.0423450526    -1.5385321449
    6      C       1.1915000406    -0.0192177234    -2.2625085582
    7      H       1.3653681348    -0.0874240570    -3.3299477975
    8      C      -0.0746152110     0.0255719893    -1.7130803893
    9      C      -1.3462268510     0.0426368039    -2.4185497173
   10      C      -1.5729762449     0.3941535847    -3.7346763324
   11      H      -0.7872199661     0.7477781301    -4.3920501508
   12      C      -2.9371801091     0.2779385192    -4.1273967799
   13      H      -3.3019311925     0.5214559573    -5.1188511155
   14      C      -3.7488786855    -0.1541359105    -3.1113915253
   15      H      -4.8175814011    -0.3182112960    -3.1257371868
   16      S      -2.8494603181    -0.4456463779    -1.6580094913
 ----------------------------------------------------------------
 Nuclear Repulsion Energy =   631.3899173807 hartrees
 There are       43 alpha and       43 beta electrons
 Applying Cartesian multipole field
    Component          Value
    ---------          -----
     (2,0,0)        1.00000E-11
     (0,2,0)        2.00000E-11
     (0,0,2)       -3.00000E-12
 Nucleus-field energy     =     0.0000000099 hartrees
 Requested basis set is 6-31++G(d,p)
 There are 76 shells and 234 basis functions
 A cutoff of  1.0D-12 yielded   2529 shell pairs
 There are     24877 function pairs

 Q-Chem warning in module /project/projectdirs/jcesr/qchem/qc44/cnl_qc441/compile/cori/qc_src/libqints/qchem/aobasis.C, line 68:

 Using reconstructed effective core potential

 Smallest overlap matrix eigenvalue = 8.83E-07
 Linear dependence detected in AO basis
 Number of orthogonalized atomic orbitals = 233
 Maximum deviation from orthogonality = 6.972E-11
 Guess MOs from SCF MO coefficient file
 Reading MOs from coefficient file
 Reading MOs from coefficient file
 A restricted hybrid HF-DFT SCF calculation will be
 performed using Pulay DIIS extrapolation
 Exchange:     0.2000 Hartree-Fock + 0.0800 Slater + 0.7200 B88
 Correlation:  0.1900 VWN1RPA + 0.8100 LYP
 Using SG-1 standard quadrature grid
 SCF converges when DIIS error is below 1.0E-08
 Geometry optimization detected.  Setting ReadMinima to 0
 Setting SaveMinima to 0
 ---------------------------------------
  Cycle       Energy         DIIS Error
 ---------------------------------------
    1   -1104.8398996658      2.65E-04
    2   -1104.8394611936      6.06E-05
    3   -1104.8393688854      1.26E-04
    4   -1104.8394921923      1.13E-05
    5   -1104.8394929890      5.06E-06
    6   -1104.8394931485      2.08E-06
    7   -1104.8394931798      5.64E-07
    8   -1104.8394931824      1.55E-07
    9   -1104.8394931847      2.58E-08
   10   -1104.8394931847      9.03E-09 Convergence criterion met
 ---------------------------------------
 SCF time:  CPU 5.59 s  wall 5.26 s
 SCF   energy in the final basis set = -1104.8394931847
 Total energy in the final basis set = -1104.8394931847
 
 --------------------------------------------------------------
 
                    Orbital Energies (a.u.)
 --------------------------------------------------------------
 
 Alpha MOs
 -- Occupied --
-88.920 -88.920 -10.239 -10.239 -10.225 -10.225 -10.205 -10.205
-10.203 -10.203  -7.979  -7.979  -5.944  -5.944  -5.940  -5.940
 -5.937  -5.937  -0.900  -0.878  -0.771  -0.749  -0.737  -0.705
 -0.604  -0.579  -0.554  -0.533  -0.527  -0.477  -0.421  -0.418
 -0.409  -0.403  -0.401  -0.377  -0.374  -0.359  -0.344  -0.281
 -0.264  -0.259  -0.213
 -- Virtual --
 -0.057  -0.013  -0.004  -0.000   0.004   0.014   0.019   0.026
  0.027   0.037   0.038   0.046   0.048   0.059   0.061   0.070
  0.074   0.082   0.088   0.095   0.102   0.103   0.107   0.112
  0.115   0.124   0.126   0.130   0.137   0.139   0.140   0.145
  0.145   0.152   0.161   0.162   0.166   0.178   0.182   0.185
  0.187   0.194   0.195   0.208   0.213   0.221   0.221   0.241
  0.246   0.259   0.263   0.266   0.271   0.279   0.304   0.309
  0.312   0.317   0.325   0.349   0.359   0.375   0.382   0.419
  0.445   0.466   0.496   0.531   0.536   0.554   0.565   0.568
  0.601   0.625   0.631   0.653   0.662   0.668   0.671   0.680
  0.704   0.715   0.722   0.725   0.735   0.750   0.753   0.792
  0.797   0.817   0.830   0.846   0.885   0.918   0.936   0.952
  0.953   0.956   0.962   0.974   0.988   0.992   1.009   1.010
  1.035   1.041   1.078   1.081   1.101   1.106   1.129   1.167
  1.170   1.185   1.187   1.247   1.250   1.329   1.339   1.356
  1.356   1.368   1.380   1.442   1.491   1.510   1.552   1.584
  1.659   1.693   1.716   1.783   1.863   1.875   1.887   1.911
  1.924   1.967   1.986   2.013   2.020   2.071   2.078   2.132
  2.137   2.180   2.180   2.238   2.242   2.286   2.297   2.363
  2.366   2.419   2.455   2.464   2.473   2.505   2.508   2.520
  2.540   2.571   2.579   2.595   2.680   2.690   2.721   2.761
  2.795   2.856   2.934   2.968   3.140   3.212   3.270   3.272
  3.397   3.430   3.710   3.754   3.944   4.011   4.236   4.299
  4.301   4.327   4.402   4.540   4.646   4.729
 --------------------------------------------------------------
 
          Ground-State Mulliken Net Atomic Charges

     Atom                 Charge (a.u.)
  ----------------------------------------
      1 S                    -0.098840
      2 C                     0.003046
      3 H                     0.196017
      4 C                    -0.343571
      5 H                     0.120655
      6 C                     0.311605
      7 H                     0.119699
      8 C                    -0.310679
      9 C                    -0.308222
     10 C                     0.313145
     11 H                     0.119809
     12 C                    -0.342870
     13 H                     0.120666
     14 C                     0.003131
     15 H                     0.196125
     16 S                    -0.099718
  ----------------------------------------
  Sum of atomic charges =     0.000000

 -----------------------------------------------------------------
                    Cartesian Multipole Moments
 -----------------------------------------------------------------
    Charge (ESU x 10^10)
                -0.0000
    Dipole Moment (Debye)
         X       0.4930      Y       0.1430      Z      -0.8867
       Tot       1.0246
    Quadrupole Moments (Debye-Ang)
        XX     -63.4537     XY       0.4266     YY     -78.3124
        XZ       2.9880     YZ      -1.6406     ZZ     -63.3189
    Octopole Moments (Debye-Ang^2)
       XXX     158.9670    XXY      -4.6875    XYY      64.6023
       YYY       1.4243    XXZ     106.7674    XYZ       1.9378
       YYZ     142.5365    XZZ      51.1623    YZZ      12.0090
       ZZZ     349.7557
    Hexadecapole Moments (Debye-Ang^3)
      XXXX   -1829.2509   XXXY      -5.2111   XXYY    -405.1360
      XYYY     -34.0642   YYYY    -133.2807   XXXZ    -560.2248
      XXYZ      11.1756   XYYZ    -245.7381   YYYZ      18.4399
      XXZZ    -640.0289   XYZZ     -30.4595   YYZZ    -451.8842
      XZZZ    -597.5229   YZZZ     -48.2602   ZZZZ   -2133.6806
 -----------------------------------------------------------------
 Calculating analytic gradient of the SCF energy
 Gradient of SCF Energy
            1           2           3           4           5           6
    1   0.0002786  -0.0000066  -0.0000061   0.0000235  -0.0000051  -0.0000421
    2  -0.0001431  -0.0001637  -0.0000147   0.0003273  -0.0001516   0.0004225
    3  -0.0001243   0.0000486   0.0000207  -0.0000211   0.0000122  -0.0002236
            7           8           9          10          11          12
    1   0.0000445  -0.0002706  -0.0001330   0.0002824  -0.0000597   0.0000341
    2   0.0001291  -0.0005427   0.0004275  -0.0003889  -0.0001131  -0.0002881
    3   0.0000598   0.0002470   0.0004717  -0.0001664  -0.0000442  -0.0000981
           13          14          15          16
    1  -0.0000192  -0.0000271  -0.0000151  -0.0000785
    2   0.0001441   0.0001563  -0.0000005   0.0001997
    3   0.0000408   0.0000488   0.0000044  -0.0002761
 Max gradient component =       5.427E-04
 RMS gradient           =       2.001E-04
 Gradient time:  CPU 2.16 s  wall 2.10 s
 Geometry Optimization Parameters
   NAtoms,    NIC,     NZ,  NCons,   NDum,   NFix, NCnnct, MaxDiis
       16     111       0       1       0       0       0       0

 Cartesian Hessian Update
 Hessian Updated using BFGS Update


** CONSTRAINED OPTIMIZATION IN DELOCALIZED INTERNAL COORDINATES **
   Searching for a Minimum

   Optimization Cycle:   4

                       Coordinates (Angstroms)
     ATOM                X               Y               Z
      1  S         0.0295658975    0.0964484299    0.0360251921
      2  C         1.7626039149    0.0489144911   -0.0054144921
      3  H         2.3244175984    0.0598530556    0.9183238513
      4  C         2.2335076952   -0.0015289938   -1.2914885820
      5  H         3.2882926580   -0.0423450526   -1.5385321449
      6  C         1.1915000406   -0.0192177234   -2.2625085582
      7  H         1.3653681348   -0.0874240570   -3.3299477975
      8  C        -0.0746152110    0.0255719893   -1.7130803893
      9  C        -1.3462268510    0.0426368039   -2.4185497173
     10  C        -1.5729762449    0.3941535847   -3.7346763324
     11  H        -0.7872199661    0.7477781301   -4.3920501508
     12  C        -2.9371801091    0.2779385192   -4.1273967799
     13  H        -3.3019311925    0.5214559573   -5.1188511155
     14  C        -3.7488786855   -0.1541359105   -3.1113915253
     15  H        -4.8175814011   -0.3182112960   -3.1257371868
     16  S        -2.8494603181   -0.4456463779   -1.6580094913
   Point Group: c1    Number of degrees of freedom:    42


   Energy is  -1104.839493185

              Constraints and their Current Values
                                        Value     Constraint
   Dihedral:        6   8   9  10      -20.000      -20.000
 Hessian Updated using BFGS Update

 38 Hessian modes will be used to form the next step
  Hessian Eigenvalues:
     0.012198    0.045000    0.045000    0.045003    0.045004    0.045009
     0.045012    0.046801    0.049466    0.159913    0.159949    0.159992
     0.160000    0.160174    0.160575    0.221283    0.222472    0.237837
     0.250002    0.263266    0.270430    0.294440    0.300226    0.312575
     0.313644    0.354783    0.354998    0.355129    0.355217    0.358270
     0.358509    0.385852    0.404887    0.421654    0.463593    0.465396
     0.497931    0.499659

 Minimum Search - Taking Simple RFO Step
 Searching for Lamda that Minimizes Along All modes
 Value Taken    Lamda =  -0.00001909
 Step Taken.  Stepsize is  0.031331

                             Maximum     Tolerance    Cnvgd?
         Gradient           0.000921      0.000300      NO
         Displacement       0.025907      0.001200      NO
         Energy change     -0.000037      0.000001      NO


 New Cartesian Coordinates Obtained by Inverse Iteration

 Displacement from previous Coordinates is:  0.053895
 ----------------------------------------------------------------
             Standard Nuclear Orientation (Angstroms)
    I     Atom           X                Y                Z
 ----------------------------------------------------------------
    1      S       0.0285635651     0.1024359803     0.0342832865
    2      C       1.7616436116     0.0530103053    -0.0058609556
    3      H       2.3227696852     0.0667950996     0.9182308464
    4      C       2.2335004522    -0.0044844449    -1.2913466940
    5      H       3.2884601563    -0.0473446138    -1.5373036113
    6      C       1.1923173046    -0.0244831771    -2.2631082098
    7      H       1.3661199642    -0.1022833402    -3.3299681303
    8      C      -0.0739655424     0.0234276901    -1.7143690206
    9      C      -1.3458480485     0.0456707578    -2.4190795370
   10      C      -1.5737056218     0.3997599325    -3.7343313928
   11      H      -0.7897070452     0.7623356654    -4.3890216474
   12      C      -2.9376807344     0.2805358992    -4.1266661817
   13      H      -3.3037201606     0.5254876569    -5.1172964544
   14      C      -3.7473780762    -0.1583081671    -3.1118508188
   15      H      -4.8155667309    -0.3255408438    -3.1261739191
   16      S      -2.8466168193    -0.4507728502    -1.6594227801
 ----------------------------------------------------------------
 Nuclear Repulsion Energy =   631.4582583077 hartrees
 There are       43 alpha and       43 beta electrons
 Applying Cartesian multipole field
    Component          Value
    ---------          -----
     (2,0,0)        1.00000E-11
     (0,2,0)        2.00000E-11
     (0,0,2)       -3.00000E-12
 Nucleus-field energy     =     0.0000000099 hartrees
 Requested basis set is 6-31++G(d,p)
 There are 76 shells and 234 basis functions
 A cutoff of  1.0D-12 yielded   2529 shell pairs
 There are     24877 function pairs

 Q-Chem warning in module /project/projectdirs/jcesr/qchem/qc44/cnl_qc441/compile/cori/qc_src/libqints/qchem/aobasis.C, line 68:

 Using reconstructed effective core potential

 Smallest overlap matrix eigenvalue = 8.74E-07
 Linear dependence detected in AO basis
 Number of orthogonalized atomic orbitals = 233
 Maximum deviation from orthogonality = 4.827E-11
 Guess MOs from SCF MO coefficient file
 Reading MOs from coefficient file
 Reading MOs from coefficient file
 A restricted hybrid HF-DFT SCF calculation will be
 performed using Pulay DIIS extrapolation
 Exchange:     0.2000 Hartree-Fock + 0.0800 Slater + 0.7200 B88
 Correlation:  0.1900 VWN1RPA + 0.8100 LYP
 Using SG-1 standard quadrature grid
 SCF converges when DIIS error is below 1.0E-08
 Geometry optimization detected.  Setting ReadMinima to 0
 Setting SaveMinima to 0
 ---------------------------------------
  Cycle       Energy         DIIS Error
 ---------------------------------------
    1   -1104.8406241635      2.03E-04
    2   -1104.8395015688      2.12E-05
    3   -1104.8394916946      4.23E-05
    4   -1104.8395059361      5.48E-06
    5   -1104.8395061148      2.70E-06
    6   -1104.8395061616      1.20E-06
    7   -1104.8395061712      3.40E-07
    8   -1104.8395061715      9.31E-08
    9   -1104.8395061735      1.49E-08
   10   -1104.8395061737      6.86E-09 Convergence criterion met
 ---------------------------------------
 SCF time:  CPU 5.51 s  wall 5.16 s
 SCF   energy in the final basis set = -1104.8395061737
 Total energy in the final basis set = -1104.8395061737
 
 --------------------------------------------------------------
 
                    Orbital Energies (a.u.)
 --------------------------------------------------------------
 
 Alpha MOs
 -- Occupied --
-88.920 -88.920 -10.239 -10.239 -10.225 -10.225 -10.205 -10.205
-10.203 -10.203  -7.979  -7.979  -5.944  -5.944  -5.940  -5.940
 -5.937  -5.937  -0.900  -0.878  -0.771  -0.749  -0.737  -0.705
 -0.604  -0.579  -0.554  -0.533  -0.527  -0.477  -0.421  -0.418
 -0.409  -0.403  -0.401  -0.377  -0.374  -0.359  -0.344  -0.281
 -0.264  -0.259  -0.213
 -- Virtual --
 -0.057  -0.013  -0.004  -0.000   0.004   0.014   0.019   0.026
  0.027   0.037   0.038   0.046   0.047   0.059   0.061   0.070
  0.074   0.081   0.088   0.095   0.102   0.104   0.107   0.112
  0.115   0.124   0.126   0.130   0.137   0.139   0.140   0.145
  0.145   0.152   0.161   0.162   0.166   0.179   0.182   0.185
  0.187   0.194   0.194   0.208   0.213   0.221   0.221   0.241
  0.247   0.258   0.263   0.265   0.271   0.278   0.304   0.309
  0.312   0.317   0.324   0.350   0.358   0.374   0.383   0.420
  0.445   0.466   0.496   0.531   0.536   0.553   0.564   0.568
  0.601   0.625   0.630   0.653   0.662   0.667   0.671   0.680
  0.705   0.714   0.722   0.726   0.736   0.750   0.753   0.792
  0.797   0.817   0.830   0.847   0.885   0.918   0.936   0.952
  0.953   0.957   0.961   0.973   0.989   0.991   1.009   1.010
  1.036   1.041   1.077   1.081   1.101   1.106   1.128   1.167
  1.170   1.184   1.187   1.245   1.251   1.329   1.338   1.356
  1.356   1.367   1.381   1.442   1.491   1.511   1.553   1.581
  1.662   1.693   1.717   1.783   1.864   1.875   1.887   1.911
  1.924   1.966   1.985   2.013   2.020   2.071   2.078   2.132
  2.137   2.180   2.181   2.238   2.242   2.285   2.298   2.363
  2.366   2.419   2.455   2.464   2.473   2.505   2.508   2.520
  2.540   2.571   2.579   2.595   2.680   2.690   2.721   2.762
  2.795   2.856   2.934   2.968   3.140   3.212   3.270   3.272
  3.397   3.430   3.710   3.753   3.945   4.011   4.237   4.300
  4.301   4.327   4.402   4.540   4.646   4.729
 --------------------------------------------------------------
 
          Ground-State Mulliken Net Atomic Charges

     Atom                 Charge (a.u.)
  ----------------------------------------
      1 S                    -0.099014
      2 C                     0.005861
      3 H                     0.195946
      4 C                    -0.348358
      5 H                     0.120411
      6 C                     0.320683
      7 H                     0.120955
      8 C                    -0.318681
      9 C                    -0.316192
     10 C                     0.322133
     11 H                     0.121061
     12 C                    -0.347309
     13 H                     0.120432
     14 C                     0.005906
     15 H                     0.196075
     16 S                    -0.099910
  ----------------------------------------
  Sum of atomic charges =     0.000000

 -----------------------------------------------------------------
                    Cartesian Multipole Moments
 -----------------------------------------------------------------
    Charge (ESU x 10^10)
                -0.0000
    Dipole Moment (Debye)
         X       0.4916      Y       0.1421      Z      -0.8842
       Tot       1.0216
    Quadrupole Moments (Debye-Ang)
        XX     -63.4644     XY       0.4318     YY     -78.2862
        XZ       2.9915     YZ      -1.6289     ZZ     -63.3414
    Octopole Moments (Debye-Ang^2)
       XXX     158.9509    XXY      -4.8374    XYY      64.5333
       YYY       1.3957    XXZ     106.8171    XYZ       1.9982
       YYZ     142.4886    XZZ      51.1106    YZZ      12.0530
       ZZZ     350.0792
    Hexadecapole Moments (Debye-Ang^3)
      XXXX   -1828.3954   XXXY      -5.0033   XXYY    -404.8045
      XYYY     -34.3730   YYYY    -134.1494   XXXZ    -560.2663
      XXYZ      11.4918   XYYZ    -245.5665   YYYZ      18.0668
      XXZZ    -639.8084   XYZZ     -30.8192   YYZZ    -451.6258
      XZZZ    -597.4300   YZZZ     -48.9100   ZZZZ   -2135.2183
 -----------------------------------------------------------------
 Calculating analytic gradient of the SCF energy
 Gradient of SCF Energy
            1           2           3           4           5           6
    1   0.0000623  -0.0000176  -0.0000334  -0.0000358  -0.0000042   0.0001260
    2  -0.0002076  -0.0000697  -0.0000023   0.0001725  -0.0001029   0.0008627
    3  -0.0001920   0.0000328   0.0000127  -0.0001026   0.0000063  -0.0001893
            7           8           9          10          11          12
    1   0.0000276  -0.0001466  -0.0003342   0.0002160  -0.0000565   0.0001335
    2  -0.0000896  -0.0011677   0.0010263  -0.0007852   0.0001001  -0.0001320
    3   0.0000315   0.0003139   0.0005705  -0.0004096   0.0000148  -0.0000692
           13          14          15          16
    1  -0.0000107  -0.0000124   0.0000088   0.0000771
    2   0.0001016   0.0000617  -0.0000144   0.0002468
    3   0.0000266   0.0000415   0.0000216  -0.0001095
 Max gradient component =       1.168E-03
 RMS gradient           =       3.196E-04
 Gradient time:  CPU 2.10 s  wall 2.07 s
 Geometry Optimization Parameters
   NAtoms,    NIC,     NZ,  NCons,   NDum,   NFix, NCnnct, MaxDiis
       16     111       0       1       0       0       0       0

 Cartesian Hessian Update
 Hessian Updated using BFGS Update


** CONSTRAINED OPTIMIZATION IN DELOCALIZED INTERNAL COORDINATES **
   Searching for a Minimum

   Optimization Cycle:   5

                       Coordinates (Angstroms)
     ATOM                X               Y               Z
      1  S         0.0285635651    0.1024359803    0.0342832865
      2  C         1.7616436116    0.0530103053   -0.0058609556
      3  H         2.3227696852    0.0667950996    0.9182308464
      4  C         2.2335004522   -0.0044844449   -1.2913466940
      5  H         3.2884601563   -0.0473446138   -1.5373036113
      6  C         1.1923173046   -0.0244831771   -2.2631082098
      7  H         1.3661199642   -0.1022833402   -3.3299681303
      8  C        -0.0739655424    0.0234276901   -1.7143690206
      9  C        -1.3458480485    0.0456707578   -2.4190795370
     10  C        -1.5737056218    0.3997599325   -3.7343313928
     11  H        -0.7897070452    0.7623356654   -4.3890216474
     12  C        -2.9376807344    0.2805358992   -4.1266661817
     13  H        -3.3037201606    0.5254876569   -5.1172964544
     14  C        -3.7473780762   -0.1583081671   -3.1118508188
     15  H        -4.8155667309   -0.3255408438   -3.1261739191
     16  S        -2.8466168193   -0.4507728502   -1.6594227801
   Point Group: c1    Number of degrees of freedom:    42


   Energy is  -1104.839506174

              Constraints and their Current Values
                                        Value     Constraint
   Dihedral:        6   8   9  10      -20.000      -20.000
 Hessian Updated using BFGS Update

 39 Hessian modes will be used to form the next step
  Hessian Eigenvalues:
     0.009944    0.039457    0.045000    0.045001    0.045002    0.045004
     0.045005    0.045012    0.045182    0.051561    0.159494    0.159947
     0.159992    0.160000    0.160097    0.160383    0.221269    0.222434
     0.226761    0.237840    0.250012    0.271311    0.294448    0.307786
     0.312581    0.313374    0.354770    0.354904    0.355129    0.355206
     0.358270    0.358541    0.386113    0.404887    0.425711    0.463590
     0.464326    0.497938    0.502233

 Minimum Search - Taking Simple RFO Step
 Searching for Lamda that Minimizes Along All modes
 Value Taken    Lamda =  -0.00000905
 Step Taken.  Stepsize is  0.022119

                             Maximum     Tolerance    Cnvgd?
         Gradient           0.000415      0.000300      NO
         Displacement       0.018135      0.001200      NO
         Energy change     -0.000013      0.000001      NO


 New Cartesian Coordinates Obtained by Inverse Iteration

 Displacement from previous Coordinates is:  0.038538
 ----------------------------------------------------------------
             Standard Nuclear Orientation (Angstroms)
    I     Atom           X                Y                Z
 ----------------------------------------------------------------
    1      S       0.0279165808     0.1077749885     0.0326843531
    2      C       1.7610350175     0.0555426084    -0.0057184977
    3      H       2.3215977375     0.0719332983     0.9186864125
    4      C       2.2339334293    -0.0075990791    -1.2904997800
    5      H       3.2891299116    -0.0511009217    -1.5353332482
    6      C       1.1935897855    -0.0290012555    -2.2633046356
    7      H       1.3678669593    -0.1110855907    -3.3298129715
    8      C      -0.0730314263     0.0215840174    -1.7160966123
    9      C      -1.3452022538     0.0483695538    -2.4202081958
   10      C      -1.5748987567     0.4045550144    -3.7343716423
   11      H      -0.7919959253     0.7710957047    -4.3882400974
   12      C      -2.9390488344     0.2832401115    -4.1258902162
   13      H      -3.3062443661     0.5283718155    -5.1160513707
   14      C      -3.7467850300    -0.1610170065    -3.1119194885
   15      H      -4.8145408156    -0.3310432728    -3.1262709319
   16      S      -2.8441360533    -0.4553784361    -1.6609382976
 ----------------------------------------------------------------
 Nuclear Repulsion Energy =   631.4621837685 hartrees
 There are       43 alpha and       43 beta electrons
 Applying Cartesian multipole field
    Component          Value
    ---------          -----
     (2,0,0)        1.00000E-11
     (0,2,0)        2.00000E-11
     (0,0,2)       -3.00000E-12
 Nucleus-field energy     =     0.0000000099 hartrees
 Requested basis set is 6-31++G(d,p)
 There are 76 shells and 234 basis functions
 A cutoff of  1.0D-12 yielded   2529 shell pairs
 There are     24877 function pairs

 Q-Chem warning in module /project/projectdirs/jcesr/qchem/qc44/cnl_qc441/compile/cori/qc_src/libqints/qchem/aobasis.C, line 68:

 Using reconstructed effective core potential

 Smallest overlap matrix eigenvalue = 8.71E-07
 Linear dependence detected in AO basis
 Number of orthogonalized atomic orbitals = 233
 Maximum deviation from orthogonality = 4.507E-11
 Guess MOs from SCF MO coefficient file
 Reading MOs from coefficient file
 Reading MOs from coefficient file
 A restricted hybrid HF-DFT SCF calculation will be
 performed using Pulay DIIS extrapolation
 Exchange:     0.2000 Hartree-Fock + 0.0800 Slater + 0.7200 B88
 Correlation:  0.1900 VWN1RPA + 0.8100 LYP
 Using SG-1 standard quadrature grid
 SCF converges when DIIS error is below 1.0E-08
 Geometry optimization detected.  Setting ReadMinima to 0
 Setting SaveMinima to 0
 ---------------------------------------
  Cycle       Energy         DIIS Error
 ---------------------------------------
    1   -1104.8403809363      1.77E-04
    2   -1104.8395104026      1.13E-05
    3   -1104.8395087518      1.95E-05
    4   -1104.8395118751      3.29E-06
    5   -1104.8395119259      2.09E-06
    6   -1104.8395119551      7.70E-07
    7   -1104.8395119589      2.40E-07
    8   -1104.8395119601      5.76E-08
    9   -1104.8395119614      1.14E-08
   10   -1104.8395119632      3.13E-09 Convergence criterion met
 ---------------------------------------
 SCF time:  CPU 5.50 s  wall 5.33 s
 SCF   energy in the final basis set = -1104.8395119632
 Total energy in the final basis set = -1104.8395119632
 
 --------------------------------------------------------------
 
                    Orbital Energies (a.u.)
 --------------------------------------------------------------
 
 Alpha MOs
 -- Occupied --
-88.920 -88.920 -10.239 -10.239 -10.225 -10.225 -10.205 -10.205
-10.203 -10.203  -7.979  -7.979  -5.944  -5.944  -5.940  -5.940
 -5.937  -5.937  -0.900  -0.878  -0.771  -0.749  -0.737  -0.705
 -0.604  -0.579  -0.554  -0.533  -0.527  -0.477  -0.421  -0.418
 -0.409  -0.403  -0.401  -0.377  -0.374  -0.359  -0.344  -0.281
 -0.264  -0.259  -0.213
 -- Virtual --
 -0.057  -0.014  -0.004  -0.000   0.004   0.014   0.019   0.026
  0.027   0.037   0.038   0.046   0.047   0.059   0.061   0.070
  0.074   0.081   0.088   0.095   0.102   0.104   0.107   0.112
  0.115   0.124   0.126   0.130   0.137   0.139   0.140   0.145
  0.145   0.152   0.161   0.162   0.166   0.179   0.182   0.185
  0.187   0.194   0.194   0.208   0.213   0.220   0.221   0.241
  0.247   0.258   0.263   0.265   0.271   0.277   0.304   0.309
  0.312   0.317   0.324   0.350   0.358   0.374   0.383   0.420
  0.445   0.466   0.496   0.531   0.536   0.553   0.564   0.569
  0.601   0.625   0.629   0.653   0.662   0.667   0.671   0.680
  0.704   0.715   0.722   0.726   0.737   0.750   0.752   0.792
  0.796   0.818   0.830   0.847   0.885   0.918   0.936   0.951
  0.953   0.957   0.962   0.972   0.989   0.990   1.009   1.010
  1.036   1.042   1.076   1.081   1.100   1.106   1.128   1.167
  1.170   1.183   1.187   1.245   1.251   1.329   1.338   1.355
  1.356   1.367   1.381   1.442   1.491   1.512   1.553   1.580
  1.663   1.693   1.718   1.783   1.864   1.874   1.887   1.911
  1.924   1.965   1.985   2.014   2.020   2.070   2.078   2.132
  2.137   2.180   2.182   2.238   2.242   2.283   2.298   2.363
  2.366   2.419   2.454   2.464   2.473   2.505   2.508   2.520
  2.540   2.571   2.579   2.594   2.680   2.690   2.721   2.762
  2.794   2.856   2.935   2.968   3.140   3.212   3.270   3.272
  3.397   3.429   3.710   3.753   3.945   4.010   4.236   4.300
  4.301   4.327   4.402   4.540   4.646   4.730
 --------------------------------------------------------------
 
          Ground-State Mulliken Net Atomic Charges

     Atom                 Charge (a.u.)
  ----------------------------------------
      1 S                    -0.099078
      2 C                     0.007656
      3 H                     0.195894
      4 C                    -0.350809
      5 H                     0.120270
      6 C                     0.325800
      7 H                     0.121677
      8 C                    -0.323747
      9 C                    -0.321128
     10 C                     0.327240
     11 H                     0.121782
     12 C                    -0.349531
     13 H                     0.120298
     14 C                     0.007683
     15 H                     0.196034
     16 S                    -0.100041
  ----------------------------------------
  Sum of atomic charges =     0.000000

 -----------------------------------------------------------------
                    Cartesian Multipole Moments
 -----------------------------------------------------------------
    Charge (ESU x 10^10)
                -0.0000
    Dipole Moment (Debye)
         X       0.4922      Y       0.1419      Z      -0.8852
       Tot       1.0227
    Quadrupole Moments (Debye-Ang)
        XX     -63.4650     XY       0.4491     YY     -78.2715
        XZ       3.0022     YZ      -1.6138     ZZ     -63.3432
    Octopole Moments (Debye-Ang^2)
       XXX     158.9084    XXY      -4.9587    XYY      64.4793
       YYY       1.3670    XXZ     106.8280    XYZ       2.0030
       YYZ     142.4809    XZZ      51.0358    YZZ      12.0547
       ZZZ     350.2654
    Hexadecapole Moments (Debye-Ang^3)
      XXXX   -1827.9198   XXXY      -4.6445   XXYY    -404.6323
      XYYY     -34.4950   YYYY    -134.9101   XXXZ    -560.2527
      XXYZ      11.7818   XYYZ    -245.5061   YYYZ      17.8448
      XXZZ    -639.5765   XYZZ     -30.9078   YYZZ    -451.5615
      XZZZ    -597.3591   YZZZ     -49.1882   ZZZZ   -2136.1164
 -----------------------------------------------------------------
 Calculating analytic gradient of the SCF energy
 Gradient of SCF Energy
            1           2           3           4           5           6
    1  -0.0000341   0.0000342  -0.0000175  -0.0000397   0.0000018   0.0001140
    2  -0.0001419  -0.0000398   0.0000170  -0.0000060  -0.0000154   0.0010625
    3  -0.0001520   0.0000347   0.0000081  -0.0000344   0.0000125  -0.0000695
            7           8           9          10          11          12
    1  -0.0000078  -0.0000191  -0.0002773   0.0001427  -0.0000231   0.0000606
    2  -0.0001299  -0.0017062   0.0016163  -0.0009903   0.0001332   0.0000124
    3   0.0000140   0.0000724   0.0004733  -0.0003954   0.0000503   0.0000067
           13          14          15          16
    1  -0.0000076  -0.0000493   0.0000079   0.0001144
    2   0.0000187   0.0000352  -0.0000280   0.0001620
    3   0.0000040  -0.0000073   0.0000012  -0.0000186
 Max gradient component =       1.706E-03
 RMS gradient           =       4.152E-04
 Gradient time:  CPU 2.05 s  wall 2.07 s
 Geometry Optimization Parameters
   NAtoms,    NIC,     NZ,  NCons,   NDum,   NFix, NCnnct, MaxDiis
       16     111       0       1       0       0       0       0

 Cartesian Hessian Update
 Hessian Updated using BFGS Update


** CONSTRAINED OPTIMIZATION IN DELOCALIZED INTERNAL COORDINATES **
   Searching for a Minimum

   Optimization Cycle:   6

                       Coordinates (Angstroms)
     ATOM                X               Y               Z
      1  S         0.0279165808    0.1077749885    0.0326843531
      2  C         1.7610350175    0.0555426084   -0.0057184977
      3  H         2.3215977375    0.0719332983    0.9186864125
      4  C         2.2339334293   -0.0075990791   -1.2904997800
      5  H         3.2891299116   -0.0511009217   -1.5353332482
      6  C         1.1935897855   -0.0290012555   -2.2633046356
      7  H         1.3678669593   -0.1110855907   -3.3298129715
      8  C        -0.0730314263    0.0215840174   -1.7160966123
      9  C        -1.3452022538    0.0483695538   -2.4202081958
     10  C        -1.5748987567    0.4045550144   -3.7343716423
     11  H        -0.7919959253    0.7710957047   -4.3882400974
     12  C        -2.9390488344    0.2832401115   -4.1258902162
     13  H        -3.3062443661    0.5283718155   -5.1160513707
     14  C        -3.7467850300   -0.1610170065   -3.1119194885
     15  H        -4.8145408156   -0.3310432728   -3.1262709319
     16  S        -2.8441360533   -0.4553784361   -1.6609382976
   Point Group: c1    Number of degrees of freedom:    42


   Energy is  -1104.839511963

              Constraints and their Current Values
                                        Value     Constraint
   Dihedral:        6   8   9  10      -20.000      -20.000
 Hessian Updated using BFGS Update

 40 Hessian modes will be used to form the next step
  Hessian Eigenvalues:
     0.009437    0.029414    0.045000    0.045000    0.045001    0.045002
     0.045004    0.045007    0.045012    0.045879    0.050245    0.159449
     0.159946    0.159992    0.160000    0.160081    0.160688    0.221248
     0.221665    0.236905    0.237869    0.250023    0.271774    0.294450
     0.307447    0.312575    0.313903    0.354766    0.354900    0.355129
     0.355206    0.358270    0.358540    0.386082    0.404886    0.425238
     0.462866    0.463599    0.497943    0.500462

 Minimum Search - Taking Simple RFO Step
 Searching for Lamda that Minimizes Along All modes
 Value Taken    Lamda =  -0.00000237
 Step Taken.  Stepsize is  0.010494

                             Maximum     Tolerance    Cnvgd?
         Gradient           0.000164      0.000300     YES
         Displacement       0.006330      0.001200      NO
         Energy change     -0.000006      0.000001      NO


 New Cartesian Coordinates Obtained by Inverse Iteration

 Displacement from previous Coordinates is:  0.013560
 ----------------------------------------------------------------
             Standard Nuclear Orientation (Angstroms)
    I     Atom           X                Y                Z
 ----------------------------------------------------------------
    1      S       0.0278831844     0.1103613782     0.0325370368
    2      C       1.7609612434     0.0565169456    -0.0057227480
    3      H       2.3216099395     0.0738705639     0.9186207155
    4      C       2.2340170212    -0.0089554412    -1.2902922015
    5      H       3.2892355453    -0.0525532823    -1.5350018850
    6      C       1.1937644095    -0.0310460854    -2.2632490144
    7      H       1.3681686346    -0.1132516728    -3.3297504696
    8      C      -0.0728499805     0.0206770928    -1.7164716487
    9      C      -1.3451192750     0.0494359382    -2.4203220318
   10      C      -1.5753320198     0.4065941854    -3.7339911828
   11      H      -0.7925001523     0.7731907631    -4.3879536892
   12      C      -2.9394615077     0.2844867437    -4.1255294109
   13      H      -3.3067847221     0.5296478323    -5.1156344543
   14      C      -3.7465982697    -0.1620001704    -3.1121065943
   15      H      -4.8142117761    -0.3329240115    -3.1267911413
   16      S      -2.8435963146    -0.4578092296    -1.6616265005
 ----------------------------------------------------------------
 Nuclear Repulsion Energy =   631.4372863919 hartrees
 There are       43 alpha and       43 beta electrons
 Applying Cartesian multipole field
    Component          Value
    ---------          -----
     (2,0,0)        1.00000E-11
     (0,2,0)        2.00000E-11
     (0,0,2)       -3.00000E-12
 Nucleus-field energy     =     0.0000000099 hartrees
 Requested basis set is 6-31++G(d,p)
 There are 76 shells and 234 basis functions
 A cutoff of  1.0D-12 yielded   2529 shell pairs
 There are     24877 function pairs

 Q-Chem warning in module /project/projectdirs/jcesr/qchem/qc44/cnl_qc441/compile/cori/qc_src/libqints/qchem/aobasis.C, line 68:

 Using reconstructed effective core potential

 Smallest overlap matrix eigenvalue = 8.71E-07
 Linear dependence detected in AO basis
 Number of orthogonalized atomic orbitals = 233
 Maximum deviation from orthogonality = 4.550E-11
 Guess MOs from SCF MO coefficient file
 Reading MOs from coefficient file
 Reading MOs from coefficient file
 A restricted hybrid HF-DFT SCF calculation will be
 performed using Pulay DIIS extrapolation
 Exchange:     0.2000 Hartree-Fock + 0.0800 Slater + 0.7200 B88
 Correlation:  0.1900 VWN1RPA + 0.8100 LYP
 Using SG-1 standard quadrature grid
 SCF converges when DIIS error is below 1.0E-08
 Geometry optimization detected.  Setting ReadMinima to 0
 Setting SaveMinima to 0
 ---------------------------------------
  Cycle       Energy         DIIS Error
 ---------------------------------------
    1   -1104.8398786076      7.69E-05
    2   -1104.8395130966      6.01E-06
    3   -1104.8395122473      1.25E-05
    4   -1104.8395134783      1.38E-06
[...]


   Energy is  -1104.839513493

              Constraints and their Current Values
                                        Value     Constraint
   Dihedral:        6   8   9  10      -20.000      -20.000
 Hessian Updated using BFGS Update

 41 Hessian modes will be used to form the next step
  Hessian Eigenvalues:
     0.009337    0.020810    0.045000    0.045000    0.045000    0.045001
     0.045002    0.045004    0.045007    0.045012    0.046285    0.049712
     0.159696    0.159944    0.159992    0.159999    0.160046    0.160623
     0.221281    0.222088    0.237837    0.248422    0.250047    0.272122
     0.294432    0.297920    0.312575    0.313696    0.354776    0.354955
     0.355129    0.355211    0.358270    0.358545    0.386047    0.404888
     0.424933    0.463288    0.463599    0.497942    0.500182

 Minimum Search - Taking Simple RFO Step
 Searching for Lamda that Minimizes Along All modes
 Value Taken    Lamda =   0.00000000
 Step Taken.  Stepsize is  0.005405

                             Maximum     Tolerance    Cnvgd?
         Gradient           0.000125      0.000300     YES
         Displacement       0.004118      0.001200      NO
         Energy change     -0.000002      0.000001      NO


 New Cartesian Coordinates Obtained by Inverse Iteration

 Displacement from previous Coordinates is:  0.005375
 ----------------------------------------------------------------
             Standard Nuclear Orientation (Angstroms)
    I     Atom           X                Y                Z
 ----------------------------------------------------------------
    1      S       0.0281632534     0.1113807334     0.0328630593
    2      C       1.7611906284     0.0570551413    -0.0057986251
    3      H       2.3221031777     0.0744706989     0.9183910543
    4      C       2.2339744374    -0.0092558671    -1.2904110860
    5      H       3.2891217023    -0.0531354690    -1.5353682793
    6      C       1.1934761330    -0.0318364715    -2.2631283855
    7      H       1.3677623576    -0.1134463958    -3.3296930452
    8      C      -0.0730143060     0.0202645759    -1.7161981020
    9      C      -1.3453118337     0.0497035481    -2.4199567557
   10      C      -1.5753844017     0.4072716147    -3.7334981085
   11      H      -0.7923538939     0.7732632634    -4.3875605557
   12      C      -2.9393844934     0.2848256679    -4.1254697484
   13      H      -3.3065006233     0.5303333930    -5.1155638802
   14      C      -3.7465824344    -0.1624569026    -3.1124686747
   15      H      -4.8142075069    -0.3333230022    -3.1274550470
   16      S      -2.8438662366    -0.4588729784    -1.6619690404
 ----------------------------------------------------------------
 Nuclear Repulsion Energy =   631.4141217636 hartrees
 There are       43 alpha and       43 beta electrons
 Applying Cartesian multipole field
    Component          Value
    ---------          -----
     (2,0,0)        1.00000E-11
     (0,2,0)        2.00000E-11
     (0,0,2)       -3.00000E-12
 Nucleus-field energy     =     0.0000000099 hartrees
 Requested basis set is 6-31++G(d,p)
 There are 76 shells and 234 basis functions
 A cutoff of  1.0D-12 yielded   2529 shell pairs
 There are     24877 function pairs

 Q-Chem warning in module /project/projectdirs/jcesr/qchem/qc44/cnl_qc441/compile/cori/qc_src/libqints/qchem/aobasis.C, line 68:

 Using reconstructed effective core potential

 Smallest overlap matrix eigenvalue = 8.71E-07
 Linear dependence detected in AO basis
 Number of orthogonalized atomic orbitals = 233
 Maximum deviation from orthogonality = 7.793E-11
 Guess MOs from SCF MO coefficient file
 Reading MOs from coefficient file
 Reading MOs from coefficient file
 A restricted hybrid HF-DFT SCF calculation will be
 performed using Pulay DIIS extrapolation
 Exchange:     0.2000 Hartree-Fock + 0.0800 Slater + 0.7200 B88
 Correlation:  0.1900 VWN1RPA + 0.8100 LYP
 Using SG-1 standard quadrature grid
 SCF converges when DIIS error is below 1.0E-08
 Geometry optimization detected.  Setting ReadMinima to 0
 Setting SaveMinima to 0
 ---------------------------------------
  Cycle       Energy         DIIS Error
 ---------------------------------------
    1   -1104.8396437979      3.02E-05
    2   -1104.8395136944      5.01E-06
    3   -1104.8395130029      1.08E-05
    4   -1104.8395139090      9.70E-07
    5   -1104.8395139161      3.67E-07
    6   -1104.8395139158      2.08E-07
    7   -1104.8395139149      4.11E-08
    8   -1104.8395139150      1.35E-08
    9   -1104.8395139157      2.75E-09 Convergence criterion met
 ---------------------------------------
 SCF time:  CPU 5.04 s  wall 4.61 s
 SCF   energy in the final basis set = -1104.8395139157
 Total energy in the final basis set = -1104.8395139157
 
 --------------------------------------------------------------
 
                    Orbital Energies (a.u.)
 --------------------------------------------------------------
 
 Alpha MOs
 -- Occupied --
-88.920 -88.920 -10.239 -10.239 -10.225 -10.225 -10.205 -10.205
-10.203 -10.203  -7.979  -7.979  -5.944  -5.944  -5.940  -5.940
 -5.937  -5.937  -0.900  -0.878  -0.771  -0.749  -0.737  -0.705
 -0.604  -0.579  -0.554  -0.533  -0.527  -0.477  -0.421  -0.418
 -0.409  -0.403  -0.401  -0.377  -0.374  -0.359  -0.344  -0.280
 -0.264  -0.259  -0.213
 -- Virtual --
 -0.057  -0.014  -0.004  -0.000   0.004   0.014   0.018   0.026
  0.027   0.037   0.038   0.047   0.047   0.059   0.061   0.070
  0.074   0.081   0.088   0.095   0.102   0.104   0.107   0.112
  0.115   0.124   0.126   0.130   0.137   0.139   0.140   0.145
  0.145   0.152   0.161   0.162   0.166   0.179   0.182   0.184
  0.187   0.194   0.194   0.208   0.213   0.220   0.221   0.241
  0.247   0.258   0.264   0.265   0.270   0.276   0.304   0.309
  0.312   0.317   0.323   0.350   0.358   0.374   0.383   0.420
  0.445   0.466   0.496   0.531   0.536   0.553   0.564   0.569
  0.601   0.625   0.628   0.653   0.662   0.667   0.672   0.681
  0.704   0.714   0.722   0.726   0.737   0.750   0.752   0.792
  0.796   0.818   0.830   0.848   0.885   0.918   0.936   0.951
  0.953   0.957   0.962   0.972   0.989   0.990   1.008   1.010
  1.036   1.042   1.075   1.081   1.100   1.106   1.128   1.167
  1.170   1.182   1.187   1.245   1.251   1.329   1.338   1.355
  1.356   1.367   1.381   1.440   1.492   1.512   1.552   1.580
  1.664   1.693   1.718   1.783   1.864   1.874   1.887   1.911
  1.924   1.964   1.985   2.013   2.020   2.070   2.078   2.133
  2.138   2.180   2.183   2.238   2.242   2.283   2.298   2.363
  2.366   2.419   2.454   2.465   2.473   2.504   2.507   2.520
  2.540   2.571   2.579   2.594   2.680   2.691   2.721   2.762
  2.794   2.856   2.935   2.968   3.140   3.212   3.270   3.272
  3.397   3.429   3.710   3.753   3.945   4.010   4.237   4.300
  4.301   4.327   4.402   4.540   4.646   4.730
 --------------------------------------------------------------
 
          Ground-State Mulliken Net Atomic Charges

     Atom                 Charge (a.u.)
  ----------------------------------------
      1 S                    -0.098090
      2 C                     0.007938
      3 H                     0.195835
      4 C                    -0.351215
      5 H                     0.120213
      6 C                     0.326351
      7 H                     0.121838
      8 C                    -0.325227
      9 C                    -0.322609
     10 C                     0.327866
     11 H                     0.121947
     12 C                    -0.349938
     13 H                     0.120240
     14 C                     0.007973
     15 H                     0.195978
     16 S                    -0.099100
  ----------------------------------------
  Sum of atomic charges =     0.000000

 -----------------------------------------------------------------
                    Cartesian Multipole Moments
 -----------------------------------------------------------------
    Charge (ESU x 10^10)
                -0.0000
    Dipole Moment (Debye)
         X       0.4936      Y       0.1423      Z      -0.8877
       Tot       1.0256
    Quadrupole Moments (Debye-Ang)
        XX     -63.4667     XY       0.4609     YY     -78.2677
        XZ       3.0065     YZ      -1.6060     ZZ     -63.3343
    Octopole Moments (Debye-Ang^2)
       XXX     158.9297    XXY      -5.0074    XYY      64.4619
       YYY       1.3627    XXZ     106.8116    XYZ       1.9930
       YYZ     142.4767    XZZ      51.0102    YZZ      12.0579
       ZZZ     350.2455
    Hexadecapole Moments (Debye-Ang^3)
      XXXX   -1828.0491   XXXY      -4.6251   XXYY    -404.6131
      XYYY     -34.6815   YYYY    -135.4116   XXXZ    -560.3050
      XXYZ      11.8517   XYYZ    -245.5190   YYYZ      17.6512
      XXZZ    -639.4531   XYZZ     -30.9545   YYZZ    -451.5731
      XZZZ    -597.4267   YZZZ     -49.3777   ZZZZ   -2136.0040
 -----------------------------------------------------------------
 Calculating analytic gradient of the SCF energy
 Gradient of SCF Energy
            1           2           3           4           5           6
    1  -0.0000191   0.0000038  -0.0000006  -0.0000013   0.0000004   0.0000258
    2  -0.0000037  -0.0000388   0.0000082  -0.0000608   0.0000305   0.0009895
    3   0.0000263  -0.0000020   0.0000012   0.0000161   0.0000030   0.0000034
            7           8           9          10          11          12
    1  -0.0000045   0.0000417  -0.0001527   0.0001223   0.0000044  -0.0000169
    2  -0.0000239  -0.0019969   0.0019641  -0.0009412   0.0000298   0.0000550
    3  -0.0000001  -0.0001725   0.0003663  -0.0002654   0.0000127   0.0000184
           13          14          15          16
    1   0.0000083  -0.0000052   0.0000038  -0.0000101
    2  -0.0000230   0.0000362  -0.0000126  -0.0000122
    3  -0.0000117  -0.0000046  -0.0000143   0.0000232
 Max gradient component =       1.997E-03
 RMS gradient           =       4.565E-04
 Gradient time:  CPU 2.14 s  wall 2.08 s
 Geometry Optimization Parameters
   NAtoms,    NIC,     NZ,  NCons,   NDum,   NFix, NCnnct, MaxDiis
       16     111       0       1       0       0       0       0

 Cartesian Hessian Update
 Hessian Updated using BFGS Update


** CONSTRAINED OPTIMIZATION IN DELOCALIZED INTERNAL COORDINATES **
   Searching for a Minimum

   Optimization Cycle:   8

                       Coordinates (Angstroms)
     ATOM                X               Y               Z
      1  S         0.0281632534    0.1113807334    0.0328630593
      2  C         1.7611906284    0.0570551413   -0.0057986251
      3  H         2.3221031777    0.0744706989    0.9183910543
      4  C         2.2339744374   -0.0092558671   -1.2904110860
      5  H         3.2891217023   -0.0531354690   -1.5353682793
      6  C         1.1934761330   -0.0318364715   -2.2631283855
      7  H         1.3677623576   -0.1134463958   -3.3296930452
      8  C        -0.0730143060    0.0202645759   -1.7161981020
      9  C        -1.3453118337    0.0497035481   -2.4199567557
     10  C        -1.5753844017    0.4072716147   -3.7334981085
     11  H        -0.7923538939    0.7732632634   -4.3875605557
     12  C        -2.9393844934    0.2848256679   -4.1254697484
     13  H        -3.3065006233    0.5303333930   -5.1155638802
     14  C        -3.7465824344   -0.1624569026   -3.1124686747
     15  H        -4.8142075069   -0.3333230022   -3.1274550470
     16  S        -2.8438662366   -0.4588729784   -1.6619690404
   Point Group: c1    Number of degrees of freedom:    42


   Energy is  -1104.839513916

              Constraints and their Current Values
                                        Value     Constraint
   Dihedral:        6   8   9  10      -20.000      -20.000
 Hessian Updated using BFGS Update

 40 Hessian modes will be used to form the next step
  Hessian Eigenvalues:
     0.009234    0.016488    0.042455    0.045000    0.045000    0.045001
     0.045003    0.045004    0.045012    0.045017    0.051353    0.159546
     0.159947    0.159979    0.159992    0.160000    0.160368    0.221276
     0.222584    0.230330    0.237844    0.250015    0.272053    0.294447
     0.307409    0.312585    0.313143    0.354773    0.354915    0.355129
     0.355206    0.358270    0.358541    0.386050    0.404888    0.425735
     0.463589    0.464143    0.497940    0.502246

 Minimum Search - Taking Simple RFO Step
 Searching for Lamda that Minimizes Along All modes
 Value Taken    Lamda =   0.00000000
 Step Taken.  Stepsize is  0.002820

                             Maximum     Tolerance    Cnvgd?
         Gradient           0.000054      0.000300     YES
         Displacement       0.002352      0.001200      NO
         Energy change     -0.000000      0.000001     YES

 Final energy is   -1104.83951391566     


 ******************************
 **  OPTIMIZATION CONVERGED  **
 ******************************

                       Coordinates (Angstroms)
     ATOM                X               Y               Z
      1  S         0.0281632534    0.1113807334    0.0328630593
      2  C         1.7611906284    0.0570551413   -0.0057986251
      3  H         2.3221031777    0.0744706989    0.9183910543
      4  C         2.2339744374   -0.0092558671   -1.2904110860
      5  H         3.2891217023   -0.0531354690   -1.5353682793
      6  C         1.1934761330   -0.0318364715   -2.2631283855
      7  H         1.3677623576   -0.1134463958   -3.3296930452
      8  C        -0.0730143060    0.0202645759   -1.7161981020
      9  C        -1.3453118337    0.0497035481   -2.4199567557
     10  C        -1.5753844017    0.4072716147   -3.7334981085
     11  H        -0.7923538939    0.7732632634   -4.3875605557
     12  C        -2.9393844934    0.2848256679   -4.1254697484
     13  H        -3.3065006233    0.5303333930   -5.1155638802
     14  C        -3.7465824344   -0.1624569026   -3.1124686747
     15  H        -4.8142075069   -0.3333230022   -3.1274550470
     16  S        -2.8438662366   -0.4588729784   -1.6619690404

Z-matrix Print:
$molecule
0 1
S 
C  1 1.734310
H  2 1.081227 1 119.922707
C  2 1.370456 1 111.539293 3 179.825501 0
H  4 1.084096 2 123.334809 1 -179.882792 0
C  4 1.424544 2 112.882613 1 -0.651727 0
H  6 1.083788 4 123.759704 2 -178.039165 0
C  6 1.380524 4 113.513014 2 0.127633 0
C  8 1.454264 6 127.709013 4 178.272888 0
C  9 1.380644 8 127.693727 6 -19.999999 0
H  10 1.083921 9 122.762648 8 -3.662352 0
C  10 1.424476 9 113.521909 8 178.067439 0
H  12 1.084129 10 123.785638 9 179.384850 0
C  12 1.370329 10 112.872863 9 0.113680 0
H  14 1.081315 12 128.530295 10 179.179367 0
S  14 1.733986 12 111.562567 10 -0.632464 0
$end

 
 --------------------------------------------------------------
 
                    Orbital Energies (a.u.)
 --------------------------------------------------------------
 
 Alpha MOs
 -- Occupied --
-88.920 -88.920 -10.239 -10.239 -10.225 -10.225 -10.205 -10.205
-10.203 -10.203  -7.979  -7.979  -5.944  -5.944  -5.940  -5.940
 -5.937  -5.937  -0.900  -0.878  -0.771  -0.749  -0.737  -0.705
 -0.604  -0.579  -0.554  -0.533  -0.527  -0.477  -0.421  -0.418
 -0.409  -0.403  -0.401  -0.377  -0.374  -0.359  -0.344  -0.280
 -0.264  -0.259  -0.213
 -- Virtual --
 -0.057  -0.014  -0.004  -0.000   0.004   0.014   0.018   0.026
  0.027   0.037   0.038   0.047   0.047   0.059   0.061   0.070
  0.074   0.081   0.088   0.095   0.102   0.104   0.107   0.112
  0.115   0.124   0.126   0.130   0.137   0.139   0.140   0.145
  0.145   0.152   0.161   0.162   0.166   0.179   0.182   0.184
  0.187   0.194   0.194   0.208   0.213   0.220   0.221   0.241
  0.247   0.258   0.264   0.265   0.270   0.276   0.304   0.309
  0.312   0.317   0.323   0.350   0.358   0.374   0.383   0.420
  0.445   0.466   0.496   0.531   0.536   0.553   0.564   0.569
  0.601   0.625   0.628   0.653   0.662   0.667   0.672   0.681
  0.704   0.714   0.722   0.726   0.737   0.750   0.752   0.792
  0.796   0.818   0.830   0.848   0.885   0.918   0.936   0.951
  0.953   0.957   0.962   0.972   0.989   0.990   1.008   1.010
  1.036   1.042   1.075   1.081   1.100   1.106   1.128   1.167
  1.170   1.182   1.187   1.245   1.251   1.329   1.338   1.355
  1.356   1.367   1.381   1.440   1.492   1.512   1.552   1.580
  1.664   1.693   1.718   1.783   1.864   1.874   1.887   1.911
  1.924   1.964   1.985   2.013   2.020   2.070   2.078   2.133
  2.138   2.180   2.183   2.238   2.242   2.283   2.298   2.363
  2.366   2.419   2.454   2.465   2.473   2.504   2.507   2.520
  2.540   2.571   2.579   2.594   2.680   2.691   2.721   2.762
  2.794   2.856   2.935   2.968   3.140   3.212   3.270   3.272
  3.397   3.429   3.710   3.753   3.945   4.010   4.237   4.300
  4.301   4.327   4.402   4.540   4.646   4.730
 --------------------------------------------------------------
 
          Ground-State Mulliken Net Atomic Charges

     Atom                 Charge (a.u.)
  ----------------------------------------
      1 S                    -0.098090
      2 C                     0.007938
      3 H                     0.195835
      4 C                    -0.351215
      5 H                     0.120213
      6 C                     0.326351
      7 H                     0.121838
      8 C                    -0.325227
      9 C                    -0.322609
     10 C                     0.327866
     11 H                     0.121947
     12 C                    -0.349938
     13 H                     0.120240
     14 C                     0.007973
     15 H                     0.195978
     16 S                    -0.099100
  ----------------------------------------
  Sum of atomic charges =     0.000000

 -----------------------------------------------------------------
                    Cartesian Multipole Moments
 -----------------------------------------------------------------
    Charge (ESU x 10^10)
                -0.0000
    Dipole Moment (Debye)
         X       0.4936      Y       0.1423      Z      -0.8877
       Tot       1.0256
    Quadrupole Moments (Debye-Ang)
        XX     -63.4667     XY       0.4609     YY     -78.2677
        XZ       3.0065     YZ      -1.6060     ZZ     -63.3343
    Octopole Moments (Debye-Ang^2)
       XXX     158.9297    XXY      -5.0074    XYY      64.4619
       YYY       1.3627    XXZ     106.8116    XYZ       1.9930
       YYZ     142.4767    XZZ      51.0102    YZZ      12.0579
       ZZZ     350.2455
    Hexadecapole Moments (Debye-Ang^3)
      XXXX   -1828.0491   XXXY      -4.6251   XXYY    -404.6131
      XYYY     -34.6815   YYYY    -135.4116   XXXZ    -560.3050
      XXYZ      11.8517   XYYZ    -245.5190   YYYZ      17.6512
      XXZZ    -639.4531   XYZZ     -30.9545   YYZZ    -451.5731
      XZZZ    -597.4267   YZZZ     -49.3777   ZZZZ   -2136.0040
 -----------------------------------------------------------------
Archival summary:
1\1\nid00489\OPT\ProcedureUnspecified\BasisUnspecified\286\bwood\WedMay3102:25:562017WedMay3102:25:562017\0\\#,OPT,ProcedureUnspecified,BasisUnspecified,\\0,1\S\C,1,1.73431\H,2,1.08123,1,119.923\C,2,1.37046,1,111.539,3,179.826,0\H,4,1.0841,2,123.335,1,-179.883,0\C,4,1.42454,2,112.883,1,-0.651727,0\H,6,1.08379,4,123.76,2,-178.039,0\C,6,1.38052,4,113.513,2,0.127633,0\C,8,1.45426,6,127.709,4,178.273,0\C,9,1.38064,8,127.694,6,-20,0\H,10,1.08392,9,122.763,8,-3.66235,0\C,10,1.42448,9,113.522,8,178.067,0\H,12,1.08413,10,123.786,9,179.385,0\C,12,1.37033,10,112.873,9,0.11368,0\H,14,1.08132,12,128.53,10,179.179,0\S,14,1.73399,12,111.563,10,-0.632464,0\\\@

 Total job time:  67.25s(wall), 66.18s(cpu) 
 Wed May 31 02:25:56 2017

        *************************************************************
        *                                                           *
        *  Thank you very much for using Q-Chem.  Have a nice day.  *
        *                                                           *
        *************************************************************


0 sent ACK to 0 
now end server 0 ... 
