srun -N 1 --ntasks-per-node 16 --cpus-per-task 4 --cpu_bind=cores --nodelist nid00479 /global/project/projectdirs/jcesr/qchem/qc44/cnl_qc441/dist/exe/qcprog.cori.haswell.exe .pt_n2_neutral_70.0.in.48308.qcin.1 /global/cscratch1/sd/bwood/qchem/nx/qchem48308/
Process 1 of 16 is on nid00479 - thread support 0
Process 2 of 16 is on nid00479 - thread support 0
Process 3 of 16 is on nid00479 - thread support 0
Process 4 of 16 is on nid00479 - thread support 0
Process 5 of 16 is on nid00479 - thread support 0
Process 6 of 16 is on nid00479 - thread support 0
Process 0 of 16 is on nid00479 - thread support 0
initial socket setup ...start
Process 15 of 16 is on nid00479 - thread support 0
initial socket setup ...done 
now start server 0 ... 
nid00479 10.128.1
Q-Chem Developer Version! Running on 10.128.1.*
                  Welcome to Q-Chem
     A Quantum Leap Into The Future Of Chemistry


 Q-Chem 4.4, Q-Chem, Inc., Pleasanton, CA (2016)

 Y. Shao,  Z. Gan,  E. Epifanovsky,  A. T. B. Gilbert,  M. Wormit,  
 J. Kussmann,  A. W. Lange,  A. Behn,  J. Deng,  X. Feng,  D. Ghosh,  
 M. Goldey,  P. R. Horn,  L. D. Jacobson,  I. Kaliman,  F. Rob,  
 R. Z. Khaliullin,  T. Kus,  A. Landau,  J. Liu,  E. I. Proynov,  Y. M. Rhee,  
 R. M. Richard,  M. A. Rohrdanz,  R. P. Steele,  E. J. Sundstrom,  
 H. L. Woodcock III,  P. M. Zimmerman,  D. Zuev,  B. Albrecht,  E. Alguire,  
 B. Austin,  S. A. Baeppler,  G. J. O. Beran,  Y. A. Bernard,  
 E. J. Berquist,  K. Brandhorst,  K. B. Bravaya,  S. T. Brown,  D. Casanova,  
 C.-M. Chang,  Y. Chen,  S. H. Chien,  K. D. Closser,  M. P. Coons,  
 D. L. Crittenden,  S. Dasgupta,  M. Diedenhofen,  R. A. DiStasio Jr.,  
 H. Do,  A. D. Dutoi,  R. G. Edgar,  P.-T. Fang,  S. Fatehi,  Q. Feng,  
 L. Fusti-Molnar,  A. Ghysels,  A. Golubeva-Zadorozhnaya,  J. Gomes,  
 A. Gunina,  M. W. D. Hanson-Heine,  P. H. P. Harbach,  A. W. Hauser,  
 J. E. Herr,  E. G. Hohenstein,  Z. C. Holden,  K. Hui,  T.-C. Jagau,  H. Ji,  
 B. Kaduk,  K. Khistyaev,  Jaehoon Kim,  Jihan Kim,  R. A. King,  
 P. Klunzinger,  K. Koh,  D. Kosenkov,  T. Kowalczyk,  C. M. Krauter,  
 A. Kunitsa,  K. U. Lao,  A. Laurent,  K. V. Lawler,  J. Lee,  D. Lefrancois,  
 S. Lehtola,  S. V. Levchenko,  C. Y. Lin,  Y.-S. Lin,  F. Liu,  E. Livshits,  
 R. C. Lochan,  A. Luenser,  P. Manohar,  S. F. Manzer,  S.-P. Mao,  Y. Mao,  
 N. Mardirossian,  A. V. Marenich,  L. A. Martinez-Martinez,  S. A. Maurer,  
 N. J. Mayhall,  J.-M. Mewes,  A. F. Morrison,  K. Nanda,  T. S. Nguyen-Beck,  
 C. M. Oana,  R. Olivares-Amaya,  D. P. O'Neill,  J. A. Parkhill,  
 T. M. Perrine,  R. Peverati,  P. A. Pieniazek,  F. Plasser,  A. Prociuk,  
 D. R. Rehn,  E. Rosta,  N. J. Russ,  N. Sergueev,  S. M. Sharada,  
 S. Sharma,  D. W. Small,  A. Sodt,  T. Stauch,  T. Stein,  D. Stuck,  
 Y.-C. Su,  A. J. W. Thom,  T. Tsuchimochi,  L. Vogt,  O. Vydrov,  T. Wang,  
 M. A. Watson,  J. Wenzel,  A. White,  C. F. Williams,  V. Vanovschi,  
 K. Yao,  S. Yeganeh,  S. R. Yost,  Z.-Q. You,  I. Y. Zhang,  X. Zhang,  
 Y. Zhao,  B. R. Brooks,  G. K. L. Chan,  D. M. Chipman,  C. J. Cramer,  
 W. A. Goddard III,  M. S. Gordon,  W. J. Hehre,  A. Klamt,  
 H. F. Schaefer III,  M. W. Schmidt,  C. D. Sherrill,  D. G. Truhlar,  
 A. Warshel,  X. Xu,  A. Aspuru-Guzik,  R. Baer,  A. T. Bell,  N. A. Besley,  
 J.-D. Chai,  A. Dreuw,  B. D. Dunietz,  T. R. Furlani,  S. R. Gwaltney,  
 C.-P. Hsu,  Y. Jung,  J. Kong,  D. S. Lambrecht,  W. Liang,  C. Ochsenfeld,  
 V. A. Rassolov,  L. V. Slipchenko,  J. E. Subotnik,  T. Van Voorhis,  
 J. M. Herbert,  A. I. Krylov,  P. M. W. Gill,  M. Head-Gordon

 Contributors to earlier versions of Q-Chem not listed above: 
 R. D. Adamson,  J. Baker,  E. F. C. Byrd,  A. K. Chakraborty,  C.-L. Cheng,  
 H. Dachsel,  R. J. Doerksen,  G. Hawkins,  A. Heyden,  S. Hirata,  
 G. Kedziora,  F. J. Keil,  C. Kelley,  P. P. Korambath,  W. Kurlancheek,  
 A. M. Lee,  M. S. Lee,  D. Liotard,  I. Lotan,  P. E. Maslen,  N. Nair,  
 D. Neuhauser,  R. Olson,  B. Peters,  J. Ritchie,  N. E. Schultz,  
 N. Shenvi,  A. C. Simmonett,  K. S. Thanthiriwatte,  Q. Wu,  W. Zhang

 Please cite Q-Chem as follows:
 Y. Shao et al., Mol. Phys. 113, 184-215 (2015)
 DOI: 10.1080/00268976.2014.952696

 Q-Chem 4.4.2 for Intel X86 EM64T Linux

 Parts of Q-Chem use Armadillo 5.200.1 (Boston Tea Smuggler).
 http://arma.sourceforge.net/

 Q-Chem begins on Wed May 31 02:24:44 2017  

Host: nid00447
0

     Scratch files written to /global/cscratch1/sd/bwood/qchem/nx/qchem48308.0//
 Parallel job on  16  processors

Checking the input file for inconsistencies... 	...done.

--------------------------------------------------------------
User input:
--------------------------------------------------------------
$molecule
 0  1
 S           0.00238887        0.06077275        0.00183269
 C           1.73707619        0.03315849        0.00323229
 H           2.27612737        0.05289032        0.94042557
 C           2.24169204       -0.01546201       -1.26965798
 H           3.30285780       -0.04005365       -1.48972496
 C           1.22479222       -0.01612968       -2.26811464
 H           1.42674790       -0.02650987       -3.33334501
 C          -0.05393771        0.02880388       -1.75170966
 C          -1.32450815        0.04889988       -2.45636342
 C          -1.93317100       -0.95762694       -3.17780069
 H          -1.49975587       -1.94548650       -3.28781381
 C          -3.19197320       -0.58070848       -3.72937501
 H          -3.81552608       -1.24405170       -4.31780701
 C          -3.54033841        0.70927600       -3.42652868
 H          -4.43590320        1.24740017       -3.70557588
 S          -2.32170939        1.49321864       -2.47263533
$end


$rem
         jobtype = opt
        exchange = b3lyp
           basis = 6-31++g**
  max_scf_cycles = 150
      mem_static = 775
       mem_total = 7750
      sym_ignore = true
        symmetry = false
          thresh = 12
$end


$opt
CONSTRAINT
tors 6 8 9 10 70.0
ENDCONSTRAINT
$end

--------------------------------------------------------------
 ----------------------------------------------------------------
             Standard Nuclear Orientation (Angstroms)
    I     Atom           X                Y                Z
 ----------------------------------------------------------------
    1      S       0.0023888700     0.0607727500     0.0018326900
    2      C       1.7370761900     0.0331584900     0.0032322900
    3      H       2.2761273700     0.0528903200     0.9404255700
    4      C       2.2416920400    -0.0154620100    -1.2696579800
    5      H       3.3028578000    -0.0400536500    -1.4897249600
    6      C       1.2247922200    -0.0161296800    -2.2681146400
    7      H       1.4267479000    -0.0265098700    -3.3333450100
    8      C      -0.0539377100     0.0288038800    -1.7517096600
    9      C      -1.3245081500     0.0488998800    -2.4563634200
   10      C      -1.9331710000    -0.9576269400    -3.1778006900
   11      H      -1.4997558700    -1.9454865000    -3.2878138100
   12      C      -3.1919732000    -0.5807084800    -3.7293750100
   13      H      -3.8155260800    -1.2440517000    -4.3178070100
   14      C      -3.5403384100     0.7092760000    -3.4265286800
   15      H      -4.4359032000     1.2474001700    -3.7055758800
   16      S      -2.3217093900     1.4932186400    -2.4726353300
 ----------------------------------------------------------------
 Nuclear Repulsion Energy =   629.5915733006 hartrees
 There are       43 alpha and       43 beta electrons
 Requested basis set is 6-31++G(d,p)
 There are 76 shells and 234 basis functions

 Total QAlloc Memory Limit   7750 MB
 Mega-Array Size       758 MB
 MEM_STATIC part       775 MB
 A cutoff of  1.0D-12 yielded   2527 shell pairs
 There are     24921 function pairs

 Q-Chem warning in module /project/projectdirs/jcesr/qchem/qc44/cnl_qc441/compile/cori/qc_src/libqints/qchem/aobasis.C, line 68:

 Using reconstructed effective core potential

 
 -------------------------------------------------------
 OpenMP Integral Computing Module                       
 Release: version 1.0, May 2013, Q-Chem Inc. Pittsburgh 
 -------------------------------------------------------
 Integral Job Info:
 Integral job number is                      11
 Integral operator is                         1
 short-range coefficients                     0
 long-range coefficients              100000000
 Omega coefficients                           0
 if combine SR and LR in K                    0
 Integral screening is                        0
 Integral computing path is                   2
 max size of driver memory is            800000
 size of driver memory is                593474
 size of scratch memory is             15166112
 max col of scratch BK array               1296
 max len of scratch array in speh3          155
 max len of scratch index in speh4           18
 max int batch size is                      520
 min int batch size is                       52
 fixed nKL is                                52
 max L of basis functions is                  2
 order of int derivative is                   0
 number of shells is                         76
 number of basis is                         234
 number of cartesian basis is               234
 number of contracted shell pairs          2527
 number of primitive shell pairs           8215
 maxK2 (contraction) of shell pair           36
 max number of K2 of shell pair               1
 max number of CS2 of shell pair            262
 max number of PS2 of shell pair           1500
 mem total for path MDJ                   51992
 -------------------------------------------------------
 Smallest overlap matrix eigenvalue = 1.14E-06

 Scale SEOQF with 1.000000e-01/1.000000e-01/1.000000e-01

 Standard Electronic Orientation quadrupole field applied
 Nucleus-field energy     =    -0.0000000329 hartrees
 Guess from superposition of atomic densities
 Warning:  Energy on first SCF cycle will be non-variational
 A restricted hybrid HF-DFT SCF calculation will be
 performed using Pulay DIIS extrapolation
 Exchange:     0.2000 Hartree-Fock + 0.0800 Slater + 0.7200 B88
 Correlation:  0.1900 VWN1RPA + 0.8100 LYP
 Using SG-1 standard quadrature grid
 SCF converges when DIIS error is below 1.0E-08
 ---------------------------------------
  Cycle       Energy         DIIS Error
 ---------------------------------------
    1   -1107.1622473209      4.40E-02
    2   -1104.6670926602      4.69E-03
    3   -1104.4095846548      7.24E-03
    4   -1104.8285674936      1.02E-03
    5   -1104.8360488409      4.73E-04
    6   -1104.8375645035      1.31E-04
    7   -1104.8376846023      3.82E-05
    8   -1104.8376925102      1.66E-05
    9   -1104.8376946191      2.88E-06
   10   -1104.8376946798      9.27E-07
   11   -1104.8376946841      4.55E-07
   12   -1104.8376946868      6.21E-08
   13   -1104.8376946860      3.47E-08
   14   -1104.8376946859      7.99E-09 Convergence criterion met
 ---------------------------------------
 SCF time:  CPU 7.54 s  wall 7.21 s
 SCF   energy in the final basis set = -1104.8376946859
 Total energy in the final basis set = -1104.8376946859
 
 --------------------------------------------------------------
 
                    Orbital Energies (a.u.)
 --------------------------------------------------------------
 
 Alpha MOs
 -- Occupied --
-88.919 -88.919 -10.236 -10.235 -10.225 -10.225 -10.204 -10.204
-10.203 -10.203  -7.978  -7.978  -5.942  -5.942  -5.939  -5.938
 -5.935  -5.935  -0.898  -0.877  -0.770  -0.744  -0.740  -0.705
 -0.602  -0.570  -0.562  -0.534  -0.523  -0.477  -0.418  -0.415
 -0.413  -0.405  -0.395  -0.375  -0.374  -0.351  -0.349  -0.264
 -0.257  -0.255  -0.231
 -- Virtual --
 -0.042  -0.026  -0.006  -0.002   0.006   0.014   0.019   0.025
  0.026   0.035   0.035   0.042   0.045   0.046   0.065   0.066
  0.071   0.072   0.085   0.100   0.102   0.104   0.107   0.116
  0.117   0.118   0.123   0.130   0.132   0.133   0.139   0.144
  0.146   0.150   0.159   0.162   0.163   0.175   0.178   0.182
  0.184   0.189   0.194   0.204   0.214   0.218   0.223   0.230
  0.240   0.250   0.257   0.263   0.272   0.275   0.300   0.301
  0.309   0.317   0.323   0.331   0.354   0.366   0.372   0.395
  0.433   0.467   0.472   0.502   0.524   0.525   0.552   0.574
  0.580   0.592   0.609   0.646   0.652   0.654   0.670   0.674
  0.689   0.698   0.725   0.726   0.739   0.762   0.765   0.773
  0.777   0.802   0.805   0.828   0.843   0.898   0.905   0.941
  0.952   0.956   0.963   0.967   0.969   0.990   0.993   1.016
  1.017   1.028   1.042   1.051   1.082   1.098   1.101   1.104
  1.131   1.183   1.206   1.221   1.235   1.283   1.320   1.349
  1.353   1.362   1.365   1.387   1.456   1.467   1.494   1.530
  1.571   1.692   1.694   1.793   1.812   1.857   1.883   1.885
  1.913   1.925   1.943   1.959   2.020   2.020   2.064   2.082
  2.132   2.165   2.186   2.207   2.216   2.247   2.258   2.328
  2.365   2.370   2.431   2.445   2.460   2.478   2.491   2.511
  2.515   2.531   2.585   2.586   2.628   2.631   2.696   2.707
  2.764   2.810   2.872   2.877   2.943   3.156   3.185   3.271
  3.272   3.402   3.428   3.720   3.743   3.962   3.977   4.279
  4.311   4.320   4.330   4.431   4.535   4.660   4.714
 --------------------------------------------------------------
 
          Ground-State Mulliken Net Atomic Charges

     Atom                 Charge (a.u.)
  ----------------------------------------
      1 S                     0.032821
      2 C                    -0.027567
      3 H                     0.188568
      4 C                    -0.426449
      5 H                     0.116974
      6 C                     0.366623
      7 H                     0.137793
      8 C                    -0.392295
      9 C                    -0.387076
     10 C                     0.368274
     11 H                     0.137520
     12 C                    -0.425938
     13 H                     0.116963
     14 C                    -0.026815
     15 H                     0.188615
     16 S                     0.031991
  ----------------------------------------
  Sum of atomic charges =     0.000000

 -----------------------------------------------------------------
                    Cartesian Multipole Moments
 -----------------------------------------------------------------
    Charge (ESU x 10^10)
                 0.0000
    Dipole Moment (Debye)
         X       0.3146      Y      -0.4971      Z      -0.5837
       Tot       0.8288
    Quadrupole Moments (Debye-Ang)
        XX     -64.0643     XY      -0.3753     YY     -74.0068
        XZ       4.7504     YZ       2.5181     ZZ     -67.8552
    Octopole Moments (Debye-Ang^2)
       XXX     157.8064    XXY      -7.5270    XYY      47.1971
       YYY     -47.7612    XXZ     105.6059    XYZ      -0.3795
       YYZ     134.2189    XZZ      43.2643    YZZ     -26.0974
       ZZZ     409.0911
    Hexadecapole Moments (Debye-Ang^3)
      XXXX   -1756.7171   XXXY      65.7235   XXYY    -365.5937
      XYYY     111.8737   YYYY    -348.0948   XXXZ    -591.3732
      XXYZ      10.7040   XYYZ    -212.3296   YYYZ      98.7309
      XXZZ    -583.2224   XYZZ      50.4852   YYZZ    -447.1021
      XZZZ    -675.0467   YZZZ     136.3708   ZZZZ   -2462.8535
 -----------------------------------------------------------------
 Calculating analytic gradient of the SCF energy
 Gradient of SCF Energy
            1           2           3           4           5           6
    1  -0.0020558   0.0017878  -0.0003795  -0.0008434  -0.0000987   0.0026833
    2  -0.0012699   0.0004731   0.0001889   0.0000859  -0.0000174   0.0001084
    3  -0.0005417  -0.0005994  -0.0000062  -0.0006964   0.0000013  -0.0000946
            7           8           9          10          11          12
    1   0.0010094  -0.0086762   0.0070011  -0.0019011  -0.0008628   0.0010252
    2   0.0001578   0.0008297   0.0017266  -0.0012434  -0.0004815  -0.0004188
    3   0.0000837  -0.0021336   0.0055361  -0.0014509  -0.0004353   0.0006251
           13          14          15          16
    1   0.0000984  -0.0010906   0.0001709   0.0021320
    2   0.0000924  -0.0014128   0.0001094   0.0010717
    3   0.0000648  -0.0005938   0.0003443  -0.0001032
 Max gradient component =       8.676E-03
 RMS gradient           =       2.052E-03
 Gradient time:  CPU 2.10 s  wall 2.07 s
 Geometry Optimization Parameters
   NAtoms,    NIC,     NZ,  NCons,   NDum,   NFix, NCnnct, MaxDiis
       16     111       0       1       0       0       0       0


** CONSTRAINED OPTIMIZATION IN DELOCALIZED INTERNAL COORDINATES **
   Searching for a Minimum

   Optimization Cycle:   1

                       Coordinates (Angstroms)
     ATOM                X               Y               Z
      1  S         0.0023888700    0.0607727500    0.0018326900
      2  C         1.7370761900    0.0331584900    0.0032322900
      3  H         2.2761273700    0.0528903200    0.9404255700
      4  C         2.2416920400   -0.0154620100   -1.2696579800
      5  H         3.3028578000   -0.0400536500   -1.4897249600
      6  C         1.2247922200   -0.0161296800   -2.2681146400
      7  H         1.4267479000   -0.0265098700   -3.3333450100
      8  C        -0.0539377100    0.0288038800   -1.7517096600
      9  C        -1.3245081500    0.0488998800   -2.4563634200
     10  C        -1.9331710000   -0.9576269400   -3.1778006900
     11  H        -1.4997558700   -1.9454865000   -3.2878138100
     12  C        -3.1919732000   -0.5807084800   -3.7293750100
     13  H        -3.8155260800   -1.2440517000   -4.3178070100
     14  C        -3.5403384100    0.7092760000   -3.4265286800
     15  H        -4.4359032000    1.2474001700   -3.7055758800
     16  S        -2.3217093900    1.4932186400   -2.4726353300
   Point Group: c1    Number of degrees of freedom:    42


   Energy is  -1104.837694686

              Constraints and their Current Values
                                        Value     Constraint
   Dihedral:        6   8   9  10       70.000       70.000

 Attempting to Generate Delocalized Internal Coordinates

 41 Hessian modes will be used to form the next step
  Hessian Eigenvalues:
     0.045000    0.045000    0.045000    0.045000    0.045000    0.045000
     0.045002    0.045002    0.045003    0.045004    0.045011    0.045012
     0.159943    0.159949    0.159991    0.159992    0.160000    0.160000
     0.221282    0.221282    0.237835    0.237839    0.250000    0.250000
     0.294264    0.294663    0.312518    0.312618    0.354736    0.354850
     0.355125    0.355132    0.358226    0.358329    0.378510    0.404854
     0.404909    0.463547    0.463616    0.497922    0.497945

 Minimum Search - Taking Simple RFO Step
 Searching for Lamda that Minimizes Along All modes
 Value Taken    Lamda =  -0.00039506
 Step Taken.  Stepsize is  0.053725

                             Maximum     Tolerance    Cnvgd?
         Gradient           0.004450      0.000300      NO
         Displacement       0.021269      0.001200      NO
         Energy change     *********      0.000001      NO


 New Cartesian Coordinates Obtained by Inverse Iteration

 Displacement from previous Coordinates is:  0.119229
 ----------------------------------------------------------------
             Standard Nuclear Orientation (Angstroms)
    I     Atom           X                Y                Z
 ----------------------------------------------------------------
    1      S       0.0149165585     0.0761189007     0.0134619235
    2      C       1.7471280267     0.0283643061     0.0055032485
    3      H       2.2938838497     0.0422130147     0.9386588165
    4      C       2.2434527992    -0.0213053813    -1.2710152581
    5      H       3.3031207513    -0.0535868473    -1.4978801962
    6      C       1.2187201581    -0.0134805241    -2.2637030728
    7      H       1.4069253844    -0.0267042654    -3.3312531514
    8      C      -0.0537451952     0.0331806920    -1.7409398819
    9      C      -1.3326464149     0.0562102105    -2.4526216372
   10      C      -1.9329192860    -0.9522331990    -3.1719985219
   11      H      -1.4871463142    -1.9349374600    -3.2767242457
   12      C      -3.1898782203    -0.5806894996    -3.7358378697
   13      H      -3.8050205777    -1.2467066039    -4.3304880773
   14      C      -3.5462740643     0.7081805338    -3.4360641916
   15      H      -4.4419855638     1.2415755103    -3.7245525581
   16      S      -2.3436725116     1.4921919125    -2.4655068566
 ----------------------------------------------------------------
 Nuclear Repulsion Energy =   628.8415420917 hartrees
 There are       43 alpha and       43 beta electrons
 Applying Cartesian multipole field
    Component          Value
    ---------          -----
     (2,0,0)        1.00000E-11
     (0,2,0)        2.00000E-11
     (0,0,2)       -3.00000E-11
 Nucleus-field energy     =    -0.0000000328 hartrees
 Requested basis set is 6-31++G(d,p)
 There are 76 shells and 234 basis functions
 A cutoff of  1.0D-12 yielded   2525 shell pairs
 There are     24913 function pairs

 Q-Chem warning in module /project/projectdirs/jcesr/qchem/qc44/cnl_qc441/compile/cori/qc_src/libqints/qchem/aobasis.C, line 68:

 Using reconstructed effective core potential

 Smallest overlap matrix eigenvalue = 1.20E-06
 Guess MOs from SCF MO coefficient file
 Reading MOs from coefficient file
 Reading MOs from coefficient file
 A restricted hybrid HF-DFT SCF calculation will be
 performed using Pulay DIIS extrapolation
 Exchange:     0.2000 Hartree-Fock + 0.0800 Slater + 0.7200 B88
 Correlation:  0.1900 VWN1RPA + 0.8100 LYP
 Using SG-1 standard quadrature grid
 SCF converges when DIIS error is below 1.0E-08
 Geometry optimization detected.  Setting ReadMinima to 0
 Setting SaveMinima to 0
 ---------------------------------------
  Cycle       Energy         DIIS Error
 ---------------------------------------
    1   -1104.8401618998      6.32E-04
    2   -1104.8378174573      1.12E-04
    3   -1104.8375557721      2.18E-04
    4   -1104.8379097264      3.60E-05
    5   -1104.8379188324      8.79E-06
    6   -1104.8379193308      2.50E-06
    7   -1104.8379193672      1.11E-06
    8   -1104.8379193753      4.69E-07
    9   -1104.8379193763      5.57E-08
   10   -1104.8379193775      2.45E-08
   11   -1104.8379193769      6.11E-09 Convergence criterion met
 ---------------------------------------
 SCF time:  CPU 6.08 s  wall 5.68 s
 SCF   energy in the final basis set = -1104.8379193769
 Total energy in the final basis set = -1104.8379193769
 
 --------------------------------------------------------------
 
                    Orbital Energies (a.u.)
 --------------------------------------------------------------
 
 Alpha MOs
 -- Occupied --
-88.919 -88.919 -10.236 -10.236 -10.225 -10.225 -10.204 -10.204
-10.203 -10.203  -7.978  -7.978  -5.942  -5.942  -5.939  -5.938
 -5.935  -5.935  -0.898  -0.877  -0.769  -0.744  -0.739  -0.705
 -0.601  -0.570  -0.562  -0.534  -0.523  -0.478  -0.418  -0.414
 -0.413  -0.405  -0.394  -0.375  -0.374  -0.351  -0.349  -0.264
 -0.257  -0.256  -0.231
 -- Virtual --
 -0.041  -0.025  -0.006  -0.002   0.006   0.014   0.019   0.025
  0.026   0.035   0.035   0.042   0.045   0.046   0.065   0.066
  0.071   0.072   0.086   0.100   0.102   0.105   0.107   0.116
  0.117   0.117   0.122   0.130   0.132   0.133   0.139   0.144
  0.145   0.150   0.159   0.162   0.163   0.175   0.178   0.182
  0.184   0.189   0.195   0.203   0.213   0.218   0.223   0.229
  0.239   0.250   0.258   0.263   0.272   0.274   0.299   0.302
  0.308   0.315   0.323   0.330   0.355   0.366   0.372   0.395
  0.433   0.467   0.473   0.501   0.524   0.524   0.552   0.574
  0.580   0.593   0.609   0.644   0.650   0.654   0.669   0.674
  0.689   0.699   0.725   0.727   0.737   0.759   0.764   0.774
  0.776   0.802   0.804   0.828   0.842   0.898   0.905   0.943
  0.953   0.957   0.963   0.967   0.970   0.989   0.992   1.015
  1.017   1.028   1.041   1.051   1.081   1.099   1.101   1.104
  1.129   1.183   1.206   1.220   1.236   1.284   1.323   1.348
  1.353   1.360   1.362   1.389   1.454   1.463   1.495   1.529
  1.571   1.692   1.694   1.787   1.810   1.861   1.880   1.883
  1.912   1.924   1.942   1.960   2.018   2.020   2.064   2.083
  2.132   2.166   2.186   2.208   2.216   2.247   2.254   2.325
  2.365   2.370   2.432   2.445   2.460   2.477   2.491   2.512
  2.514   2.531   2.585   2.585   2.629   2.629   2.695   2.706
  2.761   2.810   2.871   2.874   2.939   3.156   3.185   3.269
  3.271   3.402   3.426   3.720   3.742   3.961   3.977   4.278
  4.310   4.322   4.328   4.429   4.535   4.659   4.712
 --------------------------------------------------------------
 
          Ground-State Mulliken Net Atomic Charges

     Atom                 Charge (a.u.)
  ----------------------------------------
      1 S                     0.035780
      2 C                    -0.030424
      3 H                     0.189088
      4 C                    -0.421987
      5 H                     0.117069
      6 C                     0.346112
      7 H                     0.138350
      8 C                    -0.376956
      9 C                    -0.372987
     10 C                     0.347908
     11 H                     0.138091
     12 C                    -0.421504
     13 H                     0.117090
     14 C                    -0.029618
     15 H                     0.189131
     16 S                     0.034857
  ----------------------------------------
  Sum of atomic charges =    -0.000000

 -----------------------------------------------------------------
                    Cartesian Multipole Moments
 -----------------------------------------------------------------
    Charge (ESU x 10^10)
                 0.0000
    Dipole Moment (Debye)
         X       0.3200      Y      -0.5048      Z      -0.5938
       Tot       0.8425
    Quadrupole Moments (Debye-Ang)
        XX     -64.0713     XY      -0.4463     YY     -74.0636
        XZ       4.8228     YZ       2.5249     ZZ     -67.7793
    Octopole Moments (Debye-Ang^2)
       XXX     158.2682    XXY      -7.6934    XYY      47.4755
       YYY     -48.4547    XXZ     105.2811    XYZ      -0.2305
       YYZ     134.1236    XZZ      42.9825    YZZ     -26.2643
       ZZZ     407.7131
    Hexadecapole Moments (Debye-Ang^3)
      XXXX   -1766.7500   XXXY      66.2808   XXYY    -367.5589
      XYYY     114.0063   YYYY    -348.0486   XXXZ    -592.9151
      XXYZ      10.0338   XYYZ    -213.7919   YYYZ      99.0661
      XXZZ    -582.8650   XYZZ      50.4170   YYZZ    -447.1733
      XZZZ    -675.1537   YZZZ     136.2529   ZZZZ   -2457.8428
 -----------------------------------------------------------------
 Calculating analytic gradient of the SCF energy
 Gradient of SCF Energy
            1           2           3           4           5           6
    1   0.0000753   0.0007901  -0.0001055  -0.0005912   0.0000202   0.0003577
    2  -0.0002673  -0.0001513   0.0000799   0.0001230   0.0000396   0.0009612
    3  -0.0001421   0.0004661   0.0000984  -0.0001327   0.0000219   0.0003844
            7           8           9          10          11          12
    1   0.0001977  -0.0011223   0.0017364  -0.0009011  -0.0002409   0.0004259
    2   0.0001477  -0.0011041   0.0001232  -0.0000621  -0.0000871   0.0000717
    3   0.0000604  -0.0007473  -0.0003046   0.0006254   0.0000300   0.0004304
           13          14          15          16
    1  -0.0000493  -0.0007199  -0.0000076   0.0001344
    2  -0.0000161   0.0000841   0.0000906  -0.0000331
    3   0.0000147  -0.0006292   0.0000989  -0.0002748
 Max gradient component =       1.736E-03
 RMS gradient           =       4.890E-04
 Gradient time:  CPU 2.05 s  wall 2.06 s
 Geometry Optimization Parameters
   NAtoms,    NIC,     NZ,  NCons,   NDum,   NFix, NCnnct, MaxDiis
       16     111       0       1       0       0       0       0

 Cartesian Hessian Update
 Hessian Updated using BFGS Update


** CONSTRAINED OPTIMIZATION IN DELOCALIZED INTERNAL COORDINATES **
   Searching for a Minimum

   Optimization Cycle:   2

                       Coordinates (Angstroms)
     ATOM                X               Y               Z
      1  S         0.0149165585    0.0761189007    0.0134619235
      2  C         1.7471280267    0.0283643061    0.0055032485
      3  H         2.2938838497    0.0422130147    0.9386588165
      4  C         2.2434527992   -0.0213053813   -1.2710152581
      5  H         3.3031207513   -0.0535868473   -1.4978801962
      6  C         1.2187201581   -0.0134805241   -2.2637030728
      7  H         1.4069253844   -0.0267042654   -3.3312531514
      8  C        -0.0537451952    0.0331806920   -1.7409398819
      9  C        -1.3326464149    0.0562102105   -2.4526216372
     10  C        -1.9329192860   -0.9522331990   -3.1719985219
     11  H        -1.4871463142   -1.9349374600   -3.2767242457
     12  C        -3.1898782203   -0.5806894996   -3.7358378697
     13  H        -3.8050205777   -1.2467066039   -4.3304880773
     14  C        -3.5462740643    0.7081805338   -3.4360641916
     15  H        -4.4419855638    1.2415755103   -3.7245525581
     16  S        -2.3436725116    1.4921919125   -2.4655068566
   Point Group: c1    Number of degrees of freedom:    42


   Energy is  -1104.837919377

              Constraints and their Current Values
                                        Value     Constraint
   Dihedral:        6   8   9  10       70.000       70.000
 Hessian Updated using BFGS Update

 39 Hessian modes will be used to form the next step
  Hessian Eigenvalues:
     0.039323    0.045000    0.045000    0.045000    0.045000    0.045002
     0.045003    0.045009    0.045012    0.046696    0.153158    0.159947
     0.159989    0.159992    0.160000    0.160127    0.213004    0.221283
     0.225513    0.237837    0.249756    0.250260    0.294359    0.296124
     0.312570    0.313768    0.354744    0.354856    0.355127    0.355146
     0.358236    0.358345    0.396173    0.404879    0.414396    0.463577
     0.464758    0.497929    0.498688

 Minimum Search - Taking Simple RFO Step
 Searching for Lamda that Minimizes Along All modes
 Value Taken    Lamda =  -0.00004957
 Step Taken.  Stepsize is  0.025629

                             Maximum     Tolerance    Cnvgd?
         Gradient           0.001496      0.000300      NO
         Displacement       0.017959      0.001200      NO
         Energy change     -0.000225      0.000001      NO


 New Cartesian Coordinates Obtained by Inverse Iteration

 Displacement from previous Coordinates is:  0.056135
 ----------------------------------------------------------------
             Standard Nuclear Orientation (Angstroms)
    I     Atom           X                Y                Z
 ----------------------------------------------------------------
    1      S       0.0151055182     0.0840071845     0.0179468921
    2      C       1.7466381308     0.0294838495     0.0037182269
    3      H       2.2966683209     0.0426830541     0.9349287050
    4      C       2.2416813045    -0.0253344458    -1.2732007789
    5      H       3.3007318827    -0.0626438528    -1.5020925982
    6      C       1.2140532921    -0.0150842832    -2.2630336564
    7      H       1.3963570724    -0.0324021149    -3.3315736979
    8      C      -0.0557149802     0.0342171781    -1.7358387455
    9      C      -1.3344294105     0.0614183170    -2.4510290806
   10      C      -1.9291692931    -0.9490282109    -3.1708710672
   11      H      -1.4767329438    -1.9287033818    -3.2756799220
   12      C      -3.1855878698    -0.5805787087    -3.7382507106
   13      H      -3.7968536972    -1.2467544291    -4.3366683338
   14      C      -3.5456659227     0.7064776193    -3.4346624335
   15      H      -4.4423906663     1.2368892884    -3.7254212608
   16      S      -2.3498313581     1.4937442364    -2.4592330686
 ----------------------------------------------------------------
 Nuclear Repulsion Energy =   628.8642485930 hartrees
 There are       43 alpha and       43 beta electrons
 Applying Cartesian multipole field
    Component          Value
    ---------          -----
     (2,0,0)        1.00000E-11
     (0,2,0)        2.00000E-11
     (0,0,2)       -3.00000E-11
 Nucleus-field energy     =    -0.0000000327 hartrees
 Requested basis set is 6-31++G(d,p)
 There are 76 shells and 234 basis functions
 A cutoff of  1.0D-12 yielded   2525 shell pairs
 There are     24913 function pairs

 Q-Chem warning in module /project/projectdirs/jcesr/qchem/qc44/cnl_qc441/compile/cori/qc_src/libqints/qchem/aobasis.C, line 68:

 Using reconstructed effective core potential

 Smallest overlap matrix eigenvalue = 1.21E-06
 Guess MOs from SCF MO coefficient file
 Reading MOs from coefficient file
 Reading MOs from coefficient file
 A restricted hybrid HF-DFT SCF calculation will be
 performed using Pulay DIIS extrapolation
 Exchange:     0.2000 Hartree-Fock + 0.0800 Slater + 0.7200 B88
 Correlation:  0.1900 VWN1RPA + 0.8100 LYP
 Using SG-1 standard quadrature grid
 SCF converges when DIIS error is below 1.0E-08
 Geometry optimization detected.  Setting ReadMinima to 0
 Setting SaveMinima to 0
 ---------------------------------------
  Cycle       Energy         DIIS Error
 ---------------------------------------
    1   -1104.8381083450      2.62E-04
    2   -1104.8379216890      5.74E-05
    3   -1104.8378207143      1.30E-04
    4   -1104.8379478340      7.93E-06
    5   -1104.8379482417      2.54E-06
    6   -1104.8379482802      1.16E-06
    7   -1104.8379482885      4.74E-07
    8   -1104.8379482902      1.11E-07
    9   -1104.8379482928      1.66E-08
   10   -1104.8379482905      5.01E-09 Convergence criterion met
 ---------------------------------------
 SCF time:  CPU 5.60 s  wall 5.12 s
 SCF   energy in the final basis set = -1104.8379482905
 Total energy in the final basis set = -1104.8379482905
 
 --------------------------------------------------------------
 
                    Orbital Energies (a.u.)
 --------------------------------------------------------------
 
 Alpha MOs
 -- Occupied --
-88.919 -88.919 -10.236 -10.236 -10.225 -10.225 -10.204 -10.204
-10.203 -10.203  -7.978  -7.978  -5.942  -5.942  -5.939  -5.939
 -5.936  -5.936  -0.898  -0.877  -0.769  -0.744  -0.740  -0.705
 -0.601  -0.570  -0.562  -0.534  -0.523  -0.477  -0.418  -0.414
 -0.412  -0.405  -0.394  -0.375  -0.374  -0.352  -0.350  -0.264
 -0.258  -0.256  -0.231
 -- Virtual --
 -0.041  -0.025  -0.006  -0.002   0.006   0.014   0.019   0.025
  0.026   0.035   0.035   0.042   0.045   0.046   0.065   0.066
  0.071   0.072   0.086   0.100   0.102   0.105   0.107   0.116
  0.117   0.117   0.122   0.130   0.132   0.133   0.139   0.144
  0.145   0.150   0.159   0.162   0.163   0.175   0.178   0.182
  0.184   0.189   0.195   0.203   0.212   0.219   0.223   0.229
  0.239   0.250   0.258   0.263   0.272   0.274   0.298   0.302
  0.308   0.315   0.324   0.331   0.355   0.366   0.372   0.395
  0.434   0.467   0.474   0.500   0.524   0.525   0.553   0.573
  0.579   0.593   0.608   0.644   0.649   0.654   0.669   0.674
  0.689   0.699   0.725   0.727   0.737   0.759   0.764   0.774
  0.776   0.802   0.804   0.827   0.842   0.898   0.905   0.944
  0.954   0.958   0.963   0.967   0.971   0.990   0.992   1.015
  1.017   1.028   1.041   1.051   1.081   1.099   1.101   1.105
  1.130   1.184   1.206   1.220   1.237   1.285   1.325   1.349
  1.353   1.359   1.361   1.391   1.451   1.462   1.496   1.528
  1.572   1.692   1.693   1.786   1.809   1.864   1.880   1.883
  1.913   1.925   1.943   1.961   2.018   2.021   2.064   2.083
  2.132   2.166   2.186   2.210   2.216   2.248   2.253   2.324
  2.366   2.371   2.433   2.445   2.460   2.476   2.491   2.512
  2.514   2.531   2.584   2.584   2.629   2.629   2.695   2.706
  2.762   2.810   2.872   2.874   2.938   3.156   3.184   3.269
  3.271   3.402   3.426   3.720   3.743   3.961   3.977   4.279
  4.311   4.322   4.328   4.429   4.535   4.659   4.711
 --------------------------------------------------------------
 
          Ground-State Mulliken Net Atomic Charges

     Atom                 Charge (a.u.)
  ----------------------------------------
      1 S                     0.038525
      2 C                    -0.034885
      3 H                     0.188743
      4 C                    -0.420209
      5 H                     0.117087
      6 C                     0.340266
      7 H                     0.138745
      8 C                    -0.371529
      9 C                    -0.366978
     10 C                     0.341733
     11 H                     0.138497
     12 C                    -0.419580
     13 H                     0.117101
     14 C                    -0.034012
     15 H                     0.188793
     16 S                     0.037703
  ----------------------------------------
  Sum of atomic charges =     0.000000

 -----------------------------------------------------------------
                    Cartesian Multipole Moments
 -----------------------------------------------------------------
    Charge (ESU x 10^10)
                 0.0000
    Dipole Moment (Debye)
         X       0.3205      Y      -0.5058      Z      -0.5949
       Tot       0.8440
    Quadrupole Moments (Debye-Ang)
        XX     -64.1258     XY      -0.4809     YY     -74.0651
        XZ       4.7934     YZ       2.5546     ZZ     -67.7618
    Octopole Moments (Debye-Ang^2)
       XXX     158.7320    XXY      -7.8782    XYY      47.6171
       YYY     -48.8032    XXZ     105.3020    XYZ      -0.2027
       YYZ     134.0140    XZZ      43.0597    YZZ     -26.5349
       ZZZ     407.0394
    Hexadecapole Moments (Debye-Ang^3)
      XXXX   -1767.7391   XXXY      66.9439   XXYY    -367.7447
      XYYY     114.9185   YYYY    -348.1970   XXXZ    -593.4530
      XXYZ      10.2080   XYYZ    -213.9630   YYYZ      98.8266
      XXZZ    -582.8105   XYZZ      50.8937   YYZZ    -446.8315
      XZZZ    -674.3926   YZZZ     136.8393   ZZZZ   -2453.5135
 -----------------------------------------------------------------
 Calculating analytic gradient of the SCF energy
 Gradient of SCF Energy
            1           2           3           4           5           6
    1  -0.0000795  -0.0001802  -0.0000550  -0.0000944   0.0000342  -0.0000766
    2  -0.0000770  -0.0001447   0.0000600  -0.0000051   0.0000178   0.0014459
    3   0.0004051  -0.0000035  -0.0000072  -0.0001861  -0.0000637   0.0002835
            7           8           9          10          11          12
    1   0.0000273   0.0005408   0.0003774  -0.0007580  -0.0000366   0.0001636
    2   0.0000727  -0.0020508   0.0005659  -0.0001392  -0.0000489  -0.0001107
    3  -0.0000110   0.0002935  -0.0020320   0.0012798   0.0000639   0.0000351
           13          14          15          16
    1   0.0000082   0.0002002   0.0000241  -0.0000953
    2  -0.0000921   0.0001166  -0.0000081   0.0003978
    3  -0.0000083  -0.0000695   0.0000553  -0.0000349
 Max gradient component =       2.051E-03
 RMS gradient           =       5.432E-04
 Gradient time:  CPU 1.90 s  wall 2.09 s
 Geometry Optimization Parameters
   NAtoms,    NIC,     NZ,  NCons,   NDum,   NFix, NCnnct, MaxDiis
       16     111       0       1       0       0       0       0

 Cartesian Hessian Update
 Hessian Updated using BFGS Update


** CONSTRAINED OPTIMIZATION IN DELOCALIZED INTERNAL COORDINATES **
   Searching for a Minimum

   Optimization Cycle:   3

                       Coordinates (Angstroms)
     ATOM                X               Y               Z
      1  S         0.0151055182    0.0840071845    0.0179468921
      2  C         1.7466381308    0.0294838495    0.0037182269
      3  H         2.2966683209    0.0426830541    0.9349287050
      4  C         2.2416813045   -0.0253344458   -1.2732007789
      5  H         3.3007318827   -0.0626438528   -1.5020925982
      6  C         1.2140532921   -0.0150842832   -2.2630336564
      7  H         1.3963570724   -0.0324021149   -3.3315736979
      8  C        -0.0557149802    0.0342171781   -1.7358387455
      9  C        -1.3344294105    0.0614183170   -2.4510290806
     10  C        -1.9291692931   -0.9490282109   -3.1708710672
     11  H        -1.4767329438   -1.9287033818   -3.2756799220
     12  C        -3.1855878698   -0.5805787087   -3.7382507106
     13  H        -3.7968536972   -1.2467544291   -4.3366683338
     14  C        -3.5456659227    0.7064776193   -3.4346624335
     15  H        -4.4423906663    1.2368892884   -3.7254212608
     16  S        -2.3498313581    1.4937442364   -2.4592330686
   Point Group: c1    Number of degrees of freedom:    42


   Energy is  -1104.837948290

              Constraints and their Current Values
                                        Value     Constraint
   Dihedral:        6   8   9  10       70.000       70.000
 Hessian Updated using BFGS Update

 36 Hessian modes will be used to form the next step
  Hessian Eigenvalues:
     0.027216    0.045001    0.045003    0.045004    0.045012    0.045272
     0.046767    0.152395    0.159947    0.159992    0.160000    0.160117
     0.160633    0.208136    0.221283    0.223992    0.237837    0.250010
     0.286090    0.294362    0.297101    0.312568    0.314286    0.354778
     0.354929    0.355130    0.355220    0.358270    0.358725    0.401554
     0.404920    0.419958    0.463580    0.483913    0.497929    0.499267

 Minimum Search - Taking Simple RFO Step
 Searching for Lamda that Minimizes Along All modes
 Value Taken    Lamda =  -0.00001256
 Step Taken.  Stepsize is  0.018557

                             Maximum     Tolerance    Cnvgd?
         Gradient           0.000461      0.000300      NO
         Displacement       0.016120      0.001200      NO
         Energy change     -0.000029      0.000001      NO


 New Cartesian Coordinates Obtained by Inverse Iteration

 Displacement from previous Coordinates is:  0.033198
 ----------------------------------------------------------------
             Standard Nuclear Orientation (Angstroms)
    I     Atom           X                Y                Z
 ----------------------------------------------------------------
    1      S       0.0154472739     0.0889067352     0.0184440240
    2      C       1.7469408159     0.0323260913     0.0038036886
    3      H       2.2978601993     0.0467323959     0.9345440825
    4      C       2.2414423520    -0.0274544460    -1.2729560490
    5      H       3.3003323858    -0.0675004455    -1.5017105455
    6      C       1.2129083923    -0.0182135078    -2.2625042428
    7      H       1.3936318411    -0.0393706752    -3.3312134275
    8      C      -0.0566138068     0.0332440942    -1.7344862121
    9      C      -1.3338942005     0.0637779155    -2.4517869740
   10      C      -1.9269853138    -0.9469108544    -3.1730105947
   11      H      -1.4715154350    -1.9249009579    -3.2800536659
   12      C      -3.1845901623    -0.5797801161    -3.7396963779
   13      H      -3.7946003620    -1.2452592494    -4.3399963584
   14      C      -3.5474815831     0.7054230722    -3.4322615380
   15      H      -4.4453136001     1.2344565724    -3.7223650859
   16      S      -2.3527094164     1.4929146757    -2.4557122535
 ----------------------------------------------------------------
 Nuclear Repulsion Energy =   628.8887698117 hartrees
 There are       43 alpha and       43 beta electrons
 Applying Cartesian multipole field
    Component          Value
    ---------          -----
     (2,0,0)        1.00000E-11
     (0,2,0)        2.00000E-11
     (0,0,2)       -3.00000E-11
 Nucleus-field energy     =    -0.0000000327 hartrees
 Requested basis set is 6-31++G(d,p)
 There are 76 shells and 234 basis functions
 A cutoff of  1.0D-12 yielded   2525 shell pairs
 There are     24913 function pairs

 Q-Chem warning in module /project/projectdirs/jcesr/qchem/qc44/cnl_qc441/compile/cori/qc_src/libqints/qchem/aobasis.C, line 68:

 Using reconstructed effective core potential

 Smallest overlap matrix eigenvalue = 1.22E-06
 Guess MOs from SCF MO coefficient file
 Reading MOs from coefficient file
 Reading MOs from coefficient file
 A restricted hybrid HF-DFT SCF calculation will be
 performed using Pulay DIIS extrapolation
 Exchange:     0.2000 Hartree-Fock + 0.0800 Slater + 0.7200 B88
 Correlation:  0.1900 VWN1RPA + 0.8100 LYP
 Using SG-1 standard quadrature grid
 SCF converges when DIIS error is below 1.0E-08
 Geometry optimization detected.  Setting ReadMinima to 0
 Setting SaveMinima to 0
 ---------------------------------------
  Cycle       Energy         DIIS Error
 ---------------------------------------
    1   -1104.8366250572      1.67E-04
    2   -1104.8379531864      1.99E-05
    3   -1104.8379411714      4.52E-05
    4   -1104.8379568532      4.23E-06
    5   -1104.8379569859      1.01E-06
    6   -1104.8379569894      7.23E-07
    7   -1104.8379569931      2.40E-07
    8   -1104.8379569919      4.85E-08
    9   -1104.8379569916      1.48E-08
   10   -1104.8379569923      4.69E-09 Convergence criterion met
 ---------------------------------------
 SCF time:  CPU 5.48 s  wall 5.22 s
 SCF   energy in the final basis set = -1104.8379569923
 Total energy in the final basis set = -1104.8379569923
 
 --------------------------------------------------------------
 
                    Orbital Energies (a.u.)
 --------------------------------------------------------------
 
 Alpha MOs
 -- Occupied --
-88.919 -88.919 -10.236 -10.236 -10.225 -10.225 -10.204 -10.204
-10.203 -10.203  -7.978  -7.978  -5.943  -5.942  -5.939  -5.939
 -5.936  -5.936  -0.898  -0.877  -0.769  -0.744  -0.740  -0.705
 -0.601  -0.570  -0.562  -0.534  -0.523  -0.477  -0.418  -0.414
 -0.412  -0.405  -0.394  -0.375  -0.374  -0.352  -0.349  -0.264
 -0.258  -0.256  -0.231
 -- Virtual --
 -0.041  -0.025  -0.006  -0.002   0.006   0.014   0.019   0.025
  0.026   0.035   0.035   0.042   0.045   0.046   0.065   0.066
  0.071   0.072   0.086   0.100   0.102   0.105   0.107   0.116
  0.117   0.117   0.122   0.130   0.132   0.133   0.139   0.144
  0.145   0.149   0.159   0.162   0.163   0.175   0.178   0.182
  0.184   0.189   0.195   0.203   0.212   0.219   0.223   0.229
  0.239   0.250   0.258   0.263   0.273   0.274   0.298   0.302
  0.309   0.315   0.323   0.331   0.355   0.366   0.372   0.395
  0.434   0.466   0.474   0.500   0.524   0.525   0.553   0.573
  0.579   0.593   0.608   0.643   0.650   0.653   0.669   0.674
  0.690   0.699   0.725   0.727   0.737   0.759   0.764   0.775
  0.776   0.802   0.804   0.827   0.842   0.898   0.905   0.944
  0.954   0.958   0.962   0.966   0.971   0.990   0.991   1.015
  1.017   1.029   1.041   1.051   1.081   1.099   1.101   1.105
  1.130   1.184   1.206   1.220   1.238   1.285   1.325   1.349
  1.353   1.359   1.361   1.391   1.449   1.462   1.497   1.527
  1.573   1.692   1.693   1.786   1.807   1.865   1.880   1.882
  1.913   1.925   1.943   1.961   2.018   2.020   2.064   2.083
  2.132   2.165   2.186   2.211   2.216   2.248   2.253   2.323
  2.366   2.371   2.433   2.444   2.460   2.475   2.490   2.512
  2.514   2.531   2.584   2.584   2.629   2.629   2.695   2.706
  2.762   2.810   2.872   2.873   2.937   3.156   3.184   3.269
  3.271   3.402   3.426   3.720   3.743   3.961   3.977   4.279
  4.311   4.322   4.328   4.429   4.534   4.659   4.711
 --------------------------------------------------------------
 
          Ground-State Mulliken Net Atomic Charges

     Atom                 Charge (a.u.)
  ----------------------------------------
      1 S                     0.038243
      2 C                    -0.035573
      3 H                     0.188763
      4 C                    -0.420858
      5 H                     0.117094
      6 C                     0.338045
      7 H                     0.138899
      8 C                    -0.368281
      9 C                    -0.362723
     10 C                     0.338953
     11 H                     0.138644
     12 C                    -0.419952
     13 H                     0.117107
     14 C                    -0.034693
     15 H                     0.188818
     16 S                     0.037513
  ----------------------------------------
  Sum of atomic charges =     0.000000

 -----------------------------------------------------------------
                    Cartesian Multipole Moments
 -----------------------------------------------------------------
    Charge (ESU x 10^10)
                 0.0000
    Dipole Moment (Debye)
         X       0.3205      Y      -0.5064      Z      -0.5949
       Tot       0.8444
    Quadrupole Moments (Debye-Ang)
        XX     -64.1186     XY      -0.5003     YY     -74.0809
        XZ       4.7989     YZ       2.5800     ZZ     -67.7550
    Octopole Moments (Debye-Ang^2)
       XXX     158.7561    XXY      -7.9204    XYY      47.7085
       YYY     -48.9484    XXZ     105.2673    XYZ      -0.1599
       YYZ     134.0173    XZZ      43.0576    YZZ     -26.6944
       ZZZ     406.8035
    Hexadecapole Moments (Debye-Ang^3)
      XXXX   -1767.9588   XXXY      66.9678   XXYY    -367.9743
      XYYY     115.2695   YYYY    -347.9451   XXXZ    -593.1906
      XXYZ      10.1432   XYYZ    -214.1859   YYYZ      98.3436
      XXZZ    -582.8151   XYZZ      51.0821   YYZZ    -446.7263
      XZZZ    -674.1107   YZZZ     136.9846   ZZZZ   -2451.8521
 -----------------------------------------------------------------
 Calculating analytic gradient of the SCF energy
 Gradient of SCF Energy
            1           2           3           4           5           6
    1   0.0000514  -0.0002076   0.0000368   0.0001918  -0.0000094  -0.0002308
    2  -0.0000827  -0.0000716   0.0000486  -0.0000381   0.0000036   0.0016649
    3   0.0001292  -0.0000612  -0.0000070   0.0001246  -0.0000007   0.0000074
            7           8           9          10          11          12
    1  -0.0000573   0.0001279   0.0006774  -0.0006002   0.0000467  -0.0001779
    2   0.0000136  -0.0025929   0.0012920  -0.0003784   0.0000050   0.0000336
    3  -0.0000116   0.0007243  -0.0022582   0.0015367   0.0000574  -0.0001464
           13          14          15          16
    1   0.0000155   0.0002179  -0.0000371  -0.0000450
    2  -0.0000130   0.0000516  -0.0000432   0.0001070
    3   0.0000065   0.0000251  -0.0000053  -0.0001207
 Max gradient component =       2.593E-03
 RMS gradient           =       6.529E-04
 Gradient time:  CPU 2.07 s  wall 2.06 s
 Geometry Optimization Parameters
   NAtoms,    NIC,     NZ,  NCons,   NDum,   NFix, NCnnct, MaxDiis
       16     111       0       1       0       0       0       0

 Cartesian Hessian Update
 Hessian Updated using BFGS Update


** CONSTRAINED OPTIMIZATION IN DELOCALIZED INTERNAL COORDINATES **
   Searching for a Minimum

   Optimization Cycle:   4

                       Coordinates (Angstroms)
     ATOM                X               Y               Z
      1  S         0.0154472739    0.0889067352    0.0184440240
      2  C         1.7469408159    0.0323260913    0.0038036886
      3  H         2.2978601993    0.0467323959    0.9345440825
      4  C         2.2414423520   -0.0274544460   -1.2729560490
      5  H         3.3003323858   -0.0675004455   -1.5017105455
      6  C         1.2129083923   -0.0182135078   -2.2625042428
      7  H         1.3936318411   -0.0393706752   -3.3312134275
      8  C        -0.0566138068    0.0332440942   -1.7344862121
      9  C        -1.3338942005    0.0637779155   -2.4517869740
     10  C        -1.9269853138   -0.9469108544   -3.1730105947
     11  H        -1.4715154350   -1.9249009579   -3.2800536659
     12  C        -3.1845901623   -0.5797801161   -3.7396963779
     13  H        -3.7946003620   -1.2452592494   -4.3399963584
     14  C        -3.5474815831    0.7054230722   -3.4322615380
     15  H        -4.4453136001    1.2344565724   -3.7223650859
     16  S        -2.3527094164    1.4929146757   -2.4557122535
   Point Group: c1    Number of degrees of freedom:    42


   Energy is  -1104.837956992

              Constraints and their Current Values
                                        Value     Constraint
   Dihedral:        6   8   9  10       70.000       70.000
 Hessian Updated using BFGS Update

 41 Hessian modes will be used to form the next step
  Hessian Eigenvalues:
     0.014723    0.044939    0.045000    0.045000    0.045000    0.045000
     0.045001    0.045002    0.045004    0.045012    0.045023    0.046182
     0.159720    0.159946    0.159991    0.160000    0.160125    0.162464
     0.221282    0.223155    0.237653    0.239058    0.249998    0.280105
     0.293175    0.294529    0.312569    0.314389    0.354769    0.354898
     0.355130    0.355497    0.358274    0.358801    0.387967    0.404893
     0.441114    0.462352    0.463582    0.497933    0.507396

 Minimum Search - Taking Simple RFO Step
 Searching for Lamda that Minimizes Along All modes
 Value Taken    Lamda =  -0.00000739
 Step Taken.  Stepsize is  0.020194

                             Maximum     Tolerance    Cnvgd?
         Gradient           0.000405      0.000300      NO
         Displacement       0.016732      0.001200      NO
         Energy change     -0.000009      0.000001      NO


 New Cartesian Coordinates Obtained by Inverse Iteration

 Displacement from previous Coordinates is:  0.037757
 ----------------------------------------------------------------
             Standard Nuclear Orientation (Angstroms)
    I     Atom           X                Y                Z
 ----------------------------------------------------------------
    1      S       0.0145295521     0.0940346197     0.0171809304
    2      C       1.7461198888     0.0363763689     0.0040252760
    3      H       2.2963710621     0.0529653293     0.9351176694
    4      C       2.2412282281    -0.0287739874    -1.2722148057
    5      H       3.3002581024    -0.0707387604    -1.4999046321
    6      C       1.2134172360    -0.0224016592    -2.2624560527
    7      H       1.3947991522    -0.0476455117    -3.3309434040
    8      C      -0.0567099897     0.0310383479    -1.7350482420
    9      C      -1.3322715778     0.0645610999    -2.4540441566
   10      C      -1.9251958610    -0.9455925113    -3.1769477645
   11      H      -1.4683731174    -1.9225191100    -3.2876245663
   12      C      -3.1842698206    -0.5788330041    -3.7404447662
   13      H      -3.7941392773    -1.2432312755    -4.3420603280
   14      C      -3.5491317863     0.7046477236    -3.4282669330
   15      H      -4.4478752081     1.2333883984    -3.7160486633
   16      S      -2.3538972035     1.4911152322    -2.4512810915
 ----------------------------------------------------------------
 Nuclear Repulsion Energy =   628.9764289237 hartrees
 There are       43 alpha and       43 beta electrons
 Applying Cartesian multipole field
    Component          Value
    ---------          -----
     (2,0,0)        1.00000E-11
     (0,2,0)        2.00000E-11
     (0,0,2)       -3.00000E-11
 Nucleus-field energy     =    -0.0000000327 hartrees
 Requested basis set is 6-31++G(d,p)
 There are 76 shells and 234 basis functions
 A cutoff of  1.0D-12 yielded   2525 shell pairs
 There are     24913 function pairs

 Q-Chem warning in module /project/projectdirs/jcesr/qchem/qc44/cnl_qc441/compile/cori/qc_src/libqints/qchem/aobasis.C, line 68:

 Using reconstructed effective core potential

 Smallest overlap matrix eigenvalue = 1.24E-06
 Guess MOs from SCF MO coefficient file
 Reading MOs from coefficient file
 Reading MOs from coefficient file
 A restricted hybrid HF-DFT SCF calculation will be
 performed using Pulay DIIS extrapolation
 Exchange:     0.2000 Hartree-Fock + 0.0800 Slater + 0.7200 B88
 Correlation:  0.1900 VWN1RPA + 0.8100 LYP
 Using SG-1 standard quadrature grid
 SCF converges when DIIS error is below 1.0E-08
 Geometry optimization detected.  Setting ReadMinima to 0
 Setting SaveMinima to 0
 ---------------------------------------
  Cycle       Energy         DIIS Error
 ---------------------------------------
    1   -1104.8363328123      1.72E-04
    2   -1104.8379582761      1.81E-05
    3   -1104.8379550162      2.88E-05
    4   -1104.8379615557      5.78E-06
    5   -1104.8379617783      1.51E-06
    6   -1104.8379617850      1.24E-06
    7   -1104.8379617962      3.42E-07
    8   -1104.8379617950      9.02E-08
    9   -1104.8379617963      1.59E-08
   10   -1104.8379617956      6.57E-09 Convergence criterion met
 ---------------------------------------
 SCF time:  CPU 5.51 s  wall 5.15 s
 SCF   energy in the final basis set = -1104.8379617956
 Total energy in the final basis set = -1104.8379617956
 
 --------------------------------------------------------------
 
                    Orbital Energies (a.u.)
 --------------------------------------------------------------
 
 Alpha MOs
 -- Occupied --
-88.919 -88.919 -10.236 -10.236 -10.225 -10.225 -10.204 -10.204
-10.203 -10.203  -7.978  -7.978  -5.943  -5.943  -5.939  -5.939
 -5.936  -5.936  -0.898  -0.877  -0.769  -0.744  -0.740  -0.705
 -0.601  -0.570  -0.562  -0.534  -0.523  -0.477  -0.418  -0.414
 -0.412  -0.405  -0.394  -0.375  -0.374  -0.352  -0.349  -0.264
 -0.258  -0.256  -0.231
 -- Virtual --
 -0.042  -0.025  -0.006  -0.002   0.006   0.014   0.019   0.026
  0.026   0.035   0.035   0.042   0.045   0.046   0.064   0.066
  0.071   0.072   0.086   0.099   0.102   0.104   0.107   0.116
  0.117   0.117   0.122   0.130   0.132   0.134   0.139   0.144
  0.146   0.149   0.159   0.162   0.163   0.175   0.178   0.182
  0.184   0.189   0.195   0.202   0.213   0.219   0.223   0.229
  0.239   0.250   0.259   0.263   0.273   0.274   0.298   0.303
  0.309   0.315   0.323   0.331   0.355   0.366   0.372   0.395
  0.434   0.466   0.474   0.500   0.524   0.525   0.553   0.573
  0.579   0.593   0.608   0.643   0.650   0.653   0.669   0.674
  0.690   0.699   0.725   0.727   0.737   0.758   0.763   0.775
  0.775   0.802   0.804   0.827   0.842   0.898   0.905   0.944
  0.954   0.958   0.962   0.966   0.971   0.990   0.991   1.015
  1.017   1.029   1.041   1.051   1.081   1.099   1.101   1.105
  1.130   1.183   1.206   1.220   1.238   1.285   1.326   1.349
  1.353   1.360   1.361   1.391   1.447   1.462   1.497   1.527
  1.573   1.692   1.693   1.786   1.805   1.867   1.880   1.882
  1.913   1.926   1.942   1.961   2.018   2.021   2.064   2.083
  2.132   2.165   2.186   2.212   2.216   2.249   2.253   2.323
  2.366   2.371   2.434   2.444   2.460   2.475   2.490   2.512
  2.514   2.531   2.584   2.585   2.628   2.630   2.695   2.706
  2.762   2.810   2.872   2.873   2.937   3.156   3.184   3.269
  3.271   3.402   3.426   3.720   3.743   3.960   3.978   4.280
  4.311   4.322   4.328   4.429   4.534   4.659   4.710
 --------------------------------------------------------------
 
          Ground-State Mulliken Net Atomic Charges

     Atom                 Charge (a.u.)
  ----------------------------------------
      1 S                     0.037075
      2 C                    -0.035878
      3 H                     0.188833
      4 C                    -0.422306
      5 H                     0.117070
      6 C                     0.337975
      7 H                     0.139009
      8 C                    -0.365931
      9 C                    -0.359113
     10 C                     0.338224
     11 H                     0.138737
     12 C                    -0.421067
     13 H                     0.117087
     14 C                    -0.035002
     15 H                     0.188893
     16 S                     0.036394
  ----------------------------------------
  Sum of atomic charges =    -0.000000

 -----------------------------------------------------------------
                    Cartesian Multipole Moments
 -----------------------------------------------------------------
    Charge (ESU x 10^10)
                 0.0000
    Dipole Moment (Debye)
         X       0.3193      Y      -0.5053      Z      -0.5927
       Tot       0.8418
    Quadrupole Moments (Debye-Ang)
        XX     -64.1105     XY      -0.5151     YY     -74.0905
        XZ       4.7930     YZ       2.6109     ZZ     -67.7584
    Octopole Moments (Debye-Ang^2)
       XXX     158.7104    XXY      -7.9223    XYY      47.7625
       YYY     -49.0364    XXZ     105.2688    XYZ      -0.1283
       YYZ     134.0256    XZZ      43.1262    YZZ     -26.8579
       ZZZ     406.7241
    Hexadecapole Moments (Debye-Ang^3)
      XXXX   -1767.7094   XXXY      66.7409   XXYY    -368.0143
      XYYY     115.3044   YYYY    -347.5093   XXXZ    -592.7681
      XXYZ      10.0159   XYYZ    -214.2298   YYYZ      97.5448
      XXZZ    -583.0111   XYZZ      51.2625   YYZZ    -446.5234
      XZZZ    -673.9713   YZZZ     136.9287   ZZZZ   -2450.5851
 -----------------------------------------------------------------
 Calculating analytic gradient of the SCF energy
 Gradient of SCF Energy
            1           2           3           4           5           6
    1   0.0000408  -0.0001159   0.0000421   0.0001529  -0.0000207  -0.0000317
    2  -0.0000573  -0.0000238   0.0000301  -0.0000132  -0.0000021   0.0017983
    3  -0.0000604  -0.0000495  -0.0000062   0.0001381   0.0000243  -0.0001800
            7           8           9          10          11          12
    1  -0.0000452  -0.0005395   0.0011970  -0.0006978   0.0000470  -0.0001642
    2  -0.0000287  -0.0030301   0.0019978  -0.0006598   0.0000172   0.0000443
    3  -0.0000035   0.0010421  -0.0022568   0.0015349   0.0000137  -0.0001001
           13          14          15          16
    1   0.0000097   0.0001272  -0.0000324   0.0000308
    2   0.0000152   0.0000074  -0.0000402  -0.0000550
    3   0.0000086   0.0000215  -0.0000264  -0.0001003
 Max gradient component =       3.030E-03
 RMS gradient           =       7.606E-04
 Gradient time:  CPU 2.06 s  wall 2.06 s
 Geometry Optimization Parameters
   NAtoms,    NIC,     NZ,  NCons,   NDum,   NFix, NCnnct, MaxDiis
       16     111       0       1       0       0       0       0

 Cartesian Hessian Update
 Hessian Updated using BFGS Update


** CONSTRAINED OPTIMIZATION IN DELOCALIZED INTERNAL COORDINATES **
   Searching for a Minimum

   Optimization Cycle:   5

                       Coordinates (Angstroms)
     ATOM                X               Y               Z
      1  S         0.0145295521    0.0940346197    0.0171809304
      2  C         1.7461198888    0.0363763689    0.0040252760
      3  H         2.2963710621    0.0529653293    0.9351176694
      4  C         2.2412282281   -0.0287739874   -1.2722148057
      5  H         3.3002581024   -0.0707387604   -1.4999046321
      6  C         1.2134172360   -0.0224016592   -2.2624560527
      7  H         1.3947991522   -0.0476455117   -3.3309434040
      8  C        -0.0567099897    0.0310383479   -1.7350482420
      9  C        -1.3322715778    0.0645610999   -2.4540441566
     10  C        -1.9251958610   -0.9455925113   -3.1769477645
     11  H        -1.4683731174   -1.9225191100   -3.2876245663
     12  C        -3.1842698206   -0.5788330041   -3.7404447662
     13  H        -3.7941392773   -1.2432312755   -4.3420603280
     14  C        -3.5491317863    0.7046477236   -3.4282669330
     15  H        -4.4478752081    1.2333883984   -3.7160486633
     16  S        -2.3538972035    1.4911152322   -2.4512810915
   Point Group: c1    Number of degrees of freedom:    42


   Energy is  -1104.837961796

              Constraints and their Current Values
                                        Value     Constraint
   Dihedral:        6   8   9  10       70.000       70.000
 Hessian Updated using BFGS Update

 37 Hessian modes will be used to form the next step
  Hessian Eigenvalues:
     0.010398    0.043997    0.045001    0.045002    0.045004    0.045011
     0.045200    0.046301    0.156602    0.159947    0.159991    0.160000
     0.160077    0.161327    0.221283    0.222559    0.233286    0.237854
     0.250041    0.279263    0.294393    0.298670    0.312570    0.314400
     0.354763    0.354872    0.355131    0.355499    0.358274    0.358882
     0.401058    0.404938    0.436279    0.463579    0.475984    0.497933
     0.503819

 Minimum Search - Taking Simple RFO Step
 Searching for Lamda that Minimizes Along All modes
 Value Taken    Lamda =  -0.00000244
 Step Taken.  Stepsize is  0.011951

                             Maximum     Tolerance    Cnvgd?
         Gradient           0.000348      0.000300      NO
         Displacement       0.009276      0.001200      NO
         Energy change     -0.000005      0.000001      NO


 New Cartesian Coordinates Obtained by Inverse Iteration

 Displacement from previous Coordinates is:  0.027324
 ----------------------------------------------------------------
             Standard Nuclear Orientation (Angstroms)
    I     Atom           X                Y                Z
 ----------------------------------------------------------------
    1      S       0.0136231223     0.0968738064     0.0155420011
    2      C       1.7453092014     0.0393022294     0.0043662716
    3      H       2.2943581128     0.0577482864     0.9361058833
    4      C       2.2414474182    -0.0291045571    -1.2713320180
    5      H       3.3007169239    -0.0715878147    -1.4979414687
    6      C       1.2147744470    -0.0252258591    -2.2625105693
    7      H       1.3976258641    -0.0526350045    -3.3306858608
    8      C      -0.0560660222     0.0290444633    -1.7365322389
    9      C      -1.3309162909     0.0637930882    -2.4562714525
   10      C      -1.9247428401    -0.9453449790    -3.1801288858
   11      H      -1.4681088152    -1.9220609996    -3.2933453503
   12      C      -3.1847744188    -0.5781589301    -3.7407558116
   13      H      -3.7951810115    -1.2417183277    -4.3428049856
   14      C      -3.5501684122     0.7044036351    -3.4253045536
   15      H      -4.4493230981     1.2336152408    -3.7108320965
   16      S      -2.3537148008     1.4894470223    -2.4485303945
 ----------------------------------------------------------------
 Nuclear Repulsion Energy =   629.0333774099 hartrees
 There are       43 alpha and       43 beta electrons
 Applying Cartesian multipole field
    Component          Value
    ---------          -----
     (2,0,0)        1.00000E-11
     (0,2,0)        2.00000E-11
     (0,0,2)       -3.00000E-11
 Nucleus-field energy     =    -0.0000000327 hartrees
 Requested basis set is 6-31++G(d,p)
 There are 76 shells and 234 basis functions
 A cutoff of  1.0D-12 yielded   2523 shell pairs
 There are     24905 function pairs

 Q-Chem warning in module /project/projectdirs/jcesr/qchem/qc44/cnl_qc441/compile/cori/qc_src/libqints/qchem/aobasis.C, line 68:

 Using reconstructed effective core potential

 Smallest overlap matrix eigenvalue = 1.24E-06
 Guess MOs from SCF MO coefficient file
 Reading MOs from coefficient file
 Reading MOs from coefficient file
 A restricted hybrid HF-DFT SCF calculation will be
 performed using Pulay DIIS extrapolation
 Exchange:     0.2000 Hartree-Fock + 0.0800 Slater + 0.7200 B88
 Correlation:  0.1900 VWN1RPA + 0.8100 LYP
 Using SG-1 standard quadrature grid
 SCF converges when DIIS error is below 1.0E-08
 Geometry optimization detected.  Setting ReadMinima to 0
 Setting SaveMinima to 0
 ---------------------------------------
  Cycle       Energy         DIIS Error
 ---------------------------------------
    1   -1104.8370039260      1.09E-04
    2   -1104.8379602552      1.85E-05
    3   -1104.8379537552      3.47E-05
    4   -1104.8379631834      5.30E-06
    5   -1104.8379633736      1.90E-06
    6   -1104.8379633959      7.77E-07
    7   -1104.8379634001      2.28E-07
    8   -1104.8379633987      6.15E-08
    9   -1104.8379633979      9.57E-09 Convergence criterion met
 ---------------------------------------
 SCF time:  CPU 5.02 s  wall 4.74 s
 SCF   energy in the final basis set = -1104.8379633979
 Total energy in the final basis set = -1104.8379633979
 
 --------------------------------------------------------------
 
                    Orbital Energies (a.u.)
 --------------------------------------------------------------
 
 Alpha MOs
 -- Occupied --
-88.919 -88.919 -10.236 -10.236 -10.225 -10.225 -10.204 -10.204
-10.203 -10.203  -7.978  -7.978  -5.943  -5.943  -5.939  -5.939
 -5.936  -5.936  -0.898  -0.877  -0.769  -0.744  -0.740  -0.705
 -0.601  -0.570  -0.562  -0.534  -0.523  -0.477  -0.418  -0.414
 -0.412  -0.405  -0.394  -0.375  -0.374  -0.352  -0.349  -0.264
 -0.258  -0.256  -0.230
 -- Virtual --
 -0.042  -0.025  -0.006  -0.002   0.006   0.014   0.019   0.026
  0.026   0.035   0.035   0.042   0.045   0.046   0.064   0.066
  0.071   0.072   0.086   0.099   0.102   0.104   0.106   0.116
  0.117   0.117   0.122   0.130   0.132   0.134   0.139   0.144
  0.146   0.149   0.159   0.162   0.163   0.175   0.178   0.182
  0.184   0.189   0.195   0.202   0.213   0.219   0.223   0.229
  0.239   0.250   0.259   0.263   0.273   0.275   0.298   0.303
  0.309   0.315   0.323   0.331   0.355   0.366   0.372   0.395
  0.434   0.466   0.474   0.500   0.524   0.525   0.553   0.573
  0.579   0.594   0.608   0.643   0.651   0.653   0.669   0.674
  0.690   0.699   0.725   0.727   0.737   0.758   0.763   0.775
  0.775   0.802   0.804   0.827   0.842   0.898   0.905   0.944
  0.954   0.958   0.962   0.966   0.972   0.990   0.991   1.015
  1.017   1.029   1.041   1.052   1.082   1.099   1.101   1.105
  1.130   1.183   1.206   1.220   1.238   1.285   1.326   1.349
  1.353   1.360   1.361   1.391   1.446   1.462   1.497   1.527
  1.574   1.692   1.693   1.787   1.804   1.867   1.881   1.882
  1.913   1.926   1.942   1.961   2.018   2.021   2.064   2.083
  2.132   2.164   2.186   2.212   2.216   2.250   2.252   2.323
  2.366   2.371   2.434   2.444   2.460   2.475   2.490   2.512
  2.514   2.531   2.584   2.585   2.628   2.630   2.695   2.706
  2.762   2.810   2.872   2.873   2.937   3.156   3.184   3.269
  3.271   3.402   3.426   3.720   3.743   3.960   3.978   4.280
  4.311   4.322   4.329   4.429   4.534   4.659   4.711
 --------------------------------------------------------------
 
          Ground-State Mulliken Net Atomic Charges

     Atom                 Charge (a.u.)
  ----------------------------------------
      1 S                     0.035749
      2 C                    -0.035599
      3 H                     0.188933
      4 C                    -0.423457
      5 H                     0.117051
      6 C                     0.339156
      7 H                     0.139040
      8 C                    -0.365263
      9 C                    -0.357828
     10 C                     0.339121
     11 H                     0.138760
     12 C                    -0.422070
     13 H                     0.117072
     14 C                    -0.034727
     15 H                     0.188991
     16 S                     0.035071
  ----------------------------------------
  Sum of atomic charges =     0.000000

 -----------------------------------------------------------------
                    Cartesian Multipole Moments
 -----------------------------------------------------------------
    Charge (ESU x 10^10)
                 0.0000
    Dipole Moment (Debye)
         X       0.3182      Y      -0.5040      Z      -0.5908
       Tot       0.8392
    Quadrupole Moments (Debye-Ang)
        XX     -64.1005     XY      -0.5192     YY     -74.0942
        XZ       4.7872     YZ       2.6307     ZZ     -67.7649
    Octopole Moments (Debye-Ang^2)
       XXX     158.6281    XXY      -7.8949    XYY      47.7716
       YYY     -49.0426    XXZ     105.2785    XYZ      -0.1189
       YYZ     134.0401    XZZ      43.1854    YZZ     -26.9416
       ZZZ     406.7712
    Hexadecapole Moments (Debye-Ang^3)
      XXXX   -1767.4967   XXXY      66.4514   XXYY    -367.9831
      XYYY     115.1383   YYYY    -347.1447   XXXZ    -592.4672
      XXYZ       9.9042   XYYZ    -214.1954   YYYZ      96.9242
      XXZZ    -583.2328   XYZZ      51.3582   YYZZ    -446.3939
      XZZZ    -674.0057   YZZZ     136.7614   ZZZZ   -2450.2512
 -----------------------------------------------------------------
 Calculating analytic gradient of the SCF energy
 Gradient of SCF Energy
            1           2           3           4           5           6
    1   0.0000187  -0.0000097   0.0000111   0.0000237  -0.0000065   0.0001062
    2  -0.0000247   0.0000002   0.0000195   0.0000015  -0.0000002   0.0018409
    3  -0.0001107   0.0000029  -0.0000003   0.0000430   0.0000233  -0.0001384
            7           8           9          10          11          12
    1  -0.0000146  -0.0007672   0.0014277  -0.0008379   0.0000194  -0.0000270
    2  -0.0000317  -0.0032023   0.0021738  -0.0006932   0.0000124   0.0000083
    3   0.0000090   0.0010767  -0.0022872   0.0014961  -0.0000055  -0.0000182
           13          14          15          16
    1  -0.0000011   0.0000156  -0.0000082   0.0000498
    2   0.0000072  -0.0000011  -0.0000188  -0.0000916
    3   0.0000023  -0.0000125  -0.0000200  -0.0000605
 Max gradient component =       3.202E-03
 RMS gradient           =       8.020E-04
 Gradient time:  CPU 2.05 s  wall 2.05 s
 Geometry Optimization Parameters
   NAtoms,    NIC,     NZ,  NCons,   NDum,   NFix, NCnnct, MaxDiis
       16     111       0       1       0       0       0       0

 Cartesian Hessian Update
 Hessian Updated using BFGS Update


** CONSTRAINED OPTIMIZATION IN DELOCALIZED INTERNAL COORDINATES **
   Searching for a Minimum

   Optimization Cycle:   6

                       Coordinates (Angstroms)
     ATOM                X               Y               Z
      1  S         0.0136231223    0.0968738064    0.0155420011
      2  C         1.7453092014    0.0393022294    0.0043662716
      3  H         2.2943581128    0.0577482864    0.9361058833
      4  C         2.2414474182   -0.0291045571   -1.2713320180
      5  H         3.3007169239   -0.0715878147   -1.4979414687
      6  C         1.2147744470   -0.0252258591   -2.2625105693
      7  H         1.3976258641   -0.0526350045   -3.3306858608
      8  C        -0.0560660222    0.0290444633   -1.7365322389
      9  C        -1.3309162909    0.0637930882   -2.4562714525
     10  C        -1.9247428401   -0.9453449790   -3.1801288858
     11  H        -1.4681088152   -1.9220609996   -3.2933453503
     12  C        -3.1847744188   -0.5781589301   -3.7407558116
     13  H        -3.7951810115   -1.2417183277   -4.3428049856
     14  C        -3.5501684122    0.7044036351   -3.4253045536
     15  H        -4.4493230981    1.2336152408   -3.7108320965
     16  S        -2.3537148008    1.4894470223   -2.4485303945
   Point Group: c1    Number of degrees of freedom:    42


   Energy is  -1104.837963398

              Constraints and their Current Values
                                        Value     Constraint
   Dihedral:        6   8   9  10       70.000       70.000
 Hessian Updated using BFGS Update

 39 Hessian modes will be used to form the next step
  Hessian Eigenvalues:
     0.009252    0.042682    0.045000    0.045001    0.045002    0.045003
     0.045006    0.045012    0.045258    0.046217    0.146308    0.159950
     0.159991    0.160000    0.160156    0.160608    0.194030    0.221286
     0.224836    0.237853    0.250039    0.282655    0.294377    0.298231
     0.312568    0.314413    0.354782    0.355021    0.355131    0.355424
     0.358273    0.358825    0.399385    0.404918    0.436483    0.463582
     0.479194    0.497936    0.506526

 Minimum Search - Taking Simple RFO Step
 Searching for Lamda that Minimizes Along All modes
 Value Taken    Lamda =   0.00000000
 Step Taken.  Stepsize is  0.005320

                             Maximum     Tolerance    Cnvgd?
         Gradient           0.000200      0.000300     YES
         Displacement       0.003563      0.001200      NO
         Energy change     -0.000002      0.000001      NO


 New Cartesian Coordinates Obtained by Inverse Iteration

 Displacement from previous Coordinates is:  0.014941
 ----------------------------------------------------------------
             Standard Nuclear Orientation (Angstroms)
    I     Atom           X                Y                Z
 ----------------------------------------------------------------
    1      S       0.0130476961     0.0979709161     0.0145174867
    2      C       1.7447700376     0.0407931763     0.0045836005
    3      H       2.2930077137     0.0603174850     0.9367678957
    4      C       2.2417231692    -0.0290369099    -1.2707432707
    5      H       3.3011514230    -0.0714257501    -1.4966963165
    6      C       1.2158068537    -0.0265897189    -2.2625877764
    7      H       1.3996959279    -0.0547180042    -3.3305779436
    8      C      -0.0554316008     0.0278251489    -1.7376969593
    9      C      -1.3301813193     0.0628034908    -2.4576325074
   10      C      -1.9248330166    -0.9455311787    -3.1818455496
   11      H      -1.4687143612    -1.9223647278    -3.2962252231
   12      C      -3.1853311437    -0.5777965299    -3.7408743865
   13      H      -3.7962370473    -1.2408751974    -4.3429762204
   14      C      -3.5505602070     0.7044259865    -3.4237604661
   15      H      -4.4498385435     1.2341122490    -3.7079730251
   16      S      -2.3532162018     1.4884808643    -2.4472408682
 ----------------------------------------------------------------
 Nuclear Repulsion Energy =   629.0554789242 hartrees
 There are       43 alpha and       43 beta electrons
 Applying Cartesian multipole field
    Component          Value
    ---------          -----
     (2,0,0)        1.00000E-11
     (0,2,0)        2.00000E-11
     (0,0,2)       -3.00000E-11
 Nucleus-field energy     =    -0.0000000327 hartrees
 Requested basis set is 6-31++G(d,p)
 There are 76 shells and 234 basis functions
 A cutoff of  1.0D-12 yielded   2523 shell pairs
 There are     24905 function pairs

 Q-Chem warning in module /project/projectdirs/jcesr/qchem/qc44/cnl_qc441/compile/cori/qc_src/libqints/qchem/aobasis.C, line 68:

 Using reconstructed effective core potential

 Smallest overlap matrix eigenvalue = 1.25E-06
 Guess MOs from SCF MO coefficient file
 Reading MOs from coefficient file
 Reading MOs from coefficient file
 A restricted hybrid HF-DFT SCF calculation will be
 performed using Pulay DIIS extrapolation
 Exchange:     0.2000 Hartree-Fock + 0.0800 Slater + 0.7200 B88
 Correlation:  0.1900 VWN1RPA + 0.8100 LYP
 Using SG-1 standard quadrature grid
 SCF converges when DIIS error is below 1.0E-08
 Geometry optimization detected.  Setting ReadMinima to 0
 Setting SaveMinima to 0
 ---------------------------------------
  Cycle       Energy         DIIS Error
 ---------------------------------------
    1   -1104.8375495921      5.79E-05
    2   -1104.8379624461      1.28E-05
    3   -1104.8379586920      2.56E-05
    4   -1104.8379637745      3.16E-06
    5   -1104.8379638409      1.09E-06
    6   -1104.8379638487      3.84E-07
    7   -1104.8379638518      1.25E-07
    8   -1104.8379638507      3.04E-08
    9   -1104.8379638499      4.56E-09 Convergence criterion met
 ---------------------------------------
 SCF time:  CPU 4.96 s  wall 4.65 s
 SCF   energy in the final basis set = -1104.8379638499
 Total energy in the final basis set = -1104.8379638499
 
 --------------------------------------------------------------
 
                    Orbital Energies (a.u.)
 --------------------------------------------------------------
 
 Alpha MOs
 -- Occupied --
-88.919 -88.919 -10.236 -10.236 -10.225 -10.225 -10.204 -10.204
-10.203 -10.203  -7.978  -7.978  -5.943  -5.943  -5.939  -5.939
 -5.936  -5.936  -0.898  -0.877  -0.769  -0.744  -0.740  -0.705
 -0.601  -0.570  -0.562  -0.534  -0.523  -0.477  -0.418  -0.414
 -0.412  -0.405  -0.394  -0.375  -0.374  -0.352  -0.349  -0.264
 -0.258  -0.256  -0.230
 -- Virtual --
 -0.042  -0.025  -0.006  -0.002   0.006   0.014   0.019   0.026
  0.026   0.035   0.035   0.042   0.045   0.046   0.064   0.066
  0.071   0.072   0.086   0.099   0.102   0.104   0.106   0.116
  0.117   0.118   0.122   0.130   0.132   0.134   0.139   0.144
  0.146   0.149   0.159   0.162   0.163   0.175   0.178   0.182
  0.184   0.189   0.195   0.202   0.213   0.219   0.223   0.229
  0.239   0.250   0.259   0.263   0.273   0.275   0.298   0.303
  0.309   0.315   0.323   0.331   0.355   0.366   0.372   0.395
  0.434   0.466   0.474   0.500   0.524   0.525   0.553   0.573
  0.579   0.594   0.608   0.643   0.651   0.653   0.669   0.674
  0.691   0.699   0.725   0.727   0.737   0.758   0.763   0.775
  0.775   0.802   0.804   0.827   0.842   0.898   0.905   0.944
  0.954   0.958   0.962   0.966   0.971   0.990   0.991   1.015
  1.017   1.030   1.041   1.052   1.082   1.099   1.101   1.105
  1.130   1.183   1.206   1.220   1.238   1.285   1.326   1.349
  1.353   1.360   1.361   1.390   1.446   1.463   1.497   1.527
  1.574   1.692   1.693   1.787   1.804   1.867   1.881   1.882
  1.912   1.926   1.942   1.961   2.018   2.021   2.064   2.083
  2.132   2.164   2.186   2.212   2.216   2.250   2.252   2.323
  2.366   2.371   2.434   2.444   2.460   2.475   2.490   2.512
  2.514   2.531   2.584   2.585   2.628   2.630   2.695   2.706
  2.762   2.810   2.872   2.873   2.937   3.156   3.184   3.269
  3.271   3.402   3.426   3.720   3.743   3.960   3.978   4.279
  4.311   4.322   4.329   4.429   4.535   4.659   4.711
 --------------------------------------------------------------
 
          Ground-State Mulliken Net Atomic Charges

     Atom                 Charge (a.u.)
  ----------------------------------------
      1 S                     0.034900
      2 C                    -0.035274
      3 H                     0.188994
      4 C                    -0.424058
      5 H                     0.117037
      6 C                     0.340239
      7 H                     0.139049
      8 C                    -0.365286
      9 C                    -0.357817
     10 C                     0.340218
     11 H                     0.138765
     12 C                    -0.422680
     13 H                     0.117061
     14 C                    -0.034384
     15 H                     0.189050
     16 S                     0.034188
  ----------------------------------------
  Sum of atomic charges =    -0.000000

 -----------------------------------------------------------------
                    Cartesian Multipole Moments
 -----------------------------------------------------------------
    Charge (ESU x 10^10)
                 0.0000
    Dipole Moment (Debye)
         X       0.3176      Y      -0.5031      Z      -0.5897
       Tot       0.8377
    Quadrupole Moments (Debye-Ang)
        XX     -64.0944     XY      -0.5183     YY     -74.0948
        XZ       4.7831     YZ       2.6400     ZZ     -67.7695
    Octopole Moments (Debye-Ang^2)
       XXX     158.5729    XXY      -7.8702    XYY      47.7648
       YYY     -49.0221    XXZ     105.2864    XYZ      -0.1207
       YYZ     134.0492    XZZ      43.2190    YZZ     -26.9705
       ZZZ     406.8276
    Hexadecapole Moments (Debye-Ang^3)
      XXXX   -1767.3761   XXXY      66.2642   XXYY    -367.9430
      XYYY     114.9805   YYYY    -346.9450   XXXZ    -592.3226
      XXYZ       9.8424   XYYZ    -214.1510   YYYZ      96.5875
      XXZZ    -583.3703   XYZZ      51.3998   YYZZ    -446.3350
      XZZZ    -674.0607   YZZZ     136.6224   ZZZZ   -2450.2705
 -----------------------------------------------------------------
 Calculating analytic gradient of the SCF energy
 Gradient of SCF Energy
            1           2           3           4           5           6
    1  -0.0000023   0.0000211  -0.0000112  -0.0000332   0.0000006   0.0001229
    2   0.0000025   0.0000089   0.0000155   0.0000033   0.0000034   0.0018431
    3  -0.0000587   0.0000244   0.0000059  -0.0000198   0.0000138  -0.0000526
            7           8           9          10          11          12
    1   0.0000036  -0.0007063   0.0014481  -0.0008971   0.0000035   0.0000417
    2  -0.0000193  -0.0032374   0.0020829  -0.0006277   0.0000001  -0.0000188
    3   0.0000077   0.0009985  -0.0023607   0.0014918  -0.0000038   0.0000131
           13          14          15          16
    1  -0.0000021  -0.0000237   0.0000065   0.0000279
    2  -0.0000058   0.0000013  -0.0000032  -0.0000488
    3   0.0000002  -0.0000236  -0.0000126  -0.0000237
 Max gradient component =       3.237E-03
 RMS gradient           =       8.015E-04
 Gradient time:  CPU 2.04 s  wall 2.05 s
 Geometry Optimization Parameters
   NAtoms,    NIC,     NZ,  NCons,   NDum,   NFix, NCnnct, MaxDiis
       16     111       0       1       0       0       0       0

 Cartesian Hessian Update
 Hessian Updated using BFGS Update


** CONSTRAINED OPTIMIZATION IN DELOCALIZED INTERNAL COORDINATES **
   Searching for a Minimum

   Optimization Cycle:   7

                       Coordinates (Angstroms)
     ATOM                X               Y               Z
      1  S         0.0130476961    0.0979709161    0.0145174867
      2  C         1.7447700376    0.0407931763    0.0045836005
      3  H         2.2930077137    0.0603174850    0.9367678957
      4  C         2.2417231692   -0.0290369099   -1.2707432707
      5  H         3.3011514230   -0.0714257501   -1.4966963165
      6  C         1.2158068537   -0.0265897189   -2.2625877764
      7  H         1.3996959279   -0.0547180042   -3.3305779436
      8  C        -0.0554316008    0.0278251489   -1.7376969593
      9  C        -1.3301813193    0.0628034908   -2.4576325074
     10  C        -1.9248330166   -0.9455311787   -3.1818455496
     11  H        -1.4687143612   -1.9223647278   -3.2962252231
     12  C        -3.1853311437   -0.5777965299   -3.7408743865
     13  H        -3.7962370473   -1.2408751974   -4.3429762204
     14  C        -3.5505602070    0.7044259865   -3.4237604661
     15  H        -4.4498385435    1.2341122490   -3.7079730251
     16  S        -2.3532162018    1.4884808643   -2.4472408682
   Point Group: c1    Number of degrees of freedom:    42


   Energy is  -1104.837963850

              Constraints and their Current Values
                                        Value     Constraint
   Dihedral:        6   8   9  10       70.000       70.000
 Hessian Updated using BFGS Update

 41 Hessian modes will be used to form the next step
  Hessian Eigenvalues:
     0.009712    0.040966    0.045000    0.045000    0.045000    0.045001
     0.045002    0.045004    0.045011    0.045016    0.045050    0.046059
     0.138349    0.159947    0.159990    0.159999    0.160083    0.160668
     0.175450    0.221286    0.224458    0.237860    0.250015    0.281255
     0.289513    0.294460    0.312566    0.314349    0.354773    0.354926
     0.355131    0.355459    0.358273    0.358797    0.393919    0.404887
     0.439570    0.463539    0.463613    0.497933    0.508303

 Minimum Search - Taking Simple RFO Step
 Searching for Lamda that Minimizes Along All modes
 Value Taken    Lamda =   0.00000000
 Step Taken.  Stepsize is  0.000979

                             Maximum     Tolerance    Cnvgd?
         Gradient           0.000073      0.000300     YES
         Displacement       0.000512      0.001200     YES
         Energy change     -0.000000      0.000001     YES

 Final energy is   -1104.83796384994     


 ******************************
 **  OPTIMIZATION CONVERGED  **
 ******************************

                       Coordinates (Angstroms)
     ATOM                X               Y               Z
      1  S         0.0130476961    0.0979709161    0.0145174867
      2  C         1.7447700376    0.0407931763    0.0045836005
      3  H         2.2930077137    0.0603174850    0.9367678957
      4  C         2.2417231692   -0.0290369099   -1.2707432707
      5  H         3.3011514230   -0.0714257501   -1.4966963165
      6  C         1.2158068537   -0.0265897189   -2.2625877764
      7  H         1.3996959279   -0.0547180042   -3.3305779436
      8  C        -0.0554316008    0.0278251489   -1.7376969593
      9  C        -1.3301813193    0.0628034908   -2.4576325074
     10  C        -1.9248330166   -0.9455311787   -3.1818455496
     11  H        -1.4687143612   -1.9223647278   -3.2962252231
     12  C        -3.1853311437   -0.5777965299   -3.7408743865
     13  H        -3.7962370473   -1.2408751974   -4.3429762204
     14  C        -3.5505602070    0.7044259865   -3.4237604661
     15  H        -4.4498385435    1.2341122490   -3.7079730251
     16  S        -2.3532162018    1.4884808643   -2.4472408682

Z-matrix Print:
$molecule
0 1
S 
C  1 1.732695
H  2 1.081625 1 120.069065
C  2 1.370510 1 111.679699 3 179.899664 0
H  4 1.084085 2 123.387716 1 179.884825 0
C  4 1.426978 2 112.706708 1 0.454673 0
H  6 1.084071 4 124.246787 2 178.658286 0
C  6 1.376415 4 113.516503 2 -0.779145 0
C  8 1.464417 6 128.128933 4 179.158954 0
C  9 1.376530 8 128.111544 6 70.000000 0
H  10 1.084127 9 122.261273 8 -0.333237 0
C  10 1.427094 9 113.509419 8 179.041393 0
H  12 1.084161 10 123.893647 9 179.823159 0
C  12 1.370419 10 112.696489 9 -0.787070 0
H  14 1.081687 12 128.238584 10 -179.685587 0
S  14 1.732618 12 111.693886 10 0.478022 0
$end

 
 --------------------------------------------------------------
 
                    Orbital Energies (a.u.)
 --------------------------------------------------------------
 
 Alpha MOs
 -- Occupied --
-88.919 -88.919 -10.236 -10.236 -10.225 -10.225 -10.204 -10.204
-10.203 -10.203  -7.978  -7.978  -5.943  -5.943  -5.939  -5.939
 -5.936  -5.936  -0.898  -0.877  -0.769  -0.744  -0.740  -0.705
 -0.601  -0.570  -0.562  -0.534  -0.523  -0.477  -0.418  -0.414
 -0.412  -0.405  -0.394  -0.375  -0.374  -0.352  -0.349  -0.264
 -0.258  -0.256  -0.230
 -- Virtual --
 -0.042  -0.025  -0.006  -0.002   0.006   0.014   0.019   0.026
  0.026   0.035   0.035   0.042   0.045   0.046   0.064   0.066
  0.071   0.072   0.086   0.099   0.102   0.104   0.106   0.116
  0.117   0.118   0.122   0.130   0.132   0.134   0.139   0.144
  0.146   0.149   0.159   0.162   0.163   0.175   0.178   0.182
  0.184   0.189   0.195   0.202   0.213   0.219   0.223   0.229
  0.239   0.250   0.259   0.263   0.273   0.275   0.298   0.303
  0.309   0.315   0.323   0.331   0.355   0.366   0.372   0.395
  0.434   0.466   0.474   0.500   0.524   0.525   0.553   0.573
  0.579   0.594   0.608   0.643   0.651   0.653   0.669   0.674
  0.691   0.699   0.725   0.727   0.737   0.758   0.763   0.775
  0.775   0.802   0.804   0.827   0.842   0.898   0.905   0.944
  0.954   0.958   0.962   0.966   0.971   0.990   0.991   1.015
  1.017   1.030   1.041   1.052   1.082   1.099   1.101   1.105
  1.130   1.183   1.206   1.220   1.238   1.285   1.326   1.349
  1.353   1.360   1.361   1.390   1.446   1.463   1.497   1.527
  1.574   1.692   1.693   1.787   1.804   1.867   1.881   1.882
  1.912   1.926   1.942   1.961   2.018   2.021   2.064   2.083
  2.132   2.164   2.186   2.212   2.216   2.250   2.252   2.323
  2.366   2.371   2.434   2.444   2.460   2.475   2.490   2.512
  2.514   2.531   2.584   2.585   2.628   2.630   2.695   2.706
  2.762   2.810   2.872   2.873   2.937   3.156   3.184   3.269
  3.271   3.402   3.426   3.720   3.743   3.960   3.978   4.279
  4.311   4.322   4.329   4.429   4.535   4.659   4.711
 --------------------------------------------------------------
 
          Ground-State Mulliken Net Atomic Charges

     Atom                 Charge (a.u.)
  ----------------------------------------
      1 S                     0.034900
      2 C                    -0.035274
      3 H                     0.188994
      4 C                    -0.424058
      5 H                     0.117037
      6 C                     0.340239
      7 H                     0.139049
      8 C                    -0.365286
      9 C                    -0.357817
     10 C                     0.340218
     11 H                     0.138765
     12 C                    -0.422680
     13 H                     0.117061
     14 C                    -0.034384
     15 H                     0.189050
     16 S                     0.034188
  ----------------------------------------
  Sum of atomic charges =    -0.000000

 -----------------------------------------------------------------
                    Cartesian Multipole Moments
 -----------------------------------------------------------------
    Charge (ESU x 10^10)
                 0.0000
    Dipole Moment (Debye)
         X       0.3176      Y      -0.5031      Z      -0.5897
       Tot       0.8377
    Quadrupole Moments (Debye-Ang)
        XX     -64.0944     XY      -0.5183     YY     -74.0948
        XZ       4.7831     YZ       2.6400     ZZ     -67.7695
    Octopole Moments (Debye-Ang^2)
       XXX     158.5729    XXY      -7.8702    XYY      47.7648
       YYY     -49.0221    XXZ     105.2864    XYZ      -0.1207
       YYZ     134.0492    XZZ      43.2190    YZZ     -26.9705
       ZZZ     406.8276
    Hexadecapole Moments (Debye-Ang^3)
      XXXX   -1767.3761   XXXY      66.2642   XXYY    -367.9430
      XYYY     114.9805   YYYY    -346.9450   XXXZ    -592.3226
      XXYZ       9.8424   XYYZ    -214.1510   YYYZ      96.5875
      XXZZ    -583.3703   XYZZ      51.3998   YYZZ    -446.3350
      XZZZ    -674.0607   YZZZ     136.6224   ZZZZ   -2450.2705
 -----------------------------------------------------------------
Archival summary:
1\1\nid00479\OPT\ProcedureUnspecified\BasisUnspecified\286\bwood\WedMay3102:25:392017WedMay3102:25:392017\0\\#,OPT,ProcedureUnspecified,BasisUnspecified,\\0,1\S\C,1,1.73269\H,2,1.08163,1,120.069\C,2,1.37051,1,111.68,3,179.9,0\H,4,1.08408,2,123.388,1,179.885,0\C,4,1.42698,2,112.707,1,0.454673,0\H,6,1.08407,4,124.247,2,178.658,0\C,6,1.37642,4,113.517,2,-0.779145,0\C,8,1.46442,6,128.129,4,179.159,0\C,9,1.37653,8,128.112,6,70,0\H,10,1.08413,9,122.261,8,-0.333237,0\C,10,1.42709,9,113.509,8,179.041,0\H,12,1.08416,10,123.894,9,179.823,0\C,12,1.37042,10,112.696,9,-0.78707,0\H,14,1.08169,12,128.239,10,-179.686,0\S,14,1.73262,12,111.694,10,0.478022,0\\\@

 Total job time:  55.25s(wall), 55.98s(cpu) 
 Wed May 31 02:25:39 2017

        *************************************************************
        *                                                           *
        *  Thank you very much for using Q-Chem.  Have a nice day.  *
        *                                                           *
        *************************************************************


0 sent ACK to 0 
now end server 0 ... 
