srun -N 1 --ntasks-per-node 16 --cpus-per-task 4 --cpu_bind=cores --nodelist nid00496 /global/project/projectdirs/jcesr/qchem/qc44/cnl_qc441/dist/exe/qcprog.cori.haswell.exe .pt_n2_neutral_-10.0.in.47514.qcin.1 /global/cscratch1/sd/bwood/qchem/nx/qchem47514/
Process 0 of 16 is on nid00496 - thread support 0
Process 1 of 16 is on nid00496 - thread support 0
Process 2 of 16 is on nid00496 - thread support 0
Process 3 of 16 is on nid00496 - thread support 0
Process 4 of 16 is on nid00496 - thread support 0
Process 5 of 16 is on nid00496 - thread support 0
Process 6 of 16 is on nid00496 - thread support 0
initial socket setup ...start
Process 15 of 16 is on nid00496 - thread support 0
initial socket setup ...done 
now start server 0 ... 
nid00496 10.128.1
Q-Chem Developer Version! Running on 10.128.1.*
                  Welcome to Q-Chem
     A Quantum Leap Into The Future Of Chemistry


 Q-Chem 4.4, Q-Chem, Inc., Pleasanton, CA (2016)

 Y. Shao,  Z. Gan,  E. Epifanovsky,  A. T. B. Gilbert,  M. Wormit,  
 J. Kussmann,  A. W. Lange,  A. Behn,  J. Deng,  X. Feng,  D. Ghosh,  
 M. Goldey,  P. R. Horn,  L. D. Jacobson,  I. Kaliman,  F. Rob,  
 R. Z. Khaliullin,  T. Kus,  A. Landau,  J. Liu,  E. I. Proynov,  Y. M. Rhee,  
 R. M. Richard,  M. A. Rohrdanz,  R. P. Steele,  E. J. Sundstrom,  
 H. L. Woodcock III,  P. M. Zimmerman,  D. Zuev,  B. Albrecht,  E. Alguire,  
 B. Austin,  S. A. Baeppler,  G. J. O. Beran,  Y. A. Bernard,  
 E. J. Berquist,  K. Brandhorst,  K. B. Bravaya,  S. T. Brown,  D. Casanova,  
 C.-M. Chang,  Y. Chen,  S. H. Chien,  K. D. Closser,  M. P. Coons,  
 D. L. Crittenden,  S. Dasgupta,  M. Diedenhofen,  R. A. DiStasio Jr.,  
 H. Do,  A. D. Dutoi,  R. G. Edgar,  P.-T. Fang,  S. Fatehi,  Q. Feng,  
 L. Fusti-Molnar,  A. Ghysels,  A. Golubeva-Zadorozhnaya,  J. Gomes,  
 A. Gunina,  M. W. D. Hanson-Heine,  P. H. P. Harbach,  A. W. Hauser,  
 J. E. Herr,  E. G. Hohenstein,  Z. C. Holden,  K. Hui,  T.-C. Jagau,  H. Ji,  
 B. Kaduk,  K. Khistyaev,  Jaehoon Kim,  Jihan Kim,  R. A. King,  
 P. Klunzinger,  K. Koh,  D. Kosenkov,  T. Kowalczyk,  C. M. Krauter,  
 A. Kunitsa,  K. U. Lao,  A. Laurent,  K. V. Lawler,  J. Lee,  D. Lefrancois,  
 S. Lehtola,  S. V. Levchenko,  C. Y. Lin,  Y.-S. Lin,  F. Liu,  E. Livshits,  
 R. C. Lochan,  A. Luenser,  P. Manohar,  S. F. Manzer,  S.-P. Mao,  Y. Mao,  
 N. Mardirossian,  A. V. Marenich,  L. A. Martinez-Martinez,  S. A. Maurer,  
 N. J. Mayhall,  J.-M. Mewes,  A. F. Morrison,  K. Nanda,  T. S. Nguyen-Beck,  
 C. M. Oana,  R. Olivares-Amaya,  D. P. O'Neill,  J. A. Parkhill,  
 T. M. Perrine,  R. Peverati,  P. A. Pieniazek,  F. Plasser,  A. Prociuk,  
 D. R. Rehn,  E. Rosta,  N. J. Russ,  N. Sergueev,  S. M. Sharada,  
 S. Sharma,  D. W. Small,  A. Sodt,  T. Stauch,  T. Stein,  D. Stuck,  
 Y.-C. Su,  A. J. W. Thom,  T. Tsuchimochi,  L. Vogt,  O. Vydrov,  T. Wang,  
 M. A. Watson,  J. Wenzel,  A. White,  C. F. Williams,  V. Vanovschi,  
 K. Yao,  S. Yeganeh,  S. R. Yost,  Z.-Q. You,  I. Y. Zhang,  X. Zhang,  
 Y. Zhao,  B. R. Brooks,  G. K. L. Chan,  D. M. Chipman,  C. J. Cramer,  
 W. A. Goddard III,  M. S. Gordon,  W. J. Hehre,  A. Klamt,  
 H. F. Schaefer III,  M. W. Schmidt,  C. D. Sherrill,  D. G. Truhlar,  
 A. Warshel,  X. Xu,  A. Aspuru-Guzik,  R. Baer,  A. T. Bell,  N. A. Besley,  
 J.-D. Chai,  A. Dreuw,  B. D. Dunietz,  T. R. Furlani,  S. R. Gwaltney,  
 C.-P. Hsu,  Y. Jung,  J. Kong,  D. S. Lambrecht,  W. Liang,  C. Ochsenfeld,  
 V. A. Rassolov,  L. V. Slipchenko,  J. E. Subotnik,  T. Van Voorhis,  
 J. M. Herbert,  A. I. Krylov,  P. M. W. Gill,  M. Head-Gordon

 Contributors to earlier versions of Q-Chem not listed above: 
 R. D. Adamson,  J. Baker,  E. F. C. Byrd,  A. K. Chakraborty,  C.-L. Cheng,  
 H. Dachsel,  R. J. Doerksen,  G. Hawkins,  A. Heyden,  S. Hirata,  
 G. Kedziora,  F. J. Keil,  C. Kelley,  P. P. Korambath,  W. Kurlancheek,  
 A. M. Lee,  M. S. Lee,  D. Liotard,  I. Lotan,  P. E. Maslen,  N. Nair,  
 D. Neuhauser,  R. Olson,  B. Peters,  J. Ritchie,  N. E. Schultz,  
 N. Shenvi,  A. C. Simmonett,  K. S. Thanthiriwatte,  Q. Wu,  W. Zhang

 Please cite Q-Chem as follows:
 Y. Shao et al., Mol. Phys. 113, 184-215 (2015)
 DOI: 10.1080/00268976.2014.952696

 Q-Chem 4.4.2 for Intel X86 EM64T Linux

 Parts of Q-Chem use Armadillo 5.200.1 (Boston Tea Smuggler).
 http://arma.sourceforge.net/

 Q-Chem begins on Wed May 31 02:24:39 2017  

Host: nid00447
0

     Scratch files written to /global/cscratch1/sd/bwood/qchem/nx/qchem47514.0//
 Parallel job on  16  processors

Checking the input file for inconsistencies... 	...done.

--------------------------------------------------------------
User input:
--------------------------------------------------------------
$molecule
 0  1
 S           0.00238887        0.06077275        0.00183269
 C           1.73707619        0.03315849        0.00323229
 H           2.27612737        0.05289032        0.94042557
 C           2.24169204       -0.01546201       -1.26965798
 H           3.30285780       -0.04005365       -1.48972496
 C           1.22479222       -0.01612968       -2.26811464
 H           1.42674790       -0.02650987       -3.33334501
 C          -0.05393771        0.02880388       -1.75170966
 C          -1.32450815        0.04889988       -2.45636342
 C          -1.56700304        0.21461261       -3.80461190
 H          -0.77327810        0.34092584       -4.53252931
 C          -2.95051677        0.16955731       -4.14335147
 H          -3.32753912        0.27268101       -5.15444705
 C          -3.75809803       -0.03160198       -3.05501253
 H          -4.83583766       -0.11498684       -3.02330268
 S          -2.83745639       -0.15225136       -1.58961225
$end


$rem
         jobtype = opt
        exchange = b3lyp
           basis = 6-31++g**
  max_scf_cycles = 150
      mem_static = 775
       mem_total = 7750
      sym_ignore = true
        symmetry = false
          thresh = 12
$end


$opt
CONSTRAINT
tors 6 8 9 10 -10.0
ENDCONSTRAINT
$end

--------------------------------------------------------------
 ----------------------------------------------------------------
             Standard Nuclear Orientation (Angstroms)
    I     Atom           X                Y                Z
 ----------------------------------------------------------------
    1      S       0.0023888700     0.0607727500     0.0018326900
    2      C       1.7370761900     0.0331584900     0.0032322900
    3      H       2.2761273700     0.0528903200     0.9404255700
    4      C       2.2416920400    -0.0154620100    -1.2696579800
    5      H       3.3028578000    -0.0400536500    -1.4897249600
    6      C       1.2247922200    -0.0161296800    -2.2681146400
    7      H       1.4267479000    -0.0265098700    -3.3333450100
    8      C      -0.0539377100     0.0288038800    -1.7517096600
    9      C      -1.3245081500     0.0488998800    -2.4563634200
   10      C      -1.5670030400     0.2146126100    -3.8046119000
   11      H      -0.7732781000     0.3409258400    -4.5325293100
   12      C      -2.9505167700     0.1695573100    -4.1433514700
   13      H      -3.3275391200     0.2726810100    -5.1544470500
   14      C      -3.7580980300    -0.0316019800    -3.0550125300
   15      H      -4.8358376600    -0.1149868400    -3.0233026800
   16      S      -2.8374563900    -0.1522513600    -1.5896122500
 ----------------------------------------------------------------
 Nuclear Repulsion Energy =   633.0523292204 hartrees
 There are       43 alpha and       43 beta electrons
 Requested basis set is 6-31++G(d,p)
 There are 76 shells and 234 basis functions

 Total QAlloc Memory Limit   7750 MB
 Mega-Array Size       758 MB
 MEM_STATIC part       775 MB
 A cutoff of  1.0D-12 yielded   2529 shell pairs
 There are     24877 function pairs

 Q-Chem warning in module /project/projectdirs/jcesr/qchem/qc44/cnl_qc441/compile/cori/qc_src/libqints/qchem/aobasis.C, line 68:

 Using reconstructed effective core potential

 
 -------------------------------------------------------
 OpenMP Integral Computing Module                       
 Release: version 1.0, May 2013, Q-Chem Inc. Pittsburgh 
 -------------------------------------------------------
 Integral Job Info:
 Integral job number is                      11
 Integral operator is                         1
 short-range coefficients                     0
 long-range coefficients              100000000
 Omega coefficients                           0
 if combine SR and LR in K                    0
 Integral screening is                        0
 Integral computing path is                   2
 max size of driver memory is            800000
 size of driver memory is                593474
 size of scratch memory is             15166112
 max col of scratch BK array               1296
 max len of scratch array in speh3          155
 max len of scratch index in speh4           18
 max int batch size is                      520
 min int batch size is                       52
 fixed nKL is                                52
 max L of basis functions is                  2
 order of int derivative is                   0
 number of shells is                         76
 number of basis is                         234
 number of cartesian basis is               234
 number of contracted shell pairs          2529
 number of primitive shell pairs           8247
 maxK2 (contraction) of shell pair           36
 max number of K2 of shell pair               1
 max number of CS2 of shell pair            260
 max number of PS2 of shell pair           1500
 mem total for path MDJ                   51992
 -------------------------------------------------------
 Smallest overlap matrix eigenvalue = 6.82E-07
 Linear dependence detected in AO basis
 Number of orthogonalized atomic orbitals = 233
 Maximum deviation from orthogonality = 9.362E-11

 Scale SEOQF with 1.000000e-01/1.000000e-01/1.000000e-02

 Standard Electronic Orientation quadrupole field applied
 Nucleus-field energy     =     0.0000000096 hartrees
 Guess from superposition of atomic densities
 Warning:  Energy on first SCF cycle will be non-variational
 A restricted hybrid HF-DFT SCF calculation will be
 performed using Pulay DIIS extrapolation
 Exchange:     0.2000 Hartree-Fock + 0.0800 Slater + 0.7200 B88
 Correlation:  0.1900 VWN1RPA + 0.8100 LYP
 Using SG-1 standard quadrature grid
 SCF converges when DIIS error is below 1.0E-08
 ---------------------------------------
  Cycle       Energy         DIIS Error
 ---------------------------------------
    1   -1107.1884248687      4.42E-02
    2   -1104.6624519534      4.82E-03
    3   -1104.3712690675      7.64E-03
    4   -1104.8283267881      1.09E-03
    5   -1104.8368487250      4.99E-04
    6   -1104.8384720200      1.62E-04
    7   -1104.8386462895      6.49E-05
    8   -1104.8386735352      2.05E-05
    9   -1104.8386767888      2.20E-06
   10   -1104.8386768266      5.27E-07
   11   -1104.8386768290      2.59E-07
   12   -1104.8386768296      4.36E-08
   13   -1104.8386768293      3.01E-08
   14   -1104.8386768293      6.87E-09 Convergence criterion met
 ---------------------------------------
 SCF time:  CPU 7.70 s  wall 7.24 s
 SCF   energy in the final basis set = -1104.8386768293
 Total energy in the final basis set = -1104.8386768293
 
 --------------------------------------------------------------
 
                    Orbital Energies (a.u.)
 --------------------------------------------------------------
 
 Alpha MOs
 -- Occupied --
-88.919 -88.919 -10.239 -10.239 -10.225 -10.225 -10.205 -10.205
-10.204 -10.204  -7.979  -7.979  -5.943  -5.943  -5.940  -5.939
 -5.936  -5.936  -0.901  -0.878  -0.772  -0.750  -0.737  -0.705
 -0.604  -0.581  -0.553  -0.533  -0.528  -0.477  -0.421  -0.419
 -0.408  -0.404  -0.402  -0.376  -0.374  -0.361  -0.342  -0.284
 -0.266  -0.257  -0.211
 -- Virtual --
 -0.059  -0.015  -0.004   0.000   0.006   0.014   0.019   0.026
  0.027   0.036   0.040   0.044   0.051   0.061   0.066   0.071
  0.079   0.084   0.087   0.094   0.102   0.103   0.107   0.113
  0.116   0.122   0.128   0.128   0.137   0.137   0.144   0.146
  0.149   0.157   0.157   0.160   0.167   0.178   0.184   0.189
  0.190   0.194   0.196   0.206   0.210   0.217   0.230   0.240
  0.260   0.263   0.266   0.272   0.285   0.297   0.301   0.309
  0.312   0.315   0.335   0.345   0.364   0.380   0.384   0.426
  0.446   0.467   0.490   0.537   0.551   0.564   0.566   0.577
  0.592   0.623   0.648   0.654   0.656   0.669   0.675   0.677
  0.701   0.714   0.721   0.723   0.732   0.752   0.765   0.791
  0.807   0.816   0.830   0.842   0.885   0.923   0.928   0.943
  0.956   0.957   0.971   0.979   0.985   1.003   1.008   1.010
  1.025   1.034   1.080   1.084   1.109   1.117   1.136   1.169
  1.187   1.190   1.205   1.247   1.261   1.338   1.343   1.346
  1.356   1.371   1.372   1.445   1.500   1.530   1.554   1.600
  1.640   1.693   1.710   1.781   1.854   1.872   1.893   1.917
  1.923   1.977   1.994   2.013   2.022   2.071   2.094   2.123
  2.125   2.169   2.183   2.247   2.248   2.289   2.292   2.360
  2.366   2.413   2.453   2.476   2.485   2.489   2.509   2.534
  2.548   2.566   2.574   2.595   2.686   2.690   2.723   2.757
  2.799   2.851   2.954   2.983   3.139   3.217   3.269   3.272
  3.393   3.434   3.707   3.757   3.941   4.024   4.225   4.297
  4.311   4.335   4.400   4.551   4.645   4.736
 --------------------------------------------------------------
 
          Ground-State Mulliken Net Atomic Charges

     Atom                 Charge (a.u.)
  ----------------------------------------
      1 S                    -0.169896
      2 C                     0.025643
      3 H                     0.201348
      4 C                    -0.404303
      5 H                     0.119472
      6 C                     0.370563
      7 H                     0.108647
      8 C                    -0.251953
      9 C                    -0.247429
     10 C                     0.366942
     11 H                     0.108511
     12 C                    -0.402977
     13 H                     0.119431
     14 C                     0.024782
     15 H                     0.201324
     16 S                    -0.170105
  ----------------------------------------
  Sum of atomic charges =    -0.000000

 -----------------------------------------------------------------
                    Cartesian Multipole Moments
 -----------------------------------------------------------------
    Charge (ESU x 10^10)
                -0.0000
    Dipole Moment (Debye)
         X       0.4963      Y       0.0571      Z      -0.8955
       Tot       1.0254
    Quadrupole Moments (Debye-Ang)
        XX     -63.3432     XY       0.2639     YY     -78.8217
        XZ       2.7222     YZ      -0.6781     ZZ     -62.8034
    Octopole Moments (Debye-Ang^2)
       XXX     157.7372    XXY      -3.8694    XYY      65.7756
       YYY      -5.0615    XXZ     107.6732    XYZ       0.8984
       YYZ     144.6608    XZZ      51.7844    YZZ       3.7781
       ZZZ     345.1251
    Hexadecapole Moments (Debye-Ang^3)
      XXXX   -1821.1182   XXXY       9.6987   XXYY    -406.4076
      XYYY      -1.8909   YYYY    -109.3233   XXXZ    -556.2286
      XXYZ       9.1716   XYYZ    -246.5565   YYYZ      23.0110
      XXZZ    -645.3940   XYZZ      -9.6159   YYZZ    -459.5151
      XZZZ    -586.6320   YZZZ     -10.3754   ZZZZ   -2103.7834
 -----------------------------------------------------------------
 Calculating analytic gradient of the SCF energy
 Gradient of SCF Energy
            1           2           3           4           5           6
    1  -0.0027054  -0.0002631   0.0000970   0.0005919   0.0000121  -0.0000954
    2  -0.0012974   0.0012624   0.0004890  -0.0013952   0.0000579  -0.0015154
    3  -0.0003751  -0.0005509   0.0000370   0.0004231   0.0000229   0.0011915
            7           8           9          10          11          12
    1  -0.0002562   0.0009195   0.0007468  -0.0011777   0.0004712  -0.0006405
    2   0.0012557   0.0006904  -0.0005745   0.0014524  -0.0011871   0.0013074
    3  -0.0003167  -0.0013253  -0.0014726   0.0007457  -0.0001383  -0.0001821
           13          14          15          16
    1  -0.0000133   0.0007107  -0.0000625   0.0016648
    2  -0.0000231  -0.0012101  -0.0004721   0.0011596
    3   0.0000185  -0.0001031  -0.0001415   0.0021669
 Max gradient component =       2.705E-03
 RMS gradient           =       9.611E-04
 Gradient time:  CPU 2.09 s  wall 2.10 s
 Geometry Optimization Parameters
   NAtoms,    NIC,     NZ,  NCons,   NDum,   NFix, NCnnct, MaxDiis
       16     111       0       1       0       0       0       0


** CONSTRAINED OPTIMIZATION IN DELOCALIZED INTERNAL COORDINATES **
   Searching for a Minimum

   Optimization Cycle:   1

                       Coordinates (Angstroms)
     ATOM                X               Y               Z
      1  S         0.0023888700    0.0607727500    0.0018326900
      2  C         1.7370761900    0.0331584900    0.0032322900
      3  H         2.2761273700    0.0528903200    0.9404255700
      4  C         2.2416920400   -0.0154620100   -1.2696579800
      5  H         3.3028578000   -0.0400536500   -1.4897249600
      6  C         1.2247922200   -0.0161296800   -2.2681146400
      7  H         1.4267479000   -0.0265098700   -3.3333450100
      8  C        -0.0539377100    0.0288038800   -1.7517096600
      9  C        -1.3245081500    0.0488998800   -2.4563634200
     10  C        -1.5670030400    0.2146126100   -3.8046119000
     11  H        -0.7732781000    0.3409258400   -4.5325293100
     12  C        -2.9505167700    0.1695573100   -4.1433514700
     13  H        -3.3275391200    0.2726810100   -5.1544470500
     14  C        -3.7580980300   -0.0316019800   -3.0550125300
     15  H        -4.8358376600   -0.1149868400   -3.0233026800
     16  S        -2.8374563900   -0.1522513600   -1.5896122500
   Point Group: c1    Number of degrees of freedom:    42


   Energy is  -1104.838676829

              Constraints and their Current Values
                                        Value     Constraint
   Dihedral:        6   8   9  10      -10.000      -10.000

 Attempting to Generate Delocalized Internal Coordinates

 41 Hessian modes will be used to form the next step
  Hessian Eigenvalues:
     0.045000    0.045000    0.045000    0.045000    0.045000    0.045000
     0.045002    0.045002    0.045003    0.045004    0.045011    0.045012
     0.159943    0.159949    0.159991    0.159992    0.160000    0.160000
     0.221282    0.221282    0.237835    0.237839    0.250000    0.250000
     0.294264    0.294663    0.312518    0.312618    0.354736    0.354850
     0.355125    0.355132    0.358226    0.358329    0.378510    0.404854
     0.404909    0.463547    0.463616    0.497922    0.497945

 Minimum Search - Taking Simple RFO Step
 Searching for Lamda that Minimizes Along All modes
 Value Taken    Lamda =  -0.00065098
 Step Taken.  Stepsize is  0.077407

                             Maximum     Tolerance    Cnvgd?
         Gradient           0.009115      0.000300      NO
         Displacement       0.058223      0.001200      NO
         Energy change     *********      0.000001      NO


 New Cartesian Coordinates Obtained by Inverse Iteration

 Displacement from previous Coordinates is:  0.257926
 ----------------------------------------------------------------
             Standard Nuclear Orientation (Angstroms)
    I     Atom           X                Y                Z
 ----------------------------------------------------------------
    1      S       0.0269284758     0.0752196768     0.0305692090
    2      C       1.7604503466     0.0325294405    -0.0004308654
    3      H       2.3176572764     0.0430609993     0.9260807261
    4      C       2.2379878306    -0.0066177571    -1.2838245802
    5      H       3.2942894168    -0.0353675694    -1.5256584646
    6      C       1.2018164174    -0.0101252896    -2.2616302585
    7      H       1.3858714080    -0.0330934891    -3.3295205499
    8      C      -0.0685390057     0.0311725891    -1.7226855663
    9      C      -1.3414022001     0.0440379817    -2.4288797019
   10      C      -1.5600473935     0.2071615739    -3.7821108553
   11      H      -0.7549970078     0.3449191029    -4.4946929650
   12      C      -2.9361859139     0.1619038436    -4.1484785378
   13      H      -3.2922983862     0.2701814707    -5.1666177666
   14      C      -3.7675577209    -0.0296639289    -3.0767323554
   15      H      -4.8463019477    -0.1028216981    -3.0650753871
   16      S      -2.8741641758    -0.1671902465    -1.5966043911
 ----------------------------------------------------------------
 Nuclear Repulsion Energy =   631.5772781924 hartrees
 There are       43 alpha and       43 beta electrons
 Applying Cartesian multipole field
    Component          Value
    ---------          -----
     (2,0,0)        1.00000E-11
     (0,2,0)        2.00000E-11
     (0,0,2)       -3.00000E-12
 Nucleus-field energy     =     0.0000000097 hartrees
 Requested basis set is 6-31++G(d,p)
 There are 76 shells and 234 basis functions
 A cutoff of  1.0D-12 yielded   2527 shell pairs
 There are     24869 function pairs

 Q-Chem warning in module /project/projectdirs/jcesr/qchem/qc44/cnl_qc441/compile/cori/qc_src/libqints/qchem/aobasis.C, line 68:

 Using reconstructed effective core potential

 Smallest overlap matrix eigenvalue = 7.17E-07
 Linear dependence detected in AO basis
 Number of orthogonalized atomic orbitals = 233
 Maximum deviation from orthogonality = 7.273E-11
 Guess MOs from SCF MO coefficient file
 Reading MOs from coefficient file
 Reading MOs from coefficient file
 A restricted hybrid HF-DFT SCF calculation will be
 performed using Pulay DIIS extrapolation
 Exchange:     0.2000 Hartree-Fock + 0.0800 Slater + 0.7200 B88
 Correlation:  0.1900 VWN1RPA + 0.8100 LYP
 Using SG-1 standard quadrature grid
 SCF converges when DIIS error is below 1.0E-08
 Geometry optimization detected.  Setting ReadMinima to 0
 Setting SaveMinima to 0
 ---------------------------------------
  Cycle       Energy         DIIS Error
 ---------------------------------------
    1   -1104.8106682266      1.12E-03
    2   -1104.8383392816      2.93E-04
    3   -1104.8359690179      6.29E-04
    4   -1104.8390342722      3.46E-05
    5   -1104.8390409466      1.60E-05
    6   -1104.8390425435      5.39E-06
    7   -1104.8390427613      1.76E-06
    8   -1104.8390427850      3.86E-07
    9   -1104.8390427851      6.58E-08
   10   -1104.8390427874      1.47E-08
   11   -1104.8390427875      5.33E-09 Convergence criterion met
 ---------------------------------------
 SCF time:  CPU 6.26 s  wall 5.81 s
 SCF   energy in the final basis set = -1104.8390427875
 Total energy in the final basis set = -1104.8390427875
 
 --------------------------------------------------------------
 
                    Orbital Energies (a.u.)
 --------------------------------------------------------------
 
 Alpha MOs
 -- Occupied --
-88.920 -88.920 -10.240 -10.240 -10.225 -10.225 -10.205 -10.205
-10.204 -10.204  -7.979  -7.979  -5.944  -5.944  -5.940  -5.940
 -5.937  -5.937  -0.900  -0.878  -0.772  -0.750  -0.737  -0.706
 -0.604  -0.580  -0.554  -0.533  -0.528  -0.478  -0.422  -0.419
 -0.407  -0.403  -0.402  -0.377  -0.374  -0.360  -0.343  -0.284
 -0.266  -0.258  -0.211
 -- Virtual --
 -0.059  -0.014  -0.003  -0.000   0.005   0.014   0.019   0.026
  0.027   0.036   0.040   0.045   0.051   0.061   0.066   0.070
  0.079   0.084   0.086   0.093   0.101   0.102   0.107   0.113
  0.115   0.123   0.127   0.128   0.137   0.137   0.144   0.145
  0.148   0.156   0.157   0.159   0.166   0.178   0.184   0.190
  0.190   0.193   0.197   0.206   0.209   0.216   0.229   0.239
  0.260   0.261   0.266   0.273   0.284   0.296   0.301   0.310
  0.312   0.314   0.336   0.345   0.364   0.380   0.384   0.426
  0.443   0.465   0.492   0.535   0.547   0.562   0.566   0.575
  0.594   0.624   0.647   0.653   0.656   0.667   0.672   0.675
  0.702   0.715   0.722   0.722   0.732   0.754   0.764   0.792
  0.806   0.814   0.831   0.841   0.884   0.923   0.928   0.944
  0.956   0.957   0.971   0.981   0.985   1.008   1.011   1.012
  1.024   1.031   1.079   1.084   1.107   1.115   1.136   1.169
  1.187   1.187   1.205   1.246   1.261   1.339   1.341   1.349
  1.355   1.369   1.371   1.442   1.497   1.529   1.550   1.598
  1.639   1.693   1.710   1.781   1.856   1.873   1.893   1.916
  1.923   1.978   1.993   2.009   2.019   2.071   2.091   2.126
  2.126   2.168   2.181   2.245   2.246   2.292   2.293   2.360
  2.366   2.415   2.454   2.475   2.481   2.495   2.509   2.532
  2.545   2.565   2.575   2.597   2.686   2.688   2.722   2.756
  2.802   2.854   2.951   2.978   3.140   3.216   3.270   3.272
  3.394   3.434   3.707   3.757   3.941   4.021   4.227   4.297
  4.308   4.334   4.399   4.547   4.644   4.733
 --------------------------------------------------------------
 
          Ground-State Mulliken Net Atomic Charges

     Atom                 Charge (a.u.)
  ----------------------------------------
      1 S                    -0.144950
      2 C                     0.014609
      3 H                     0.200285
      4 C                    -0.396656
      5 H                     0.120142
      6 C                     0.346172
      7 H                     0.106223
      8 C                    -0.246052
      9 C                    -0.242480
     10 C                     0.342510
     11 H                     0.105982
     12 C                    -0.395394
     13 H                     0.120136
     14 C                     0.014115
     15 H                     0.200295
     16 S                    -0.144936
  ----------------------------------------
  Sum of atomic charges =    -0.000000

 -----------------------------------------------------------------
                    Cartesian Multipole Moments
 -----------------------------------------------------------------
    Charge (ESU x 10^10)
                -0.0000
    Dipole Moment (Debye)
         X       0.5085      Y       0.0568      Z      -0.9165
       Tot       1.0496
    Quadrupole Moments (Debye-Ang)
        XX     -63.3257     XY       0.1834     YY     -78.8270
        XZ       2.8130     YZ      -0.7130     ZZ     -62.8199
    Octopole Moments (Debye-Ang^2)
       XXX     158.4245    XXY      -3.7154    XYY      66.0513
       YYY      -5.0217    XXZ     106.9776    XYZ       1.0441
       YYZ     144.1897    XZZ      51.8363    YZZ       3.8823
       ZZZ     343.9461
    Hexadecapole Moments (Debye-Ang^3)
      XXXX   -1834.6289   XXXY       5.5573   XXYY    -409.3304
      XYYY      -5.0081   YYYY    -109.6515   XXXZ    -557.0867
      XXYZ       7.9498   XYYZ    -248.0257   YYYZ      21.1489
      XXZZ    -645.8301   XYZZ     -11.1447   YYZZ    -458.6675
      XZZZ    -589.9395   YZZZ     -12.4308   ZZZZ   -2100.9986
 -----------------------------------------------------------------
 Calculating analytic gradient of the SCF energy
 Gradient of SCF Energy
            1           2           3           4           5           6
    1   0.0001607   0.0002963   0.0001411   0.0001565  -0.0000302  -0.0004231
    2  -0.0000770  -0.0000261   0.0001396  -0.0001411   0.0000309  -0.0009346
    3   0.0004259   0.0000855  -0.0000301   0.0006251   0.0000767   0.0005963
            7           8           9          10          11          12
    1  -0.0001501   0.0006497   0.0005883  -0.0002624   0.0002427  -0.0006183
    2   0.0009145   0.0003081  -0.0001902   0.0008794  -0.0008791   0.0000808
    3  -0.0001151  -0.0011518  -0.0012964   0.0008239  -0.0000500   0.0001637
           13          14          15          16
    1  -0.0000258  -0.0003468  -0.0000361  -0.0003426
    2  -0.0000162   0.0000077  -0.0001367   0.0000400
    3   0.0000458  -0.0001506  -0.0001632   0.0001143
 Max gradient component =       1.296E-03
 RMS gradient           =       4.581E-04
 Gradient time:  CPU 2.08 s  wall 2.09 s
 Geometry Optimization Parameters
   NAtoms,    NIC,     NZ,  NCons,   NDum,   NFix, NCnnct, MaxDiis
       16     111       0       1       0       0       0       0

 Cartesian Hessian Update
 Hessian Updated using BFGS Update


** CONSTRAINED OPTIMIZATION IN DELOCALIZED INTERNAL COORDINATES **
   Searching for a Minimum

   Optimization Cycle:   2

                       Coordinates (Angstroms)
     ATOM                X               Y               Z
      1  S         0.0269284758    0.0752196768    0.0305692090
      2  C         1.7604503466    0.0325294405   -0.0004308654
      3  H         2.3176572764    0.0430609993    0.9260807261
      4  C         2.2379878306   -0.0066177571   -1.2838245802
      5  H         3.2942894168   -0.0353675694   -1.5256584646
      6  C         1.2018164174   -0.0101252896   -2.2616302585
      7  H         1.3858714080   -0.0330934891   -3.3295205499
      8  C        -0.0685390057    0.0311725891   -1.7226855663
      9  C        -1.3414022001    0.0440379817   -2.4288797019
     10  C        -1.5600473935    0.2071615739   -3.7821108553
     11  H        -0.7549970078    0.3449191029   -4.4946929650
     12  C        -2.9361859139    0.1619038436   -4.1484785378
     13  H        -3.2922983862    0.2701814707   -5.1666177666
     14  C        -3.7675577209   -0.0296639289   -3.0767323554
     15  H        -4.8463019477   -0.1028216981   -3.0650753871
     16  S        -2.8741641758   -0.1671902465   -1.5966043911
   Point Group: c1    Number of degrees of freedom:    42


   Energy is  -1104.839042787

              Constraints and their Current Values
                                        Value     Constraint
   Dihedral:        6   8   9  10      -10.000      -10.000
 Hessian Updated using BFGS Update

 39 Hessian modes will be used to form the next step
  Hessian Eigenvalues:
     0.036535    0.045000    0.045000    0.045000    0.045001    0.045002
     0.045004    0.045006    0.045012    0.047484    0.158758    0.159946
     0.159991    0.159992    0.160000    0.160029    0.216493    0.221284
     0.222391    0.237837    0.249984    0.257902    0.294445    0.306806
     0.312585    0.312971    0.354677    0.354831    0.355129    0.355139
     0.358220    0.358324    0.388850    0.404872    0.410151    0.463000
     0.463633    0.497927    0.499277

 Minimum Search - Taking Simple RFO Step
 Searching for Lamda that Minimizes Along All modes
 Value Taken    Lamda =  -0.00008020
 Step Taken.  Stepsize is  0.039368

                             Maximum     Tolerance    Cnvgd?
         Gradient           0.001502      0.000300      NO
         Displacement       0.027262      0.001200      NO
         Energy change     -0.000366      0.000001      NO


 New Cartesian Coordinates Obtained by Inverse Iteration

 Displacement from previous Coordinates is:  0.079622
 ----------------------------------------------------------------
             Standard Nuclear Orientation (Angstroms)
    I     Atom           X                Y                Z
 ----------------------------------------------------------------
    1      S       0.0290299523     0.0813214506     0.0365190408
    2      C       1.7620967211     0.0360977462    -0.0042421801
    3      H       2.3228621439     0.0448176112     0.9200276390
    4      C       2.2342787392    -0.0047510746    -1.2900114661
    5      H       3.2893054572    -0.0377940956    -1.5371592328
    6      C       1.1939387742    -0.0107192769    -2.2618948347
    7      H       1.3733914215    -0.0466379046    -3.3300519286
    8      C      -0.0735906575     0.0309174963    -1.7148030309
    9      C      -1.3454404414     0.0438047651    -2.4202367033
   10      C      -1.5557803916     0.2075266378    -3.7753798865
   11      H      -0.7487182060     0.3577997638    -4.4828063075
   12      C      -2.9288690237     0.1603969369    -4.1487454096
   13      H      -3.2801620484     0.2729853404    -5.1681606554
   14      C      -3.7649120517    -0.0328481563    -3.0805627626
   15      H      -4.8437252677    -0.1041860676    -3.0729687572
   16      S      -2.8801977013    -0.1734244727    -1.5958158345
 ----------------------------------------------------------------
 Nuclear Repulsion Energy =   631.6419985223 hartrees
 There are       43 alpha and       43 beta electrons
 Applying Cartesian multipole field
    Component          Value
    ---------          -----
     (2,0,0)        1.00000E-11
     (0,2,0)        2.00000E-11
     (0,0,2)       -3.00000E-12
 Nucleus-field energy     =     0.0000000097 hartrees
 Requested basis set is 6-31++G(d,p)
 There are 76 shells and 234 basis functions
 A cutoff of  1.0D-12 yielded   2529 shell pairs
 There are     24877 function pairs

 Q-Chem warning in module /project/projectdirs/jcesr/qchem/qc44/cnl_qc441/compile/cori/qc_src/libqints/qchem/aobasis.C, line 68:

 Using reconstructed effective core potential

 Smallest overlap matrix eigenvalue = 7.06E-07
 Linear dependence detected in AO basis
 Number of orthogonalized atomic orbitals = 233
 Maximum deviation from orthogonality = 1.077E-10
 Guess MOs from SCF MO coefficient file
 Reading MOs from coefficient file
 Reading MOs from coefficient file
 A restricted hybrid HF-DFT SCF calculation will be
 performed using Pulay DIIS extrapolation
 Exchange:     0.2000 Hartree-Fock + 0.0800 Slater + 0.7200 B88
 Correlation:  0.1900 VWN1RPA + 0.8100 LYP
 Using SG-1 standard quadrature grid
 SCF converges when DIIS error is below 1.0E-08
 Geometry optimization detected.  Setting ReadMinima to 0
 Setting SaveMinima to 0
 ---------------------------------------
  Cycle       Energy         DIIS Error
 ---------------------------------------
    1   -1104.8350230583      3.49E-04
    2   -1104.8390374035      8.26E-05
    3   -1104.8388627426      1.72E-04
    4   -1104.8390913763      1.33E-05
    5   -1104.8390924873      5.63E-06
    6   -1104.8390926964      1.92E-06
    7   -1104.8390927234      5.88E-07
    8   -1104.8390927266      1.68E-07
    9   -1104.8390927276      3.06E-08
   10   -1104.8390927267      1.00E-08
   11   -1104.8390927261      4.23E-09 Convergence criterion met
 ---------------------------------------
 SCF time:  CPU 6.36 s  wall 5.70 s
 SCF   energy in the final basis set = -1104.8390927261
 Total energy in the final basis set = -1104.8390927261
 
 --------------------------------------------------------------
 
                    Orbital Energies (a.u.)
 --------------------------------------------------------------
 
 Alpha MOs
 -- Occupied --
-88.920 -88.920 -10.240 -10.239 -10.225 -10.225 -10.205 -10.205
-10.203 -10.203  -7.980  -7.980  -5.944  -5.944  -5.940  -5.940
 -5.937  -5.937  -0.901  -0.878  -0.772  -0.750  -0.737  -0.705
 -0.604  -0.580  -0.553  -0.533  -0.528  -0.477  -0.422  -0.419
 -0.408  -0.403  -0.402  -0.377  -0.374  -0.360  -0.343  -0.284
 -0.266  -0.258  -0.211
 -- Virtual --
 -0.059  -0.014  -0.003  -0.000   0.005   0.014   0.019   0.026
  0.026   0.036   0.040   0.045   0.051   0.061   0.066   0.070
  0.078   0.084   0.086   0.094   0.101   0.102   0.107   0.113
  0.115   0.123   0.127   0.128   0.137   0.138   0.144   0.145
  0.148   0.156   0.157   0.160   0.166   0.178   0.184   0.190
  0.190   0.193   0.197   0.206   0.210   0.216   0.229   0.239
  0.259   0.260   0.266   0.273   0.284   0.295   0.301   0.310
  0.312   0.314   0.336   0.345   0.363   0.380   0.384   0.426
  0.443   0.465   0.492   0.534   0.547   0.562   0.566   0.575
  0.595   0.625   0.647   0.653   0.656   0.667   0.672   0.673
  0.703   0.716   0.721   0.722   0.733   0.754   0.764   0.792
  0.805   0.815   0.831   0.841   0.884   0.923   0.929   0.945
  0.955   0.956   0.970   0.981   0.986   1.008   1.012   1.013
  1.024   1.031   1.078   1.084   1.106   1.115   1.137   1.169
  1.188   1.188   1.206   1.246   1.260   1.336   1.341   1.351
  1.355   1.369   1.370   1.442   1.497   1.529   1.550   1.596
  1.641   1.693   1.711   1.782   1.856   1.874   1.894   1.916
  1.923   1.979   1.994   2.011   2.019   2.073   2.090   2.126
  2.128   2.169   2.182   2.245   2.246   2.294   2.294   2.360
  2.366   2.416   2.455   2.476   2.479   2.498   2.509   2.533
  2.545   2.565   2.575   2.597   2.685   2.689   2.722   2.756
  2.804   2.856   2.950   2.977   3.140   3.216   3.270   3.273
  3.395   3.434   3.708   3.758   3.941   4.021   4.228   4.298
  4.307   4.334   4.399   4.547   4.645   4.733
 --------------------------------------------------------------
 
          Ground-State Mulliken Net Atomic Charges

     Atom                 Charge (a.u.)
  ----------------------------------------
      1 S                    -0.139642
      2 C                     0.013331
      3 H                     0.199857
      4 C                    -0.397041
      5 H                     0.119997
      6 C                     0.347847
      7 H                     0.106218
      8 C                    -0.250268
      9 C                    -0.247681
     10 C                     0.343426
     11 H                     0.105890
     12 C                    -0.395579
     13 H                     0.120011
     14 C                     0.012942
     15 H                     0.199885
     16 S                    -0.139194
  ----------------------------------------
  Sum of atomic charges =     0.000000

 -----------------------------------------------------------------
                    Cartesian Multipole Moments
 -----------------------------------------------------------------
    Charge (ESU x 10^10)
                -0.0000
    Dipole Moment (Debye)
         X       0.5064      Y       0.0558      Z      -0.9133
       Tot       1.0458
    Quadrupole Moments (Debye-Ang)
        XX     -63.3874     XY       0.1403     YY     -78.8063
        XZ       2.7698     YZ      -0.7344     ZZ     -62.8464
    Octopole Moments (Debye-Ang^2)
       XXX     158.8821    XXY      -3.7469    XYY      66.0989
       YYY      -5.0137    XXZ     107.0142    XYZ       1.2008
       YYZ     144.0030    XZZ      52.0315    YZZ       4.0553
       ZZZ     343.6686
    Hexadecapole Moments (Debye-Ang^3)
      XXXX   -1835.5932   XXXY       4.1098   XXYY    -409.1321
      XYYY      -6.2874   YYYY    -109.9225   XXXZ    -557.5608
      XXYZ       7.6563   XYYZ    -247.8037   YYYZ      20.3937
      XXZZ    -645.8645   XYZZ     -12.1873   YYZZ    -457.9833
      XZZZ    -589.9713   YZZZ     -14.0819   ZZZZ   -2098.9935
 -----------------------------------------------------------------
 Calculating analytic gradient of the SCF energy
 Gradient of SCF Energy
            1           2           3           4           5           6
    1  -0.0000231  -0.0001998  -0.0000061   0.0000000   0.0000004  -0.0000712
    2   0.0000167  -0.0001739   0.0000356   0.0001463  -0.0000541  -0.0003356
    3   0.0006096  -0.0001954  -0.0000430  -0.0000749  -0.0000567   0.0001070
            7           8           9          10          11          12
    1   0.0000549   0.0001624   0.0001477  -0.0000227   0.0000358   0.0000352
    2   0.0005491  -0.0000132   0.0000383   0.0003355  -0.0005215  -0.0001322
    3  -0.0000484  -0.0003128  -0.0003487   0.0001793  -0.0001223  -0.0000412
           13          14          15          16
    1   0.0000522   0.0002433   0.0000478  -0.0004568
    2   0.0000733   0.0001700  -0.0000468  -0.0000875
    3  -0.0000322   0.0000547  -0.0000284   0.0003534
 Max gradient component =       6.096E-04
 RMS gradient           =       2.103E-04
 Gradient time:  CPU 2.10 s  wall 2.08 s
 Geometry Optimization Parameters
   NAtoms,    NIC,     NZ,  NCons,   NDum,   NFix, NCnnct, MaxDiis
       16     111       0       1       0       0       0       0

 Cartesian Hessian Update
 Hessian Updated using BFGS Update


** CONSTRAINED OPTIMIZATION IN DELOCALIZED INTERNAL COORDINATES **
   Searching for a Minimum

   Optimization Cycle:   3

                       Coordinates (Angstroms)
     ATOM                X               Y               Z
      1  S         0.0290299523    0.0813214506    0.0365190408
      2  C         1.7620967211    0.0360977462   -0.0042421801
      3  H         2.3228621439    0.0448176112    0.9200276390
      4  C         2.2342787392   -0.0047510746   -1.2900114661
      5  H         3.2893054572   -0.0377940956   -1.5371592328
      6  C         1.1939387742   -0.0107192769   -2.2618948347
      7  H         1.3733914215   -0.0466379046   -3.3300519286
      8  C        -0.0735906575    0.0309174963   -1.7148030309
      9  C        -1.3454404414    0.0438047651   -2.4202367033
     10  C        -1.5557803916    0.2075266378   -3.7753798865
     11  H        -0.7487182060    0.3577997638   -4.4828063075
     12  C        -2.9288690237    0.1603969369   -4.1487454096
     13  H        -3.2801620484    0.2729853404   -5.1681606554
     14  C        -3.7649120517   -0.0328481563   -3.0805627626
     15  H        -4.8437252677   -0.1041860676   -3.0729687572
     16  S        -2.8801977013   -0.1734244727   -1.5958158345
   Point Group: c1    Number of degrees of freedom:    42


   Energy is  -1104.839092726

              Constraints and their Current Values
                                        Value     Constraint
   Dihedral:        6   8   9  10      -10.000      -10.000
 Hessian Updated using BFGS Update

 36 Hessian modes will be used to form the next step
  Hessian Eigenvalues:
     0.019940    0.045000    0.045001    0.045005    0.045012    0.045371
     0.047487    0.159527    0.159946    0.159992    0.159998    0.160001
     0.161205    0.221244    0.221807    0.237830    0.249249    0.250538
     0.284917    0.294451    0.302660    0.312576    0.313265    0.354608
     0.354821    0.355129    0.355186    0.358265    0.358451    0.388589
     0.404885    0.440344    0.462297    0.463724    0.497935    0.502802

 Minimum Search - Taking Simple RFO Step
 Searching for Lamda that Minimizes Along All modes
 Value Taken    Lamda =  -0.00003426
 Step Taken.  Stepsize is  0.038478

                             Maximum     Tolerance    Cnvgd?
         Gradient           0.000670      0.000300      NO
         Displacement       0.025055      0.001200      NO
         Energy change     -0.000050      0.000001      NO


 New Cartesian Coordinates Obtained by Inverse Iteration

 Displacement from previous Coordinates is:  0.056205
 ----------------------------------------------------------------
             Standard Nuclear Orientation (Angstroms)
    I     Atom           X                Y                Z
 ----------------------------------------------------------------
    1      S       0.0305577609     0.0868321072     0.0366208886
    2      C       1.7635286499     0.0408619962    -0.0047903857
    3      H       2.3246352891     0.0504114976     0.9193107761
    4      C       2.2339637050    -0.0053653312    -1.2911586461
    5      H       3.2886653188    -0.0423660994    -1.5391177540
    6      C       1.1924278977    -0.0141246299    -2.2618627501
    7      H       1.3705766727    -0.0636963744    -3.3295428090
    8      C      -0.0747217095     0.0294262607    -1.7129221185
    9      C      -1.3465226817     0.0453576805    -2.4180035494
   10      C      -1.5552574575     0.2109127703    -3.7736763507
   11      H      -0.7486019613     0.3745994394    -4.4783402389
   12      C      -2.9277322589     0.1610489902    -4.1490220025
   13      H      -3.2784729916     0.2774283679    -5.1681844818
   14      C      -3.7648914483    -0.0374917108    -3.0825631495
   15      H      -4.8436948448    -0.1097904698    -3.0754569401
   16      S      -2.8809525205    -0.1787377943    -1.5975827983
 ----------------------------------------------------------------
 Nuclear Repulsion Energy =   631.6707373176 hartrees
 There are       43 alpha and       43 beta electrons
 Applying Cartesian multipole field
    Component          Value
    ---------          -----
     (2,0,0)        1.00000E-11
     (0,2,0)        2.00000E-11
     (0,0,2)       -3.00000E-12
 Nucleus-field energy     =     0.0000000097 hartrees
 Requested basis set is 6-31++G(d,p)
 There are 76 shells and 234 basis functions
 A cutoff of  1.0D-12 yielded   2529 shell pairs
 There are     24877 function pairs

 Q-Chem warning in module /project/projectdirs/jcesr/qchem/qc44/cnl_qc441/compile/cori/qc_src/libqints/qchem/aobasis.C, line 68:

 Using reconstructed effective core potential

 Smallest overlap matrix eigenvalue = 6.96E-07
 Linear dependence detected in AO basis
 Number of orthogonalized atomic orbitals = 233
 Maximum deviation from orthogonality = 8.377E-11
 Guess MOs from SCF MO coefficient file
 Reading MOs from coefficient file
 Reading MOs from coefficient file
 A restricted hybrid HF-DFT SCF calculation will be
 performed using Pulay DIIS extrapolation
 Exchange:     0.2000 Hartree-Fock + 0.0800 Slater + 0.7200 B88
 Correlation:  0.1900 VWN1RPA + 0.8100 LYP
 Using SG-1 standard quadrature grid
 SCF converges when DIIS error is below 1.0E-08
 Geometry optimization detected.  Setting ReadMinima to 0
 Setting SaveMinima to 0
 ---------------------------------------
  Cycle       Energy         DIIS Error
 ---------------------------------------
    1   -1104.8390554869      2.07E-04
    2   -1104.8391072992      3.10E-05
    3   -1104.8390835400      6.37E-05
    4   -1104.8391156579      6.45E-06
    5   -1104.8391159033      3.24E-06
    6   -1104.8391159683      1.36E-06
    7   -1104.8391159815      3.22E-07
    8   -1104.8391159835      1.02E-07
    9   -1104.8391159839      1.52E-08
   10   -1104.8391159847      4.76E-09 Convergence criterion met
 ---------------------------------------
 SCF time:  CPU 5.70 s  wall 6.34 s
 SCF   energy in the final basis set = -1104.8391159847
 Total energy in the final basis set = -1104.8391159847
 
 --------------------------------------------------------------
 
                    Orbital Energies (a.u.)
 --------------------------------------------------------------
 
 Alpha MOs
 -- Occupied --
-88.920 -88.920 -10.240 -10.239 -10.225 -10.225 -10.205 -10.205
-10.203 -10.203  -7.980  -7.980  -5.944  -5.944  -5.940  -5.940
 -5.937  -5.937  -0.901  -0.878  -0.772  -0.750  -0.737  -0.705
 -0.604  -0.580  -0.553  -0.533  -0.528  -0.477  -0.422  -0.419
 -0.408  -0.403  -0.402  -0.377  -0.374  -0.360  -0.343  -0.283
 -0.266  -0.258  -0.211
 -- Virtual --
 -0.059  -0.014  -0.003  -0.000   0.005   0.014   0.019   0.026
  0.026   0.036   0.040   0.045   0.050   0.061   0.066   0.070
  0.078   0.084   0.086   0.094   0.101   0.102   0.107   0.113
  0.115   0.123   0.127   0.128   0.138   0.138   0.144   0.145
  0.148   0.155   0.157   0.160   0.166   0.178   0.184   0.190
  0.190   0.193   0.197   0.206   0.210   0.216   0.229   0.240
  0.259   0.260   0.266   0.272   0.283   0.294   0.301   0.310
  0.312   0.314   0.336   0.345   0.363   0.380   0.384   0.426
  0.443   0.465   0.492   0.534   0.547   0.562   0.566   0.574
  0.595   0.626   0.647   0.653   0.657   0.668   0.671   0.672
  0.703   0.717   0.721   0.722   0.733   0.754   0.764   0.792
  0.804   0.815   0.831   0.841   0.884   0.923   0.929   0.947
  0.954   0.956   0.970   0.981   0.986   1.008   1.011   1.013
  1.025   1.031   1.078   1.085   1.106   1.114   1.136   1.169
  1.188   1.188   1.206   1.246   1.258   1.335   1.340   1.353
  1.355   1.369   1.370   1.443   1.496   1.529   1.550   1.594
  1.644   1.694   1.711   1.783   1.856   1.874   1.894   1.915
  1.923   1.979   1.993   2.011   2.019   2.073   2.089   2.126
  2.128   2.170   2.182   2.245   2.245   2.294   2.294   2.360
  2.366   2.416   2.455   2.476   2.476   2.500   2.509   2.533
  2.544   2.565   2.575   2.597   2.685   2.689   2.722   2.755
  2.804   2.855   2.950   2.976   3.140   3.216   3.270   3.273
  3.395   3.434   3.708   3.757   3.942   4.020   4.229   4.298
  4.307   4.334   4.399   4.547   4.645   4.733
 --------------------------------------------------------------
 
          Ground-State Mulliken Net Atomic Charges

     Atom                 Charge (a.u.)
  ----------------------------------------
      1 S                    -0.139376
      2 C                     0.018080
      3 H                     0.199920
      4 C                    -0.401984
      5 H                     0.119693
      6 C                     0.356791
      7 H                     0.107227
      8 C                    -0.259693
      9 C                    -0.257789
     10 C                     0.351827
     11 H                     0.106857
     12 C                    -0.400421
     13 H                     0.119716
     14 C                     0.017772
     15 H                     0.199967
     16 S                    -0.138588
  ----------------------------------------
  Sum of atomic charges =     0.000000

 -----------------------------------------------------------------
                    Cartesian Multipole Moments
 -----------------------------------------------------------------
    Charge (ESU x 10^10)
                -0.0000
    Dipole Moment (Debye)
         X       0.5044      Y       0.0552      Z      -0.9100
       Tot       1.0419
    Quadrupole Moments (Debye-Ang)
        XX     -63.3864     XY       0.1142     YY     -78.7882
        XZ       2.7829     YZ      -0.7450     ZZ     -62.8794
    Octopole Moments (Debye-Ang^2)
       XXX     158.8397    XXY      -3.8467    XYY      66.0711
       YYY      -5.0194    XXZ     107.0079    XYZ       1.3412
       YYZ     143.9536    XZZ      52.0086    YZZ       4.2189
       ZZZ     343.9183
    Hexadecapole Moments (Debye-Ang^3)
      XXXX   -1835.6400   XXXY       3.4916   XXYY    -409.1291
      XYYY      -7.1329   YYYY    -110.2958   XXXZ    -557.5538
      XXYZ       7.7063   XYYZ    -247.8248   YYYZ      19.8759
      XXZZ    -645.8079   XYZZ     -13.0349   YYZZ    -457.7535
      XZZZ    -590.2867   YZZZ     -15.5610   ZZZZ   -2100.3107
 -----------------------------------------------------------------
 Calculating analytic gradient of the SCF energy
 Gradient of SCF Energy
            1           2           3           4           5           6
    1   0.0001625  -0.0000633  -0.0000185   0.0000018  -0.0000008   0.0000118
    2  -0.0001349  -0.0001043  -0.0000018   0.0001943  -0.0001033   0.0002964
    3  -0.0000547  -0.0000100   0.0000178  -0.0000984  -0.0000121  -0.0001987
            7           8           9          10          11          12
    1   0.0000756  -0.0003129  -0.0000240   0.0001758  -0.0000826   0.0000745
    2   0.0001894  -0.0004638   0.0004243  -0.0002685  -0.0001766  -0.0001745
    3   0.0000561   0.0002076   0.0004257  -0.0001493  -0.0000370  -0.0000466
           13          14          15          16
    1   0.0000013   0.0000756  -0.0000047  -0.0000721
    2   0.0001121   0.0001034  -0.0000184   0.0001262
    3   0.0000077   0.0000144   0.0000231  -0.0001457
 Max gradient component =       4.638E-04
 RMS gradient           =       1.638E-04
 Gradient time:  CPU 2.16 s  wall 2.11 s
 Geometry Optimization Parameters
   NAtoms,    NIC,     NZ,  NCons,   NDum,   NFix, NCnnct, MaxDiis
       16     111       0       1       0       0       0       0

 Cartesian Hessian Update
 Hessian Updated using BFGS Update


** CONSTRAINED OPTIMIZATION IN DELOCALIZED INTERNAL COORDINATES **
   Searching for a Minimum

   Optimization Cycle:   4

                       Coordinates (Angstroms)
     ATOM                X               Y               Z
      1  S         0.0305577609    0.0868321072    0.0366208886
      2  C         1.7635286499    0.0408619962   -0.0047903857
      3  H         2.3246352891    0.0504114976    0.9193107761
      4  C         2.2339637050   -0.0053653312   -1.2911586461
      5  H         3.2886653188   -0.0423660994   -1.5391177540
      6  C         1.1924278977   -0.0141246299   -2.2618627501
      7  H         1.3705766727   -0.0636963744   -3.3295428090
      8  C        -0.0747217095    0.0294262607   -1.7129221185
      9  C        -1.3465226817    0.0453576805   -2.4180035494
     10  C        -1.5552574575    0.2109127703   -3.7736763507
     11  H        -0.7486019613    0.3745994394   -4.4783402389
     12  C        -2.9277322589    0.1610489902   -4.1490220025
     13  H        -3.2784729916    0.2774283679   -5.1681844818
     14  C        -3.7648914483   -0.0374917108   -3.0825631495
     15  H        -4.8436948448   -0.1097904698   -3.0754569401
     16  S        -2.8809525205   -0.1787377943   -1.5975827983
   Point Group: c1    Number of degrees of freedom:    42


   Energy is  -1104.839115985

              Constraints and their Current Values
                                        Value     Constraint
   Dihedral:        6   8   9  10      -10.000      -10.000
 Hessian Updated using BFGS Update

 39 Hessian modes will be used to form the next step
  Hessian Eigenvalues:
     0.011686    0.045000    0.045000    0.045002    0.045003    0.045004
     0.045006    0.045012    0.045888    0.048477    0.159926    0.159948
     0.159992    0.160000    0.160355    0.161261    0.221293    0.222181
     0.237835    0.250012    0.261603    0.282177    0.294431    0.302286
     0.312568    0.314688    0.354796    0.355127    0.355142    0.355428
     0.358274    0.358645    0.389699    0.404904    0.436528    0.463659
     0.467633    0.497924    0.502872

 Minimum Search - Taking Simple RFO Step
 Searching for Lamda that Minimizes Along All modes
 Value Taken    Lamda =  -0.00001808
 Step Taken.  Stepsize is  0.034280

                             Maximum     Tolerance    Cnvgd?
         Gradient           0.000764      0.000300      NO
         Displacement       0.026822      0.001200      NO
         Energy change     -0.000023      0.000001      NO


 New Cartesian Coordinates Obtained by Inverse Iteration

 Displacement from previous Coordinates is:  0.056493
 ----------------------------------------------------------------
             Standard Nuclear Orientation (Angstroms)
    I     Atom           X                Y                Z
 ----------------------------------------------------------------
    1      S       0.0299420845     0.0931139065     0.0348304421
    2      C       1.7629482693     0.0452725643    -0.0047947137
    3      H       2.3232038563     0.0572857627     0.9197726007
    4      C       2.2341728964    -0.0076696434    -1.2906752588
    5      H       3.2890423353    -0.0472609365    -1.5375106883
    6      C       1.1933990324    -0.0192260562    -2.2621959970
    7      H       1.3716127269    -0.0799734291    -3.3293265535
    8      C      -0.0740458731     0.0271777933    -1.7140261761
    9      C      -1.3460568126     0.0479428450    -2.4188965163
   10      C      -1.5557845057     0.2161434986    -3.7741763811
   11      H      -0.7502497209     0.3909142169    -4.4775431150
   12      C      -2.9283598811     0.1632223299    -4.1487453558
   13      H      -3.2802880343     0.2819752556    -5.1672223019
   14      C      -3.7643316178    -0.0419800475    -3.0824935757
   15      H      -4.8429354395    -0.1168916712    -3.0746638735
   16      S      -2.8787618962    -0.1847396890    -1.5986248461
 ----------------------------------------------------------------
 Nuclear Repulsion Energy =   631.7301683374 hartrees
 There are       43 alpha and       43 beta electrons
 Applying Cartesian multipole field
    Component          Value
    ---------          -----
     (2,0,0)        1.00000E-11
     (0,2,0)        2.00000E-11
     (0,0,2)       -3.00000E-12
 Nucleus-field energy     =     0.0000000097 hartrees
 Requested basis set is 6-31++G(d,p)
 There are 76 shells and 234 basis functions
 A cutoff of  1.0D-12 yielded   2529 shell pairs
 There are     24877 function pairs

 Q-Chem warning in module /project/projectdirs/jcesr/qchem/qc44/cnl_qc441/compile/cori/qc_src/libqints/qchem/aobasis.C, line 68:

 Using reconstructed effective core potential

 Smallest overlap matrix eigenvalue = 6.89E-07
 Linear dependence detected in AO basis
 Number of orthogonalized atomic orbitals = 233
 Maximum deviation from orthogonality = 1.798E-10
 Guess MOs from SCF MO coefficient file
 Reading MOs from coefficient file
 Reading MOs from coefficient file
 A restricted hybrid HF-DFT SCF calculation will be
 performed using Pulay DIIS extrapolation
 Exchange:     0.2000 Hartree-Fock + 0.0800 Slater + 0.7200 B88
 Correlation:  0.1900 VWN1RPA + 0.8100 LYP
 Using SG-1 standard quadrature grid
 SCF converges when DIIS error is below 1.0E-08
 Geometry optimization detected.  Setting ReadMinima to 0
 Setting SaveMinima to 0
 ---------------------------------------
  Cycle       Energy         DIIS Error
 ---------------------------------------
    1   -1104.8411655173      2.53E-04
    2   -1104.8391253295      1.54E-05
    3   -1104.8391236030      2.30E-05
    4   -1104.8391279676      5.46E-06
    5   -1104.8391281634      1.73E-06
    6   -1104.8391281773      1.05E-06
    7   -1104.8391281840      2.86E-07
    8   -1104.8391281871      9.61E-08
    9   -1104.8391281873      1.55E-08
   10   -1104.8391281866      5.37E-09 Convergence criterion met
 ---------------------------------------
 SCF time:  CPU 5.67 s  wall 5.19 s
 SCF   energy in the final basis set = -1104.8391281866
 Total energy in the final basis set = -1104.8391281866
 
 --------------------------------------------------------------
 
                    Orbital Energies (a.u.)
 --------------------------------------------------------------
 
 Alpha MOs
 -- Occupied --
-88.920 -88.920 -10.240 -10.239 -10.225 -10.225 -10.205 -10.205
-10.203 -10.203  -7.980  -7.980  -5.944  -5.944  -5.940  -5.940
 -5.937  -5.937  -0.901  -0.878  -0.772  -0.750  -0.737  -0.705
 -0.604  -0.580  -0.553  -0.533  -0.528  -0.477  -0.422  -0.419
 -0.408  -0.403  -0.402  -0.377  -0.374  -0.360  -0.343  -0.283
 -0.266  -0.258  -0.211
 -- Virtual --
 -0.059  -0.014  -0.003  -0.000   0.005   0.014   0.019   0.026
  0.026   0.036   0.040   0.045   0.050   0.061   0.066   0.070
  0.078   0.084   0.086   0.094   0.101   0.102   0.107   0.113
  0.115   0.123   0.127   0.129   0.138   0.138   0.144   0.145
  0.148   0.155   0.157   0.160   0.166   0.178   0.184   0.190
  0.190   0.193   0.197   0.206   0.210   0.216   0.229   0.240
  0.259   0.260   0.267   0.272   0.281   0.293   0.301   0.310
  0.312   0.314   0.335   0.345   0.362   0.380   0.383   0.426
  0.443   0.465   0.492   0.534   0.546   0.562   0.566   0.573
  0.595   0.626   0.647   0.653   0.657   0.668   0.669   0.672
  0.703   0.719   0.720   0.722   0.733   0.754   0.764   0.792
  0.803   0.815   0.831   0.842   0.884   0.923   0.930   0.947
  0.954   0.956   0.970   0.979   0.986   1.009   1.009   1.012
  1.025   1.032   1.079   1.084   1.106   1.114   1.135   1.169
  1.188   1.188   1.206   1.246   1.257   1.334   1.339   1.353
  1.355   1.368   1.372   1.443   1.495   1.530   1.551   1.592
  1.646   1.694   1.711   1.782   1.856   1.874   1.893   1.915
  1.923   1.978   1.992   2.012   2.019   2.073   2.088   2.127
  2.128   2.171   2.182   2.245   2.245   2.294   2.295   2.360
  2.366   2.416   2.455   2.475   2.476   2.501   2.509   2.533
  2.544   2.565   2.575   2.597   2.684   2.690   2.722   2.756
  2.804   2.855   2.949   2.976   3.140   3.216   3.270   3.273
  3.395   3.434   3.708   3.757   3.942   4.020   4.229   4.298
  4.307   4.333   4.400   4.547   4.645   4.733
 --------------------------------------------------------------
 
          Ground-State Mulliken Net Atomic Charges

     Atom                 Charge (a.u.)
  ----------------------------------------
      1 S                    -0.140390
      2 C                     0.022387
      3 H                     0.199904
      4 C                    -0.403990
      5 H                     0.119443
      6 C                     0.363841
      7 H                     0.108406
      8 C                    -0.268915
      9 C                    -0.267350
     10 C                     0.358989
     11 H                     0.108042
     12 C                    -0.402442
     13 H                     0.119467
     14 C                     0.022171
     15 H                     0.199964
     16 S                    -0.139526
  ----------------------------------------
  Sum of atomic charges =     0.000000

 -----------------------------------------------------------------
                    Cartesian Multipole Moments
 -----------------------------------------------------------------
    Charge (ESU x 10^10)
                -0.0000
    Dipole Moment (Debye)
         X       0.5028      Y       0.0549      Z      -0.9073
       Tot       1.0387
    Quadrupole Moments (Debye-Ang)
        XX     -63.3863     XY       0.1123     YY     -78.7723
        XZ       2.7887     YZ      -0.7437     ZZ     -62.8987
    Octopole Moments (Debye-Ang^2)
       XXX     158.7573    XXY      -3.9861    XYY      66.0277
       YYY      -5.0287    XXZ     107.0479    XYZ       1.4280
       YYZ     143.9414    XZZ      51.9712    YZZ       4.3392
       ZZZ     344.1914
    Hexadecapole Moments (Debye-Ang^3)
      XXXX   -1834.8693   XXXY       3.4264   XXYY    -408.9472
      XYYY      -7.7250   YYYY    -110.7803   XXXZ    -557.5177
      XXYZ       7.9517   XYYZ    -247.7571   YYYZ      19.5027
      XXZZ    -645.7368   XYZZ     -13.6035   YYZZ    -457.6297
      XZZZ    -590.3114   YZZZ     -16.6819   ZZZZ   -2101.6635
 -----------------------------------------------------------------
 Calculating analytic gradient of the SCF energy
 Gradient of SCF Energy
            1           2           3           4           5           6
    1   0.0000725   0.0000068  -0.0000395  -0.0000527  -0.0000015   0.0001380
    2  -0.0002160  -0.0000458  -0.0000016   0.0001166  -0.0000775   0.0007934
    3  -0.0002960   0.0000736   0.0000203  -0.0001283   0.0000036  -0.0002078
            7           8           9          10          11          12
    1   0.0000513  -0.0002331  -0.0002609   0.0001198  -0.0000637   0.0001542
    2  -0.0000591  -0.0010480   0.0009898  -0.0007579   0.0000717  -0.0000968
    3   0.0000461   0.0004145   0.0005402  -0.0003184  -0.0000011  -0.0000306
           13          14          15          16
    1  -0.0000129  -0.0000440   0.0000020   0.0001637
    2   0.0000848   0.0000395  -0.0000186   0.0002255
    3   0.0000153   0.0000238   0.0000432  -0.0001984
 Max gradient component =       1.048E-03
 RMS gradient           =       3.033E-04
 Gradient time:  CPU 2.08 s  wall 2.08 s
 Geometry Optimization Parameters
   NAtoms,    NIC,     NZ,  NCons,   NDum,   NFix, NCnnct, MaxDiis
       16     111       0       1       0       0       0       0

 Cartesian Hessian Update
 Hessian Updated using BFGS Update


** CONSTRAINED OPTIMIZATION IN DELOCALIZED INTERNAL COORDINATES **
   Searching for a Minimum

   Optimization Cycle:   5

                       Coordinates (Angstroms)
     ATOM                X               Y               Z
      1  S         0.0299420845    0.0931139065    0.0348304421
      2  C         1.7629482693    0.0452725643   -0.0047947137
      3  H         2.3232038563    0.0572857627    0.9197726007
      4  C         2.2341728964   -0.0076696434   -1.2906752588
      5  H         3.2890423353   -0.0472609365   -1.5375106883
      6  C         1.1933990324   -0.0192260562   -2.2621959970
      7  H         1.3716127269   -0.0799734291   -3.3293265535
      8  C        -0.0740458731    0.0271777933   -1.7140261761
      9  C        -1.3460568126    0.0479428450   -2.4188965163
     10  C        -1.5557845057    0.2161434986   -3.7741763811
     11  H        -0.7502497209    0.3909142169   -4.4775431150
     12  C        -2.9283598811    0.1632223299   -4.1487453558
     13  H        -3.2802880343    0.2819752556   -5.1672223019
     14  C        -3.7643316178   -0.0419800475   -3.0824935757
     15  H        -4.8429354395   -0.1168916712   -3.0746638735
     16  S        -2.8787618962   -0.1847396890   -1.5986248461
   Point Group: c1    Number of degrees of freedom:    42


   Energy is  -1104.839128187

              Constraints and their Current Values
                                        Value     Constraint
   Dihedral:        6   8   9  10      -10.000      -10.000
 Hessian Updated using BFGS Update

 36 Hessian modes will be used to form the next step
  Hessian Eigenvalues:
     0.008390    0.043083    0.045000    0.045001    0.045005    0.045136
     0.050147    0.159541    0.159950    0.159992    0.160000    0.160138
     0.160527    0.221279    0.222657    0.235373    0.237846    0.250025
     0.282094    0.294447    0.311817    0.312607    0.316435    0.354784
     0.355001    0.355129    0.355244    0.358274    0.358611    0.389431
     0.404903    0.435009    0.463641    0.467645    0.497971    0.502861

 Minimum Search - Taking Simple RFO Step
 Searching for Lamda that Minimizes Along All modes
 Value Taken    Lamda =  -0.00000896
 Step Taken.  Stepsize is  0.025509

                             Maximum     Tolerance    Cnvgd?
         Gradient           0.000365      0.000300      NO
         Displacement       0.021234      0.001200      NO
         Energy change     -0.000012      0.000001      NO


 New Cartesian Coordinates Obtained by Inverse Iteration

 Displacement from previous Coordinates is:  0.044264
 ----------------------------------------------------------------
             Standard Nuclear Orientation (Angstroms)
    I     Atom           X                Y                Z
 ----------------------------------------------------------------
    1      S       0.0294173374     0.0991418549     0.0335826374
    2      C       1.7624659778     0.0484919055    -0.0046694763
    3      H       2.3223336642     0.0631543645     0.9201013031
    4      C       2.2345094713    -0.0103961120    -1.2899321394
    5      H       3.2895576205    -0.0513042725    -1.5357885230
    6      C       1.1943846217    -0.0241430369    -2.2622814391
    7      H       1.3726884369    -0.0912492779    -3.3290747899
    8      C      -0.0732826021     0.0250013476    -1.7153609055
    9      C      -1.3454346167     0.0504533712    -2.4200453116
   10      C      -1.5564995719     0.2211758499    -3.7746078489
   11      H      -0.7517307163     0.4022728341    -4.4773500570
   12      C      -2.9293112754     0.1657878997    -4.1483938227
   13      H      -3.2821962683     0.2856853134    -5.1664087911
   14      C      -3.7639872146    -0.0453106582    -3.0823186931
   15      H      -4.8423983524    -0.1229419174    -3.0743140474
   16      S      -2.8770090922    -0.1905127658    -1.5994304056
 ----------------------------------------------------------------
 Nuclear Repulsion Energy =   631.7318889239 hartrees
 There are       43 alpha and       43 beta electrons
 Applying Cartesian multipole field
    Component          Value
    ---------          -----
     (2,0,0)        1.00000E-11
     (0,2,0)        2.00000E-11
     (0,0,2)       -3.00000E-12
 Nucleus-field energy     =     0.0000000097 hartrees
 Requested basis set is 6-31++G(d,p)
 There are 76 shells and 234 basis functions
 A cutoff of  1.0D-12 yielded   2529 shell pairs
 There are     24877 function pairs

 Q-Chem warning in module /project/projectdirs/jcesr/qchem/qc44/cnl_qc441/compile/cori/qc_src/libqints/qchem/aobasis.C, line 68:

 Using reconstructed effective core potential

 Smallest overlap matrix eigenvalue = 6.88E-07
 Linear dependence detected in AO basis
 Number of orthogonalized atomic orbitals = 233
 Maximum deviation from orthogonality = 5.005E-11
 Guess MOs from SCF MO coefficient file
 Reading MOs from coefficient file
 Reading MOs from coefficient file
 A restricted hybrid HF-DFT SCF calculation will be
 performed using Pulay DIIS extrapolation
 Exchange:     0.2000 Hartree-Fock + 0.0800 Slater + 0.7200 B88
 Correlation:  0.1900 VWN1RPA + 0.8100 LYP
 Using SG-1 standard quadrature grid
 SCF converges when DIIS error is below 1.0E-08
 Geometry optimization detected.  Setting ReadMinima to 0
 Setting SaveMinima to 0
 ---------------------------------------
  Cycle       Energy         DIIS Error
 ---------------------------------------
    1   -1104.8410780350      2.35E-04
    2   -1104.8391320161      1.37E-05
    3   -1104.8391294783      2.41E-05
    4   -1104.8391340755      4.94E-06
    5   -1104.8391342296      1.64E-06
    6   -1104.8391342399      1.19E-06
    7   -1104.8391342496      1.67E-07
    8   -1104.8391342514      4.66E-08
    9   -1104.8391342516      1.83E-08
   10   -1104.8391342522      3.00E-09 Convergence criterion met
 ---------------------------------------
 SCF time:  CPU 5.62 s  wall 5.46 s
 SCF   energy in the final basis set = -1104.8391342522
 Total energy in the final basis set = -1104.8391342522
 
 --------------------------------------------------------------
 
                    Orbital Energies (a.u.)
 --------------------------------------------------------------
 
 Alpha MOs
 -- Occupied --
-88.920 -88.920 -10.240 -10.239 -10.225 -10.225 -10.205 -10.205
-10.203 -10.203  -7.980  -7.980  -5.944  -5.944  -5.940  -5.940
 -5.937  -5.937  -0.901  -0.878  -0.772  -0.750  -0.737  -0.705
 -0.604  -0.580  -0.553  -0.533  -0.528  -0.477  -0.422  -0.419
 -0.408  -0.403  -0.402  -0.377  -0.374  -0.360  -0.343  -0.283
 -0.265  -0.258  -0.211
 -- Virtual --
 -0.059  -0.014  -0.003  -0.000   0.005   0.014   0.019   0.026
  0.026   0.036   0.040   0.045   0.050   0.061   0.065   0.070
  0.078   0.083   0.087   0.094   0.102   0.102   0.107   0.113
  0.115   0.123   0.127   0.129   0.138   0.138   0.144   0.145
  0.148   0.155   0.158   0.160   0.166   0.178   0.184   0.190
  0.190   0.193   0.196   0.206   0.210   0.216   0.228   0.240
  0.258   0.260   0.267   0.272   0.280   0.292   0.301   0.310
  0.312   0.314   0.334   0.346   0.362   0.380   0.383   0.426
  0.443   0.465   0.492   0.534   0.546   0.562   0.566   0.572
  0.595   0.626   0.646   0.653   0.657   0.667   0.668   0.672
  0.703   0.720   0.721   0.722   0.733   0.754   0.763   0.792
  0.802   0.816   0.831   0.843   0.884   0.922   0.930   0.948
  0.954   0.955   0.970   0.978   0.986   1.008   1.009   1.012
  1.026   1.032   1.079   1.084   1.107   1.113   1.135   1.169
  1.188   1.188   1.206   1.247   1.256   1.333   1.339   1.353
  1.355   1.368   1.373   1.442   1.495   1.530   1.551   1.590
  1.647   1.693   1.711   1.782   1.856   1.874   1.893   1.914
  1.923   1.977   1.992   2.012   2.019   2.073   2.088   2.127
  2.128   2.171   2.182   2.244   2.245   2.293   2.295   2.360
  2.366   2.416   2.455   2.474   2.476   2.501   2.509   2.532
  2.544   2.565   2.576   2.597   2.684   2.690   2.722   2.756
  2.803   2.855   2.949   2.976   3.140   3.216   3.270   3.273
  3.395   3.434   3.708   3.757   3.942   4.020   4.229   4.298
  4.307   4.333   4.400   4.546   4.645   4.733
 --------------------------------------------------------------
 
          Ground-State Mulliken Net Atomic Charges

     Atom                 Charge (a.u.)
  ----------------------------------------
      1 S                    -0.140804
      2 C                     0.024918
      3 H                     0.199816
      4 C                    -0.403215
      5 H                     0.119327
      6 C                     0.366265
      7 H                     0.109189
      8 C                    -0.274901
      9 C                    -0.273512
     10 C                     0.361762
     11 H                     0.108842
     12 C                    -0.401715
     13 H                     0.119350
     14 C                     0.024785
     15 H                     0.199881
     16 S                    -0.139987
  ----------------------------------------
  Sum of atomic charges =     0.000000

 -----------------------------------------------------------------
                    Cartesian Multipole Moments
 -----------------------------------------------------------------
    Charge (ESU x 10^10)
                 0.0000
    Dipole Moment (Debye)
         X       0.5029      Y       0.0549      Z      -0.9075
       Tot       1.0390
    Quadrupole Moments (Debye-Ang)
        XX     -63.3830     XY       0.1257     YY     -78.7622
        XZ       2.7972     YZ      -0.7348     ZZ     -62.9026
    Octopole Moments (Debye-Ang^2)
       XXX     158.7024    XXY      -4.1149    XYY      65.9964
       YYY      -5.0372    XXZ     107.0573    XYZ       1.4590
       YYZ     143.9359    XZZ      51.9152    YZZ       4.4002
       ZZZ     344.3414
    Hexadecapole Moments (Debye-Ang^3)
      XXXX   -1834.3816   XXXY       3.5822   XXYY    -408.8343
      XYYY      -8.1396   YYYY    -111.2584   XXXZ    -557.4486
      XXYZ       8.2173   XYYZ    -247.7242   YYYZ      19.2342
      XXZZ    -645.5998   XYZZ     -13.8945   YYZZ    -457.5692
      XZZZ    -590.2450   YZZZ     -17.3497   ZZZZ   -2102.4606
 -----------------------------------------------------------------
 Calculating analytic gradient of the SCF energy
 Gradient of SCF Energy
            1           2           3           4           5           6
    1  -0.0000108   0.0000492  -0.0000231  -0.0000547   0.0000028   0.0001208
    2  -0.0001696  -0.0000407   0.0000107   0.0000048  -0.0000115   0.0010610
    3  -0.0002389   0.0000719   0.0000112  -0.0000587   0.0000113  -0.0001001
            7           8           9          10          11          12
    1   0.0000027  -0.0000631  -0.0002460   0.0000560  -0.0000208   0.0000973
    2  -0.0001416  -0.0015940   0.0015526  -0.0010331   0.0001549   0.0000039
    3   0.0000201   0.0002413   0.0003487  -0.0002683   0.0000286   0.0000070
           13          14          15          16
    1  -0.0000145  -0.0000834   0.0000037   0.0001840
    2   0.0000202   0.0000328  -0.0000265   0.0001760
    3   0.0000068   0.0000038   0.0000209  -0.0001057
 Max gradient component =       1.594E-03
 RMS gradient           =       4.014E-04
 Gradient time:  CPU 2.15 s  wall 2.08 s
 Geometry Optimization Parameters
   NAtoms,    NIC,     NZ,  NCons,   NDum,   NFix, NCnnct, MaxDiis
       16     111       0       1       0       0       0       0

 Cartesian Hessian Update
 Hessian Updated using BFGS Update


** CONSTRAINED OPTIMIZATION IN DELOCALIZED INTERNAL COORDINATES **
   Searching for a Minimum

   Optimization Cycle:   6

                       Coordinates (Angstroms)
     ATOM                X               Y               Z
      1  S         0.0294173374    0.0991418549    0.0335826374
      2  C         1.7624659778    0.0484919055   -0.0046694763
      3  H         2.3223336642    0.0631543645    0.9201013031
      4  C         2.2345094713   -0.0103961120   -1.2899321394
      5  H         3.2895576205   -0.0513042725   -1.5357885230
      6  C         1.1943846217   -0.0241430369   -2.2622814391
      7  H         1.3726884369   -0.0912492779   -3.3290747899
      8  C        -0.0732826021    0.0250013476   -1.7153609055
      9  C        -1.3454346167    0.0504533712   -2.4200453116
     10  C        -1.5564995719    0.2211758499   -3.7746078489
     11  H        -0.7517307163    0.4022728341   -4.4773500570
     12  C        -2.9293112754    0.1657878997   -4.1483938227
     13  H        -3.2821962683    0.2856853134   -5.1664087911
     14  C        -3.7639872146   -0.0453106582   -3.0823186931
     15  H        -4.8423983524   -0.1229419174   -3.0743140474
     16  S        -2.8770090922   -0.1905127658   -1.5994304056
   Point Group: c1    Number of degrees of freedom:    42


   Energy is  -1104.839134252

              Constraints and their Current Values
                                        Value     Constraint
   Dihedral:        6   8   9  10      -10.000      -10.000
 Hessian Updated using BFGS Update

 38 Hessian modes will be used to form the next step
  Hessian Eigenvalues:
     0.007177    0.033992    0.045000    0.045001    0.045002    0.045011
     0.045012    0.045749    0.047721    0.158909    0.159949    0.159992
     0.160000    0.160132    0.160875    0.220826    0.221371    0.237820
     0.240585    0.250040    0.282193    0.294467    0.308620    0.312589
     0.313909    0.354786    0.354950    0.355129    0.355223    0.358272
     0.358604    0.389795    0.404896    0.435608    0.463588    0.464703
     0.497981    0.500115

 Minimum Search - Taking Simple RFO Step
 Searching for Lamda that Minimizes Along All modes
 Value Taken    Lamda =  -0.00000415
 Step Taken.  Stepsize is  0.016838

                             Maximum     Tolerance    Cnvgd?
         Gradient           0.000209      0.000300     YES
         Displacement       0.012902      0.001200      NO
         Energy change     -0.000006      0.000001      NO


 New Cartesian Coordinates Obtained by Inverse Iteration

 Displacement from previous Coordinates is:  0.026482
 ----------------------------------------------------------------
             Standard Nuclear Orientation (Angstroms)
    I     Atom           X                Y                Z
 ----------------------------------------------------------------
    1      S       0.0293617144     0.1035854343     0.0333856833
    2      C       1.7623847180     0.0505038168    -0.0047071844
    3      H       2.3224315554     0.0669392838     0.9199380909
    4      C       2.2346349871    -0.0124647122    -1.2896264536
    5      H       3.2897078021    -0.0540980000    -1.5352372484
    6      C       1.1946056688    -0.0276784396    -2.2621767572
    7      H       1.3728287029    -0.0968540082    -3.3288915512
    8      C      -0.0730402549     0.0234337926    -1.7158653065
    9      C      -1.3452085613     0.0522315160    -2.4203778286
   10      C      -1.5568861867     0.2247674182    -3.7744180104
   11      H      -0.7523332628     0.4079160387    -4.4769389660
   12      C      -2.9297523123     0.1677537700    -4.1481416624
   13      H      -3.2828569158     0.2882733864    -5.1660050956
   14      C      -3.7637896562    -0.0473882956    -3.0824599072
   15      H      -4.8420820261    -0.1267998687    -3.0748471967
   16      S      -2.8764985526    -0.1948144325    -1.5999229161
 ----------------------------------------------------------------
 Nuclear Repulsion Energy =   631.6987216877 hartrees
 There are       43 alpha and       43 beta electrons
 Applying Cartesian multipole field
    Component          Value
    ---------          -----
     (2,0,0)        1.00000E-11
     (0,2,0)        2.00000E-11
     (0,0,2)       -3.00000E-12
 Nucleus-field energy     =     0.0000000097 hartrees
 Requested basis set is 6-31++G(d,p)
 There are 76 shells and 234 basis functions
 A cutoff of  1.0D-12 yielded   2529 shell pairs
 There are     24877 function pairs

 Q-Chem warning in module /project/projectdirs/jcesr/qchem/qc44/cnl_qc441/compile/cori/qc_src/libqints/qchem/aobasis.C, line 68:

 Using reconstructed effective core potential

 Smallest overlap matrix eigenvalue = 6.89E-07
 Linear dependence detected in AO basis
 Number of orthogonalized atomic orbitals = 233
 Maximum deviation from orthogonality = 1.350E-10
 Guess MOs from SCF MO coefficient file
 Reading MOs from coefficient file
 Reading MOs from coefficient file
 A restricted hybrid HF-DFT SCF calculation will be
 performed using Pulay DIIS extrapolation
 Exchange:     0.2000 Hartree-Fock + 0.0800 Slater + 0.7200 B88
 Correlation:  0.1900 VWN1RPA + 0.8100 LYP
 Using SG-1 standard quadrature grid
 SCF converges when DIIS error is below 1.0E-08
 Geometry optimization detected.  Setting ReadMinima to 0
 Setting SaveMinima to 0
 ---------------------------------------
  Cycle       Energy         DIIS Error
 ---------------------------------------
    1   -1104.8402645606      1.63E-04
    2   -1104.8391357970      9.57E-06
    3   -1104.8391346744      1.63E-05
    4   -1104.8391368503      3.25E-06
    5   -1104.8391369175      1.09E-06
[...]


   Energy is  -1104.839136927

              Constraints and their Current Values
                                        Value     Constraint
   Dihedral:        6   8   9  10      -10.000      -10.000
 Hessian Updated using BFGS Update

 41 Hessian modes will be used to form the next step
  Hessian Eigenvalues:
     0.007091    0.023613    0.045000    0.045000    0.045000    0.045001
     0.045002    0.045004    0.045012    0.045018    0.046158    0.047344
     0.159650    0.159948    0.159992    0.160000    0.160188    0.161250
     0.221276    0.221608    0.237835    0.249985    0.252778    0.281782
     0.294424    0.297628    0.312570    0.314561    0.354793    0.355036
     0.355129    0.355262    0.358273    0.358620    0.389754    0.404896
     0.436220    0.463642    0.465190    0.497949    0.501373

 Minimum Search - Taking Simple RFO Step
 Searching for Lamda that Minimizes Along All modes
 Value Taken    Lamda =  -0.00000122
 Step Taken.  Stepsize is  0.008011

                             Maximum     Tolerance    Cnvgd?
         Gradient           0.000146      0.000300     YES
         Displacement       0.005293      0.001200      NO
         Energy change     -0.000003      0.000001      NO


 New Cartesian Coordinates Obtained by Inverse Iteration

 Displacement from previous Coordinates is:  0.009342
 ----------------------------------------------------------------
             Standard Nuclear Orientation (Angstroms)
    I     Atom           X                Y                Z
 ----------------------------------------------------------------
    1      S       0.0295993022     0.1054157158     0.0337040627
    2      C       1.7625612631     0.0513634789    -0.0048295761
    3      H       2.3229078258     0.0681932748     0.9196361516
    4      C       2.2345705614    -0.0131889729    -1.2897358512
    5      H       3.2895659544    -0.0553759318    -1.5355700829
    6      C       1.1943121508    -0.0290756213    -2.2620574963
    7      H       1.3724091610    -0.0978505986    -3.3288230956
    8      C      -0.0732032798     0.0228156137    -1.7156540780
    9      C      -1.3453328370     0.0529131199    -2.4200649260
   10      C      -1.5569080395     0.2261704904    -3.7739707242
   11      H      -0.7522481322     0.4089011895    -4.4764799622
   12      C      -2.9296683263     0.1684564978    -4.1480733314
   13      H      -3.2825592569     0.2894915509    -5.1659469099
   14      C      -3.7637222834    -0.0482580931    -3.0827616298
   15      H      -4.8419959160    -0.1280552887    -3.0755349897
   16      S      -2.8767807275    -0.1966097254    -1.6001298711
 ----------------------------------------------------------------
 Nuclear Repulsion Energy =   631.6740325926 hartrees
 There are       43 alpha and       43 beta electrons
 Applying Cartesian multipole field
    Component          Value
    ---------          -----
     (2,0,0)        1.00000E-11
     (0,2,0)        2.00000E-11
     (0,0,2)       -3.00000E-12
 Nucleus-field energy     =     0.0000000097 hartrees
 Requested basis set is 6-31++G(d,p)
 There are 76 shells and 234 basis functions
 A cutoff of  1.0D-12 yielded   2529 shell pairs
 There are     24877 function pairs

 Q-Chem warning in module /project/projectdirs/jcesr/qchem/qc44/cnl_qc441/compile/cori/qc_src/libqints/qchem/aobasis.C, line 68:

 Using reconstructed effective core potential

 Smallest overlap matrix eigenvalue = 6.90E-07
 Linear dependence detected in AO basis
 Number of orthogonalized atomic orbitals = 233
 Maximum deviation from orthogonality = 4.167E-11
 Guess MOs from SCF MO coefficient file
 Reading MOs from coefficient file
 Reading MOs from coefficient file
 A restricted hybrid HF-DFT SCF calculation will be
 performed using Pulay DIIS extrapolation
 Exchange:     0.2000 Hartree-Fock + 0.0800 Slater + 0.7200 B88
 Correlation:  0.1900 VWN1RPA + 0.8100 LYP
 Using SG-1 standard quadrature grid
 SCF converges when DIIS error is below 1.0E-08
 Geometry optimization detected.  Setting ReadMinima to 0
 Setting SaveMinima to 0
 ---------------------------------------
  Cycle       Energy         DIIS Error
 ---------------------------------------
    1   -1104.8394281128      6.46E-05
    2   -1104.8391374279      5.16E-06
    3   -1104.8391370046      9.25E-06
    4   -1104.8391377037      1.39E-06
    5   -1104.8391377176      4.39E-07
    6   -1104.8391377166      3.84E-07
    7   -1104.8391377168      6.61E-08
    8   -1104.8391377193      2.29E-08
    9   -1104.8391377191      4.81E-09 Convergence criterion met
 ---------------------------------------
 SCF time:  CPU 5.07 s  wall 4.73 s
 SCF   energy in the final basis set = -1104.8391377191
 Total energy in the final basis set = -1104.8391377191
 
 --------------------------------------------------------------
 
                    Orbital Energies (a.u.)
 --------------------------------------------------------------
 
 Alpha MOs
 -- Occupied --
-88.920 -88.920 -10.240 -10.239 -10.225 -10.225 -10.205 -10.205
-10.203 -10.203  -7.980  -7.979  -5.944  -5.944  -5.940  -5.940
 -5.937  -5.937  -0.901  -0.878  -0.772  -0.750  -0.737  -0.705
 -0.604  -0.580  -0.553  -0.533  -0.528  -0.477  -0.422  -0.419
 -0.408  -0.403  -0.402  -0.377  -0.374  -0.360  -0.343  -0.283
 -0.265  -0.258  -0.211
 -- Virtual --
 -0.059  -0.014  -0.003  -0.000   0.005   0.014   0.019   0.026
  0.026   0.036   0.040   0.045   0.050   0.061   0.065   0.070
  0.078   0.083   0.086   0.094   0.102   0.102   0.107   0.113
  0.115   0.123   0.127   0.129   0.138   0.138   0.144   0.145
  0.147   0.155   0.158   0.160   0.166   0.178   0.184   0.189
  0.190   0.192   0.196   0.207   0.210   0.217   0.228   0.240
  0.257   0.260   0.267   0.272   0.279   0.291   0.301   0.310
  0.312   0.314   0.334   0.346   0.362   0.380   0.382   0.426
  0.443   0.465   0.492   0.534   0.545   0.561   0.567   0.572
  0.595   0.626   0.646   0.653   0.657   0.666   0.668   0.672
  0.703   0.720   0.721   0.722   0.733   0.754   0.763   0.792
  0.802   0.816   0.831   0.844   0.884   0.922   0.930   0.948
  0.954   0.955   0.970   0.978   0.986   1.007   1.009   1.011
  1.026   1.032   1.079   1.083   1.106   1.112   1.134   1.169
  1.187   1.188   1.205   1.247   1.256   1.334   1.339   1.353
  1.355   1.367   1.373   1.440   1.496   1.530   1.551   1.589
  1.649   1.693   1.711   1.782   1.856   1.874   1.892   1.914
  1.923   1.976   1.992   2.012   2.019   2.072   2.088   2.127
  2.128   2.172   2.181   2.244   2.245   2.292   2.295   2.360
  2.366   2.416   2.455   2.475   2.475   2.500   2.508   2.532
  2.544   2.565   2.575   2.596   2.684   2.690   2.722   2.756
  2.802   2.855   2.949   2.976   3.140   3.216   3.270   3.272
  3.395   3.433   3.708   3.756   3.942   4.019   4.229   4.298
  4.307   4.332   4.400   4.546   4.645   4.733
 --------------------------------------------------------------
 
          Ground-State Mulliken Net Atomic Charges

     Atom                 Charge (a.u.)
  ----------------------------------------
      1 S                    -0.139913
      2 C                     0.025736
      3 H                     0.199664
      4 C                    -0.400192
      5 H                     0.119305
      6 C                     0.364286
      7 H                     0.109528
      8 C                    -0.277903
      9 C                    -0.276665
     10 C                     0.360063
     11 H                     0.109200
     12 C                    -0.398735
     13 H                     0.119324
     14 C                     0.025710
     15 H                     0.199736
     16 S                    -0.139145
  ----------------------------------------
  Sum of atomic charges =     0.000000

 -----------------------------------------------------------------
                    Cartesian Multipole Moments
 -----------------------------------------------------------------
    Charge (ESU x 10^10)
                -0.0000
    Dipole Moment (Debye)
         X       0.5044      Y       0.0549      Z      -0.9101
       Tot       1.0420
    Quadrupole Moments (Debye-Ang)
        XX     -63.3819     XY       0.1445     YY     -78.7567
        XZ       2.8042     YZ      -0.7235     ZZ     -62.8954
    Octopole Moments (Debye-Ang^2)
       XXX     158.7197    XXY      -4.2291    XYY      65.9826
       YYY      -5.0443    XXZ     107.0339    XYZ       1.4631
       YYZ     143.9206    XZZ      51.8725    YZZ       4.4327
       ZZZ     344.3352
    Hexadecapole Moments (Debye-Ang^3)
      XXXX   -1834.4499   XXXY       3.6708   XXYY    -408.8069
      XYYY      -8.5616   YYYY    -111.7575   XXXZ    -557.4291
      XXYZ       8.4051   XYYZ    -247.7233   YYYZ      18.9666
      XXZZ    -645.4361   XYZZ     -14.0872   YYZZ    -457.5188
      XZZZ    -590.2139   YZZZ     -17.8192   ZZZZ   -2102.4748
 -----------------------------------------------------------------
 Calculating analytic gradient of the SCF energy
 Gradient of SCF Energy
            1           2           3           4           5           6
    1  -0.0000246   0.0000080   0.0000058   0.0000043   0.0000013   0.0000211
    2  -0.0000110  -0.0000445   0.0000120  -0.0000718   0.0000462   0.0010612
    3   0.0000425  -0.0000097  -0.0000030   0.0000274   0.0000009   0.0000121
            7           8           9          10          11          12
    1  -0.0000139   0.0000191  -0.0000295   0.0000414   0.0000089  -0.0000290
    2  -0.0000417  -0.0020938   0.0020876  -0.0010474   0.0000561   0.0000708
    3  -0.0000055  -0.0001168   0.0001209  -0.0001123   0.0000132   0.0000157
           13          14          15          16
    1   0.0000033  -0.0000032   0.0000020  -0.0000149
    2  -0.0000360   0.0000397  -0.0000219  -0.0000055
    3  -0.0000062  -0.0000074  -0.0000129   0.0000410
 Max gradient component =       2.094E-03
 RMS gradient           =       4.796E-04
 Gradient time:  CPU 1.92 s  wall 2.44 s
 Geometry Optimization Parameters
   NAtoms,    NIC,     NZ,  NCons,   NDum,   NFix, NCnnct, MaxDiis
       16     111       0       1       0       0       0       0

 Cartesian Hessian Update
 Hessian Updated using BFGS Update


** CONSTRAINED OPTIMIZATION IN DELOCALIZED INTERNAL COORDINATES **
   Searching for a Minimum

   Optimization Cycle:   8

                       Coordinates (Angstroms)
     ATOM                X               Y               Z
      1  S         0.0295993022    0.1054157158    0.0337040627
      2  C         1.7625612631    0.0513634789   -0.0048295761
      3  H         2.3229078258    0.0681932748    0.9196361516
      4  C         2.2345705614   -0.0131889729   -1.2897358512
      5  H         3.2895659544   -0.0553759318   -1.5355700829
      6  C         1.1943121508   -0.0290756213   -2.2620574963
      7  H         1.3724091610   -0.0978505986   -3.3288230956
      8  C        -0.0732032798    0.0228156137   -1.7156540780
      9  C        -1.3453328370    0.0529131199   -2.4200649260
     10  C        -1.5569080395    0.2261704904   -3.7739707242
     11  H        -0.7522481322    0.4089011895   -4.4764799622
     12  C        -2.9296683263    0.1684564978   -4.1480733314
     13  H        -3.2825592569    0.2894915509   -5.1659469099
     14  C        -3.7637222834   -0.0482580931   -3.0827616298
     15  H        -4.8419959160   -0.1280552887   -3.0755349897
     16  S        -2.8767807275   -0.1966097254   -1.6001298711
   Point Group: c1    Number of degrees of freedom:    42


   Energy is  -1104.839137719

              Constraints and their Current Values
                                        Value     Constraint
   Dihedral:        6   8   9  10      -10.000      -10.000
 Hessian Updated using BFGS Update

 41 Hessian modes will be used to form the next step
  Hessian Eigenvalues:
     0.007199    0.016867    0.044217    0.045000    0.045000    0.045000
     0.045001    0.045002    0.045004    0.045012    0.045023    0.048530
     0.159724    0.159953    0.159992    0.159999    0.160027    0.160449
     0.221280    0.222445    0.237819    0.239386    0.250030    0.282000
     0.294434    0.307914    0.312575    0.315541    0.354786    0.354998
     0.355129    0.355241    0.358273    0.358611    0.389625    0.404901
     0.435298    0.463639    0.466602    0.497969    0.502511

 Minimum Search - Taking Simple RFO Step
 Searching for Lamda that Minimizes Along All modes
 Value Taken    Lamda =   0.00000000
 Step Taken.  Stepsize is  0.004203

                             Maximum     Tolerance    Cnvgd?
         Gradient           0.000068      0.000300     YES
         Displacement       0.003442      0.001200      NO
         Energy change     -0.000001      0.000001     YES

 Final energy is   -1104.83913771914     


 ******************************
 **  OPTIMIZATION CONVERGED  **
 ******************************

                       Coordinates (Angstroms)
     ATOM                X               Y               Z
      1  S         0.0295993022    0.1054157158    0.0337040627
      2  C         1.7625612631    0.0513634789   -0.0048295761
      3  H         2.3229078258    0.0681932748    0.9196361516
      4  C         2.2345705614   -0.0131889729   -1.2897358512
      5  H         3.2895659544   -0.0553759318   -1.5355700829
      6  C         1.1943121508   -0.0290756213   -2.2620574963
      7  H         1.3724091610   -0.0978505986   -3.3288230956
      8  C        -0.0732032798    0.0228156137   -1.7156540780
      9  C        -1.3453328370    0.0529131199   -2.4200649260
     10  C        -1.5569080395    0.2261704904   -3.7739707242
     11  H        -0.7522481322    0.4089011895   -4.4764799622
     12  C        -2.9296683263    0.1684564978   -4.1480733314
     13  H        -3.2825592569    0.2894915509   -5.1659469099
     14  C        -3.7637222834   -0.0482580931   -3.0827616298
     15  H        -4.8419959160   -0.1280552887   -3.0755349897
     16  S        -2.8767807275   -0.1966097254   -1.6001298711

Z-matrix Print:
$molecule
0 1
S 
C  1 1.734233
H  2 1.081161 1 119.895412
C  2 1.370381 1 111.499053 3 179.857932 0
H  4 1.084080 2 123.343161 1 -179.962975 0
C  4 1.424008 2 112.900206 1 -0.410523 0
H  6 1.083715 4 123.558150 2 -178.718247 0
C  6 1.381248 4 113.567888 2 -0.032654 0
C  8 1.454446 6 127.721113 4 178.528378 0
C  9 1.381247 8 127.683589 6 -9.999999 0
H  10 1.083692 9 122.877045 8 -2.840752 0
C  10 1.423992 9 113.584163 8 178.362946 0
H  12 1.084089 10 123.776151 9 179.601377 0
C  12 1.370219 10 112.889680 9 -0.000000 0
H  14 1.081246 12 128.601231 10 179.474833 0
S  14 1.734033 12 111.527191 10 -0.394627 0
$end

 
 --------------------------------------------------------------
 
                    Orbital Energies (a.u.)
 --------------------------------------------------------------
 
 Alpha MOs
 -- Occupied --
-88.920 -88.920 -10.240 -10.239 -10.225 -10.225 -10.205 -10.205
-10.203 -10.203  -7.980  -7.979  -5.944  -5.944  -5.940  -5.940
 -5.937  -5.937  -0.901  -0.878  -0.772  -0.750  -0.737  -0.705
 -0.604  -0.580  -0.553  -0.533  -0.528  -0.477  -0.422  -0.419
 -0.408  -0.403  -0.402  -0.377  -0.374  -0.360  -0.343  -0.283
 -0.265  -0.258  -0.211
 -- Virtual --
 -0.059  -0.014  -0.003  -0.000   0.005   0.014   0.019   0.026
  0.026   0.036   0.040   0.045   0.050   0.061   0.065   0.070
  0.078   0.083   0.086   0.094   0.102   0.102   0.107   0.113
  0.115   0.123   0.127   0.129   0.138   0.138   0.144   0.145
  0.147   0.155   0.158   0.160   0.166   0.178   0.184   0.189
  0.190   0.192   0.196   0.207   0.210   0.217   0.228   0.240
  0.257   0.260   0.267   0.272   0.279   0.291   0.301   0.310
  0.312   0.314   0.334   0.346   0.362   0.380   0.382   0.426
  0.443   0.465   0.492   0.534   0.545   0.561   0.567   0.572
  0.595   0.626   0.646   0.653   0.657   0.666   0.668   0.672
  0.703   0.720   0.721   0.722   0.733   0.754   0.763   0.792
  0.802   0.816   0.831   0.844   0.884   0.922   0.930   0.948
  0.954   0.955   0.970   0.978   0.986   1.007   1.009   1.011
  1.026   1.032   1.079   1.083   1.106   1.112   1.134   1.169
  1.187   1.188   1.205   1.247   1.256   1.334   1.339   1.353
  1.355   1.367   1.373   1.440   1.496   1.530   1.551   1.589
  1.649   1.693   1.711   1.782   1.856   1.874   1.892   1.914
  1.923   1.976   1.992   2.012   2.019   2.072   2.088   2.127
  2.128   2.172   2.181   2.244   2.245   2.292   2.295   2.360
  2.366   2.416   2.455   2.475   2.475   2.500   2.508   2.532
  2.544   2.565   2.575   2.596   2.684   2.690   2.722   2.756
  2.802   2.855   2.949   2.976   3.140   3.216   3.270   3.272
  3.395   3.433   3.708   3.756   3.942   4.019   4.229   4.298
  4.307   4.332   4.400   4.546   4.645   4.733
 --------------------------------------------------------------
 
          Ground-State Mulliken Net Atomic Charges

     Atom                 Charge (a.u.)
  ----------------------------------------
      1 S                    -0.139913
      2 C                     0.025736
      3 H                     0.199664
      4 C                    -0.400192
      5 H                     0.119305
      6 C                     0.364286
      7 H                     0.109528
      8 C                    -0.277903
      9 C                    -0.276665
     10 C                     0.360063
     11 H                     0.109200
     12 C                    -0.398735
     13 H                     0.119324
     14 C                     0.025710
     15 H                     0.199736
     16 S                    -0.139145
  ----------------------------------------
  Sum of atomic charges =     0.000000

 -----------------------------------------------------------------
                    Cartesian Multipole Moments
 -----------------------------------------------------------------
    Charge (ESU x 10^10)
                -0.0000
    Dipole Moment (Debye)
         X       0.5044      Y       0.0549      Z      -0.9101
       Tot       1.0420
    Quadrupole Moments (Debye-Ang)
        XX     -63.3819     XY       0.1445     YY     -78.7567
        XZ       2.8042     YZ      -0.7235     ZZ     -62.8954
    Octopole Moments (Debye-Ang^2)
       XXX     158.7197    XXY      -4.2291    XYY      65.9826
       YYY      -5.0443    XXZ     107.0339    XYZ       1.4631
       YYZ     143.9206    XZZ      51.8725    YZZ       4.4327
       ZZZ     344.3352
    Hexadecapole Moments (Debye-Ang^3)
      XXXX   -1834.4499   XXXY       3.6708   XXYY    -408.8069
      XYYY      -8.5616   YYYY    -111.7575   XXXZ    -557.4291
      XXYZ       8.4051   XYYZ    -247.7233   YYYZ      18.9666
      XXZZ    -645.4361   XYZZ     -14.0872   YYZZ    -457.5188
      XZZZ    -590.2139   YZZZ     -17.8192   ZZZZ   -2102.4748
 -----------------------------------------------------------------
Archival summary:
1\1\nid00496\OPT\ProcedureUnspecified\BasisUnspecified\286\bwood\WedMay3102:25:462017WedMay3102:25:462017\0\\#,OPT,ProcedureUnspecified,BasisUnspecified,\\0,1\S\C,1,1.73423\H,2,1.08116,1,119.895\C,2,1.37038,1,111.499,3,179.858,0\H,4,1.08408,2,123.343,1,-179.963,0\C,4,1.42401,2,112.9,1,-0.410523,0\H,6,1.08371,4,123.558,2,-178.718,0\C,6,1.38125,4,113.568,2,-0.032654,0\C,8,1.45445,6,127.721,4,178.528,0\C,9,1.38125,8,127.684,6,-10,0\H,10,1.08369,9,122.877,8,-2.84075,0\C,10,1.42399,9,113.584,8,178.363,0\H,12,1.08409,10,123.776,9,179.601,0\C,12,1.37022,10,112.89,9,-0,0\H,14,1.08125,12,128.601,10,179.475,0\S,14,1.73403,12,111.527,10,-0.394627,0\\\@

 Total job time:  66.47s(wall), 66.41s(cpu) 
 Wed May 31 02:25:46 2017

        *************************************************************
        *                                                           *
        *  Thank you very much for using Q-Chem.  Have a nice day.  *
        *                                                           *
        *************************************************************


0 sent ACK to 0 
now end server 0 ... 
