srun -N 1 --ntasks-per-node 16 --cpus-per-task 4 --cpu_bind=cores --nodelist nid00485 /global/project/projectdirs/jcesr/qchem/qc44/cnl_qc441/dist/exe/qcprog.cori.haswell.exe .pt_n2_neutral_-160.0.in.48924.qcin.1 /global/cscratch1/sd/bwood/qchem/nx/qchem48924/
Process 1 of 16 is on nid00485 - thread support 0
Process 2 of 16 is on nid00485 - thread support 0
Process 3 of 16 is on nid00485 - thread support 0
Process 4 of 16 is on nid00485 - thread support 0
Process 5 of 16 is on nid00485 - thread support 0
Process 6 of 16 is on nid00485 - thread support 0
Process 0 of 16 is on nid00485 - thread support 0
Process 15 of 16 is on nid00485 - thread support 0
initial socket setup ...start
initial socket setup ...done 
now start server 0 ... 
nid00485 10.128.1
Q-Chem Developer Version! Running on 10.128.1.*
                  Welcome to Q-Chem
     A Quantum Leap Into The Future Of Chemistry


 Q-Chem 4.4, Q-Chem, Inc., Pleasanton, CA (2016)

 Y. Shao,  Z. Gan,  E. Epifanovsky,  A. T. B. Gilbert,  M. Wormit,  
 J. Kussmann,  A. W. Lange,  A. Behn,  J. Deng,  X. Feng,  D. Ghosh,  
 M. Goldey,  P. R. Horn,  L. D. Jacobson,  I. Kaliman,  F. Rob,  
 R. Z. Khaliullin,  T. Kus,  A. Landau,  J. Liu,  E. I. Proynov,  Y. M. Rhee,  
 R. M. Richard,  M. A. Rohrdanz,  R. P. Steele,  E. J. Sundstrom,  
 H. L. Woodcock III,  P. M. Zimmerman,  D. Zuev,  B. Albrecht,  E. Alguire,  
 B. Austin,  S. A. Baeppler,  G. J. O. Beran,  Y. A. Bernard,  
 E. J. Berquist,  K. Brandhorst,  K. B. Bravaya,  S. T. Brown,  D. Casanova,  
 C.-M. Chang,  Y. Chen,  S. H. Chien,  K. D. Closser,  M. P. Coons,  
 D. L. Crittenden,  S. Dasgupta,  M. Diedenhofen,  R. A. DiStasio Jr.,  
 H. Do,  A. D. Dutoi,  R. G. Edgar,  P.-T. Fang,  S. Fatehi,  Q. Feng,  
 L. Fusti-Molnar,  A. Ghysels,  A. Golubeva-Zadorozhnaya,  J. Gomes,  
 A. Gunina,  M. W. D. Hanson-Heine,  P. H. P. Harbach,  A. W. Hauser,  
 J. E. Herr,  E. G. Hohenstein,  Z. C. Holden,  K. Hui,  T.-C. Jagau,  H. Ji,  
 B. Kaduk,  K. Khistyaev,  Jaehoon Kim,  Jihan Kim,  R. A. King,  
 P. Klunzinger,  K. Koh,  D. Kosenkov,  T. Kowalczyk,  C. M. Krauter,  
 A. Kunitsa,  K. U. Lao,  A. Laurent,  K. V. Lawler,  J. Lee,  D. Lefrancois,  
 S. Lehtola,  S. V. Levchenko,  C. Y. Lin,  Y.-S. Lin,  F. Liu,  E. Livshits,  
 R. C. Lochan,  A. Luenser,  P. Manohar,  S. F. Manzer,  S.-P. Mao,  Y. Mao,  
 N. Mardirossian,  A. V. Marenich,  L. A. Martinez-Martinez,  S. A. Maurer,  
 N. J. Mayhall,  J.-M. Mewes,  A. F. Morrison,  K. Nanda,  T. S. Nguyen-Beck,  
 C. M. Oana,  R. Olivares-Amaya,  D. P. O'Neill,  J. A. Parkhill,  
 T. M. Perrine,  R. Peverati,  P. A. Pieniazek,  F. Plasser,  A. Prociuk,  
 D. R. Rehn,  E. Rosta,  N. J. Russ,  N. Sergueev,  S. M. Sharada,  
 S. Sharma,  D. W. Small,  A. Sodt,  T. Stauch,  T. Stein,  D. Stuck,  
 Y.-C. Su,  A. J. W. Thom,  T. Tsuchimochi,  L. Vogt,  O. Vydrov,  T. Wang,  
 M. A. Watson,  J. Wenzel,  A. White,  C. F. Williams,  V. Vanovschi,  
 K. Yao,  S. Yeganeh,  S. R. Yost,  Z.-Q. You,  I. Y. Zhang,  X. Zhang,  
 Y. Zhao,  B. R. Brooks,  G. K. L. Chan,  D. M. Chipman,  C. J. Cramer,  
 W. A. Goddard III,  M. S. Gordon,  W. J. Hehre,  A. Klamt,  
 H. F. Schaefer III,  M. W. Schmidt,  C. D. Sherrill,  D. G. Truhlar,  
 A. Warshel,  X. Xu,  A. Aspuru-Guzik,  R. Baer,  A. T. Bell,  N. A. Besley,  
 J.-D. Chai,  A. Dreuw,  B. D. Dunietz,  T. R. Furlani,  S. R. Gwaltney,  
 C.-P. Hsu,  Y. Jung,  J. Kong,  D. S. Lambrecht,  W. Liang,  C. Ochsenfeld,  
 V. A. Rassolov,  L. V. Slipchenko,  J. E. Subotnik,  T. Van Voorhis,  
 J. M. Herbert,  A. I. Krylov,  P. M. W. Gill,  M. Head-Gordon

 Contributors to earlier versions of Q-Chem not listed above: 
 R. D. Adamson,  J. Baker,  E. F. C. Byrd,  A. K. Chakraborty,  C.-L. Cheng,  
 H. Dachsel,  R. J. Doerksen,  G. Hawkins,  A. Heyden,  S. Hirata,  
 G. Kedziora,  F. J. Keil,  C. Kelley,  P. P. Korambath,  W. Kurlancheek,  
 A. M. Lee,  M. S. Lee,  D. Liotard,  I. Lotan,  P. E. Maslen,  N. Nair,  
 D. Neuhauser,  R. Olson,  B. Peters,  J. Ritchie,  N. E. Schultz,  
 N. Shenvi,  A. C. Simmonett,  K. S. Thanthiriwatte,  Q. Wu,  W. Zhang

 Please cite Q-Chem as follows:
 Y. Shao et al., Mol. Phys. 113, 184-215 (2015)
 DOI: 10.1080/00268976.2014.952696

 Q-Chem 4.4.2 for Intel X86 EM64T Linux

 Parts of Q-Chem use Armadillo 5.200.1 (Boston Tea Smuggler).
 http://arma.sourceforge.net/

 Q-Chem begins on Wed May 31 02:24:49 2017  

Host: nid00447
0

     Scratch files written to /global/cscratch1/sd/bwood/qchem/nx/qchem48924.0//
 Parallel job on  16  processors

Checking the input file for inconsistencies... 	...done.

--------------------------------------------------------------
User input:
--------------------------------------------------------------
$molecule
 0  1
 S           0.00238887        0.06077275        0.00183269
 C           1.73707619        0.03315849        0.00323229
 H           2.27612737        0.05289032        0.94042557
 C           2.24169204       -0.01546201       -1.26965798
 H           3.30285780       -0.04005365       -1.48972496
 C           1.22479222       -0.01612968       -2.26811464
 H           1.42674790       -0.02650987       -3.33334501
 C          -0.05393771        0.02880388       -1.75170966
 C          -1.32450815        0.04889988       -2.45636342
 C          -2.56197067        0.45846879       -2.00361819
 H          -2.72130935        0.85103849       -1.00546075
 C          -3.59159078        0.34556404       -2.98240298
 H          -4.62344632        0.62810239       -2.80764354
 C          -3.13747385       -0.14735346       -4.17736923
 H          -3.69488357       -0.32643696       -5.08660230
 S          -1.43976591       -0.49948744       -4.11970909
$end


$rem
         jobtype = opt
        exchange = b3lyp
           basis = 6-31++g**
  max_scf_cycles = 150
      mem_static = 775
       mem_total = 7750
      sym_ignore = true
        symmetry = false
          thresh = 12
$end


$opt
CONSTRAINT
tors 6 8 9 10 -160.0
ENDCONSTRAINT
$end

--------------------------------------------------------------
 ----------------------------------------------------------------
             Standard Nuclear Orientation (Angstroms)
    I     Atom           X                Y                Z
 ----------------------------------------------------------------
    1      S       0.0023888700     0.0607727500     0.0018326900
    2      C       1.7370761900     0.0331584900     0.0032322900
    3      H       2.2761273700     0.0528903200     0.9404255700
    4      C       2.2416920400    -0.0154620100    -1.2696579800
    5      H       3.3028578000    -0.0400536500    -1.4897249600
    6      C       1.2247922200    -0.0161296800    -2.2681146400
    7      H       1.4267479000    -0.0265098700    -3.3333450100
    8      C      -0.0539377100     0.0288038800    -1.7517096600
    9      C      -1.3245081500     0.0488998800    -2.4563634200
   10      C      -2.5619706700     0.4584687900    -2.0036181900
   11      H      -2.7213093500     0.8510384900    -1.0054607500
   12      C      -3.5915907800     0.3455640400    -2.9824029800
   13      H      -4.6234463200     0.6281023900    -2.8076435400
   14      C      -3.1374738500    -0.1473534600    -4.1773692300
   15      H      -3.6948835700    -0.3264369600    -5.0866023000
   16      S      -1.4397659100    -0.4994874400    -4.1197090900
 ----------------------------------------------------------------
 Nuclear Repulsion Energy =   629.0604574521 hartrees
 There are       43 alpha and       43 beta electrons
 Requested basis set is 6-31++G(d,p)
 There are 76 shells and 234 basis functions

 Total QAlloc Memory Limit   7750 MB
 Mega-Array Size       758 MB
 MEM_STATIC part       775 MB
 A cutoff of  1.0D-12 yielded   2529 shell pairs
 There are     24905 function pairs

 Q-Chem warning in module /project/projectdirs/jcesr/qchem/qc44/cnl_qc441/compile/cori/qc_src/libqints/qchem/aobasis.C, line 68:

 Using reconstructed effective core potential

 
 -------------------------------------------------------
 OpenMP Integral Computing Module                       
 Release: version 1.0, May 2013, Q-Chem Inc. Pittsburgh 
 -------------------------------------------------------
 Integral Job Info:
 Integral job number is                      11
 Integral operator is                         1
 short-range coefficients                     0
 long-range coefficients              100000000
 Omega coefficients                           0
 if combine SR and LR in K                    0
 Integral screening is                        0
 Integral computing path is                   2
 max size of driver memory is            800000
 size of driver memory is                593474
 size of scratch memory is             15166112
 max col of scratch BK array               1296
 max len of scratch array in speh3          155
 max len of scratch index in speh4           18
 max int batch size is                      520
 min int batch size is                       52
 fixed nKL is                                52
 max L of basis functions is                  2
 order of int derivative is                   0
 number of shells is                         76
 number of basis is                         234
 number of cartesian basis is               234
 number of contracted shell pairs          2529
 number of primitive shell pairs           8260
 maxK2 (contraction) of shell pair           36
 max number of K2 of shell pair               1
 max number of CS2 of shell pair            266
 max number of PS2 of shell pair           1524
 mem total for path MDJ                   51992
 -------------------------------------------------------
 Smallest overlap matrix eigenvalue = 9.45E-07
 Linear dependence detected in AO basis
 Number of orthogonalized atomic orbitals = 233
 Maximum deviation from orthogonality = 9.310E-11

 Scale SEOQF with 1.000000e-01/1.000000e-01/1.000000e-01

 Standard Electronic Orientation quadrupole field applied
 Nucleus-field energy     =    -0.0000000515 hartrees
 Guess from superposition of atomic densities
 Warning:  Energy on first SCF cycle will be non-variational
 A restricted hybrid HF-DFT SCF calculation will be
 performed using Pulay DIIS extrapolation
 Exchange:     0.2000 Hartree-Fock + 0.0800 Slater + 0.7200 B88
 Correlation:  0.1900 VWN1RPA + 0.8100 LYP
 Using SG-1 standard quadrature grid
 SCF converges when DIIS error is below 1.0E-08
 ---------------------------------------
  Cycle       Energy         DIIS Error
 ---------------------------------------
    1   -1107.1624315742      4.41E-02
    2   -1104.6667357557      4.76E-03
    3   -1104.4606224631      6.90E-03
    4   -1104.8348720977      8.56E-04
    5   -1104.8388653898      5.11E-04
    6   -1104.8405524093      1.71E-04
    7   -1104.8407315396      8.00E-05
    8   -1104.8407772995      1.19E-05
    9   -1104.8407783752      2.17E-06
   10   -1104.8407784022      1.25E-06
   11   -1104.8407784132      3.92E-07
   12   -1104.8407784146      1.75E-07
   13   -1104.8407784140      2.39E-08
   14   -1104.8407784142      1.64E-08
   15   -1104.8407784142      3.20E-09 Convergence criterion met
 ---------------------------------------
 SCF time:  CPU 8.31 s  wall 7.91 s
 SCF   energy in the final basis set = -1104.8407784142
 Total energy in the final basis set = -1104.8407784142
 
 --------------------------------------------------------------
 
                    Orbital Energies (a.u.)
 --------------------------------------------------------------
 
 Alpha MOs
 -- Occupied --
-88.920 -88.920 -10.239 -10.239 -10.225 -10.225 -10.205 -10.205
-10.203 -10.203  -7.979  -7.979  -5.944  -5.944  -5.940  -5.940
 -5.936  -5.936  -0.900  -0.878  -0.772  -0.749  -0.737  -0.706
 -0.604  -0.581  -0.552  -0.534  -0.527  -0.478  -0.420  -0.418
 -0.408  -0.405  -0.401  -0.378  -0.374  -0.358  -0.344  -0.281
 -0.264  -0.259  -0.213
 -- Virtual --
 -0.058  -0.006  -0.004  -0.002   0.008   0.009   0.017   0.022
  0.032   0.035   0.038   0.048   0.049   0.053   0.061   0.064
  0.074   0.084   0.085   0.096   0.098   0.102   0.107   0.109
  0.120   0.125   0.127   0.132   0.132   0.140   0.141   0.141
  0.147   0.157   0.161   0.165   0.169   0.173   0.181   0.186
  0.187   0.202   0.207   0.211   0.218   0.218   0.222   0.225
  0.252   0.254   0.256   0.265   0.266   0.279   0.284   0.300
  0.317   0.320   0.344   0.351   0.351   0.373   0.391   0.406
  0.454   0.465   0.513   0.517   0.542   0.550   0.566   0.585
  0.609   0.614   0.630   0.649   0.656   0.659   0.669   0.681
  0.700   0.718   0.726   0.727   0.741   0.749   0.774   0.785
  0.818   0.819   0.826   0.847   0.866   0.920   0.939   0.947
  0.953   0.955   0.960   0.967   0.982   0.993   0.994   1.018
  1.030   1.041   1.067   1.096   1.106   1.117   1.146   1.157
  1.169   1.178   1.207   1.249   1.260   1.317   1.340   1.347
  1.352   1.357   1.374   1.466   1.468   1.511   1.531   1.584
  1.679   1.692   1.731   1.801   1.862   1.871   1.885   1.916
  1.922   1.938   1.962   2.007   2.048   2.070   2.085   2.116
  2.166   2.178   2.180   2.225   2.244   2.253   2.335   2.362
  2.366   2.417   2.453   2.456   2.466   2.492   2.507   2.528
  2.533   2.565   2.585   2.608   2.666   2.691   2.719   2.748
  2.858   2.869   2.925   2.935   3.145   3.205   3.267   3.274
  3.399   3.427   3.721   3.742   3.973   3.980   4.239   4.295
  4.306   4.319   4.410   4.533   4.658   4.715
 --------------------------------------------------------------
 
          Ground-State Mulliken Net Atomic Charges

     Atom                 Charge (a.u.)
  ----------------------------------------
      1 S                    -0.104487
      2 C                     0.014461
      3 H                     0.196414
      4 C                    -0.355288
      5 H                     0.119967
      6 C                     0.372100
      7 H                     0.122617
      8 C                    -0.367258
      9 C                    -0.364504
     10 C                     0.372727
     11 H                     0.122812
     12 C                    -0.355576
     13 H                     0.119902
     14 C                     0.014915
     15 H                     0.196382
     16 S                    -0.105182
  ----------------------------------------
  Sum of atomic charges =     0.000000

 -----------------------------------------------------------------
                    Cartesian Multipole Moments
 -----------------------------------------------------------------
    Charge (ESU x 10^10)
                 0.0000
    Dipole Moment (Debye)
         X       0.0260      Y       0.2289      Z      -0.0399
       Tot       0.2338
    Quadrupole Moments (Debye-Ang)
        XX     -62.5559     XY      -1.3998     YY     -78.1685
        XZ       3.3119     YZ       1.1083     ZZ     -67.1964
    Octopole Moments (Debye-Ang^2)
       XXX     132.0040    XXY       7.0286    XYY      52.0865
       YYY       2.5047    XXZ     124.8386    XYZ      -1.2994
       YYZ     163.6355    XZZ      33.6828    YZZ      -7.4964
       ZZZ     424.2929
    Hexadecapole Moments (Debye-Ang^3)
      XXXX   -1594.7587   XXXY     -19.8727   XXYY    -350.0108
      XYYY      14.2759   YYYY    -141.5132   XXXZ    -606.7595
      XXYZ     -17.5340   XYYZ    -255.6292   YYYZ     -55.4890
      XXZZ    -671.5324   XYZZ      26.9380   YYZZ    -575.0423
      XZZZ    -572.6051   YZZZ      -2.1599   ZZZZ   -2867.4982
 -----------------------------------------------------------------
 Calculating analytic gradient of the SCF energy
 Gradient of SCF Energy
            1           2           3           4           5           6
    1   0.0000063  -0.0001778   0.0000330   0.0000149   0.0000200  -0.0000251
    2  -0.0000172   0.0000998   0.0000494  -0.0001161  -0.0000017  -0.0002539
    3  -0.0000938   0.0001399   0.0000095  -0.0000279   0.0000097  -0.0001052
            7           8           9          10          11          12
    1  -0.0001110   0.0004274  -0.0003860  -0.0000374   0.0001337  -0.0000405
    2   0.0000612   0.0001440   0.0002919  -0.0003297   0.0001098   0.0000098
    3  -0.0000222   0.0001817  -0.0002890   0.0002188   0.0000092   0.0000645
           13          14          15          16
    1  -0.0000058   0.0001702  -0.0000230   0.0000011
    2   0.0000230  -0.0000831   0.0000549  -0.0000422
    3  -0.0000252  -0.0001670  -0.0000169   0.0001139
 Max gradient component =       4.274E-04
 RMS gradient           =       1.453E-04
 Gradient time:  CPU 2.08 s  wall 2.10 s
 Geometry Optimization Parameters
   NAtoms,    NIC,     NZ,  NCons,   NDum,   NFix, NCnnct, MaxDiis
       16     111       0       1       0       0       0       0


** CONSTRAINED OPTIMIZATION IN DELOCALIZED INTERNAL COORDINATES **
   Searching for a Minimum

   Optimization Cycle:   1

                       Coordinates (Angstroms)
     ATOM                X               Y               Z
      1  S         0.0023888700    0.0607727500    0.0018326900
      2  C         1.7370761900    0.0331584900    0.0032322900
      3  H         2.2761273700    0.0528903200    0.9404255700
      4  C         2.2416920400   -0.0154620100   -1.2696579800
      5  H         3.3028578000   -0.0400536500   -1.4897249600
      6  C         1.2247922200   -0.0161296800   -2.2681146400
      7  H         1.4267479000   -0.0265098700   -3.3333450100
      8  C        -0.0539377100    0.0288038800   -1.7517096600
      9  C        -1.3245081500    0.0488998800   -2.4563634200
     10  C        -2.5619706700    0.4584687900   -2.0036181900
     11  H        -2.7213093500    0.8510384900   -1.0054607500
     12  C        -3.5915907800    0.3455640400   -2.9824029800
     13  H        -4.6234463200    0.6281023900   -2.8076435400
     14  C        -3.1374738500   -0.1473534600   -4.1773692300
     15  H        -3.6948835700   -0.3264369600   -5.0866023000
     16  S        -1.4397659100   -0.4994874400   -4.1197090900
   Point Group: c1    Number of degrees of freedom:    42


   Energy is  -1104.840778414

              Constraints and their Current Values
                                        Value     Constraint
   Dihedral:        6   8   9  10     -160.000     -160.000

 Attempting to Generate Delocalized Internal Coordinates

 41 Hessian modes will be used to form the next step
  Hessian Eigenvalues:
     0.045000    0.045000    0.045000    0.045000    0.045000    0.045000
     0.045002    0.045002    0.045003    0.045004    0.045011    0.045012
     0.159943    0.159949    0.159991    0.159992    0.160000    0.160000
     0.221282    0.221282    0.237835    0.237839    0.250000    0.250000
     0.294264    0.294663    0.312518    0.312618    0.354736    0.354850
     0.355125    0.355132    0.358226    0.358329    0.378510    0.404854
     0.404909    0.463547    0.463616    0.497922    0.497945

 Minimum Search - Taking Simple RFO Step
 Searching for Lamda that Minimizes Along All modes
 Value Taken    Lamda =  -0.00000240
 Step Taken.  Stepsize is  0.005612

                             Maximum     Tolerance    Cnvgd?
         Gradient           0.000307      0.000300      NO
         Displacement       0.003359      0.001200      NO
         Energy change     *********      0.000001      NO


 New Cartesian Coordinates Obtained by Inverse Iteration

 Displacement from previous Coordinates is:  0.010431
 ----------------------------------------------------------------
             Standard Nuclear Orientation (Angstroms)
    I     Atom           X                Y                Z
 ----------------------------------------------------------------
    1      S       0.0026157247     0.0613785813     0.0019511990
    2      C       1.7374244710     0.0321184926     0.0032777239
    3      H       2.2763426437     0.0503056979     0.9405366228
    4      C       2.2419276408    -0.0152633090    -1.2695254394
    5      H       3.3030174561    -0.0406017521    -1.4897361328
    6      C       1.2249968338    -0.0151005114    -2.2678143998
    7      H       1.4278388661    -0.0259224372    -3.3328685164
    8      C      -0.0540239842     0.0300286333    -1.7517646171
    9      C      -1.3241694656     0.0500980625    -2.4565856409
   10      C      -2.5619444029     0.4598327719    -2.0043848381
   11      H      -2.7223831326     0.8520029130    -1.0062935883
   12      C      -3.5918119689     0.3456622743    -2.9826192369
   13      H      -4.6238414386     0.6272341242    -2.8074015465
   14      C      -3.1379322108    -0.1480379626    -4.1771271606
   15      H      -3.6955282433    -0.3289804773    -5.0858485422
   16      S      -1.4397327093    -0.4984891414    -4.1200270865
 ----------------------------------------------------------------
 Nuclear Repulsion Energy =   629.0334135326 hartrees
 There are       43 alpha and       43 beta electrons
 Applying Cartesian multipole field
    Component          Value
    ---------          -----
     (2,0,0)        1.00000E-11
     (0,2,0)        2.00000E-11
     (0,0,2)       -3.00000E-11
 Nucleus-field energy     =    -0.0000000515 hartrees
 Requested basis set is 6-31++G(d,p)
 There are 76 shells and 234 basis functions
 A cutoff of  1.0D-12 yielded   2529 shell pairs
 There are     24905 function pairs

 Q-Chem warning in module /project/projectdirs/jcesr/qchem/qc44/cnl_qc441/compile/cori/qc_src/libqints/qchem/aobasis.C, line 68:

 Using reconstructed effective core potential

 Smallest overlap matrix eigenvalue = 9.46E-07
 Linear dependence detected in AO basis
 Number of orthogonalized atomic orbitals = 233
 Maximum deviation from orthogonality = 8.219E-11
 Guess MOs from SCF MO coefficient file
 Reading MOs from coefficient file
 Reading MOs from coefficient file
 A restricted hybrid HF-DFT SCF calculation will be
 performed using Pulay DIIS extrapolation
 Exchange:     0.2000 Hartree-Fock + 0.0800 Slater + 0.7200 B88
 Correlation:  0.1900 VWN1RPA + 0.8100 LYP
 Using SG-1 standard quadrature grid
 SCF converges when DIIS error is below 1.0E-08
 Geometry optimization detected.  Setting ReadMinima to 0
 Setting SaveMinima to 0
 ---------------------------------------
  Cycle       Energy         DIIS Error
 ---------------------------------------
    1   -1104.8408675331      3.80E-05
    2   -1104.8407797485      4.29E-06
    3   -1104.8407793961      8.32E-06
    4   -1104.8407799016      1.20E-06
    5   -1104.8407799100      4.64E-07
    6   -1104.8407799123      1.83E-07
    7   -1104.8407799143      7.04E-08
    8   -1104.8407799146      2.04E-08
    9   -1104.8407799147      4.65E-09 Convergence criterion met
 ---------------------------------------
 SCF time:  CPU 4.90 s  wall 4.58 s
 SCF   energy in the final basis set = -1104.8407799147
 Total energy in the final basis set = -1104.8407799147
 
 --------------------------------------------------------------
 
                    Orbital Energies (a.u.)
 --------------------------------------------------------------
 
 Alpha MOs
 -- Occupied --
-88.920 -88.920 -10.239 -10.239 -10.225 -10.225 -10.205 -10.205
-10.203 -10.203  -7.979  -7.979  -5.944  -5.944  -5.940  -5.940
 -5.936  -5.936  -0.900  -0.878  -0.772  -0.749  -0.737  -0.706
 -0.604  -0.581  -0.552  -0.534  -0.527  -0.478  -0.420  -0.418
 -0.408  -0.405  -0.401  -0.378  -0.374  -0.358  -0.344  -0.281
 -0.264  -0.259  -0.213
 -- Virtual --
 -0.058  -0.006  -0.004  -0.002   0.007   0.009   0.017   0.022
  0.032   0.035   0.038   0.048   0.049   0.053   0.061   0.064
  0.074   0.084   0.085   0.096   0.098   0.102   0.107   0.109
  0.120   0.125   0.127   0.132   0.132   0.140   0.141   0.141
  0.147   0.157   0.161   0.165   0.169   0.173   0.181   0.186
  0.187   0.202   0.207   0.211   0.218   0.218   0.222   0.225
  0.252   0.254   0.257   0.265   0.266   0.279   0.284   0.300
  0.317   0.320   0.344   0.351   0.351   0.373   0.391   0.406
  0.454   0.465   0.513   0.517   0.542   0.550   0.566   0.585
  0.609   0.614   0.630   0.649   0.656   0.659   0.669   0.681
  0.700   0.718   0.726   0.727   0.741   0.749   0.774   0.785
  0.818   0.819   0.826   0.847   0.866   0.920   0.939   0.947
  0.953   0.955   0.960   0.967   0.982   0.993   0.994   1.018
  1.030   1.041   1.067   1.096   1.106   1.117   1.146   1.157
  1.169   1.178   1.207   1.250   1.260   1.317   1.341   1.347
  1.352   1.357   1.374   1.466   1.467   1.511   1.531   1.584
  1.679   1.692   1.731   1.802   1.862   1.871   1.885   1.916
  1.922   1.938   1.962   2.007   2.048   2.069   2.085   2.116
  2.166   2.178   2.180   2.225   2.244   2.254   2.335   2.362
  2.366   2.417   2.453   2.456   2.466   2.492   2.507   2.528
  2.533   2.565   2.585   2.608   2.666   2.691   2.719   2.748
  2.858   2.869   2.925   2.935   3.145   3.205   3.267   3.274
  3.400   3.427   3.721   3.742   3.973   3.980   4.239   4.295
  4.306   4.319   4.410   4.533   4.658   4.715
 --------------------------------------------------------------
 
          Ground-State Mulliken Net Atomic Charges

     Atom                 Charge (a.u.)
  ----------------------------------------
      1 S                    -0.104187
      2 C                     0.014678
      3 H                     0.196443
      4 C                    -0.355132
      5 H                     0.119962
      6 C                     0.371068
      7 H                     0.122552
      8 C                    -0.366863
      9 C                    -0.363643
     10 C                     0.370862
     11 H                     0.122745
     12 C                    -0.354832
     13 H                     0.119905
     14 C                     0.014876
     15 H                     0.196405
     16 S                    -0.104840
  ----------------------------------------
  Sum of atomic charges =     0.000000

 -----------------------------------------------------------------
                    Cartesian Multipole Moments
 -----------------------------------------------------------------
    Charge (ESU x 10^10)
                 0.0000
    Dipole Moment (Debye)
         X       0.0255      Y       0.2248      Z      -0.0392
       Tot       0.2297
    Quadrupole Moments (Debye-Ang)
        XX     -62.5391     XY      -1.3963     YY     -78.1691
        XZ       3.3131     YZ       1.1163     ZZ     -67.2076
    Octopole Moments (Debye-Ang^2)
       XXX     131.9335    XXY       6.9336    XYY      52.0789
       YYY       2.3925    XXZ     124.8091    XYZ      -1.3507
       YYZ     163.6393    XZZ      33.6923    YZZ      -7.5876
       ZZZ     424.3888
    Hexadecapole Moments (Debye-Ang^3)
      XXXX   -1594.6270   XXXY     -19.6324   XXYY    -350.0391
      XYYY      14.3922   YYYY    -141.5087   XXXZ    -606.6964
      XXYZ     -17.2435   XYYZ    -255.6372   YYYZ     -55.2074
      XXZZ    -671.5521   XYZZ      27.1989   YYZZ    -575.0647
      XZZZ    -572.8250   YZZZ      -1.6320   ZZZZ   -2868.2480
 -----------------------------------------------------------------
 Calculating analytic gradient of the SCF energy
 Gradient of SCF Energy
            1           2           3           4           5           6
    1   0.0000068  -0.0000396   0.0000190   0.0000167   0.0000025   0.0000242
    2   0.0000340   0.0000172   0.0000214  -0.0000134  -0.0000087  -0.0002374
    3  -0.0000639   0.0000163  -0.0000140   0.0000165   0.0000150  -0.0000060
            7           8           9          10          11          12
    1  -0.0000328   0.0000632  -0.0000261  -0.0000821   0.0000498  -0.0000119
    2   0.0000292   0.0001281   0.0001683  -0.0002359   0.0000727   0.0000153
    3   0.0000059   0.0001000  -0.0001621   0.0000942  -0.0000346  -0.0000164
           13          14          15          16
    1  -0.0000012   0.0000278  -0.0000168   0.0000006
    2   0.0000094  -0.0000461   0.0000239   0.0000219
    3  -0.0000219  -0.0000089   0.0000089   0.0000709
 Max gradient component =       2.374E-04
 RMS gradient           =       7.144E-05
 Gradient time:  CPU 2.06 s  wall 2.07 s
 Geometry Optimization Parameters
   NAtoms,    NIC,     NZ,  NCons,   NDum,   NFix, NCnnct, MaxDiis
       16     111       0       1       0       0       0       0

 Cartesian Hessian Update
 Hessian Updated using BFGS Update


** CONSTRAINED OPTIMIZATION IN DELOCALIZED INTERNAL COORDINATES **
   Searching for a Minimum

   Optimization Cycle:   2

                       Coordinates (Angstroms)
     ATOM                X               Y               Z
      1  S         0.0026157247    0.0613785813    0.0019511990
      2  C         1.7374244710    0.0321184926    0.0032777239
      3  H         2.2763426437    0.0503056979    0.9405366228
      4  C         2.2419276408   -0.0152633090   -1.2695254394
      5  H         3.3030174561   -0.0406017521   -1.4897361328
      6  C         1.2249968338   -0.0151005114   -2.2678143998
      7  H         1.4278388661   -0.0259224372   -3.3328685164
      8  C        -0.0540239842    0.0300286333   -1.7517646171
      9  C        -1.3241694656    0.0500980625   -2.4565856409
     10  C        -2.5619444029    0.4598327719   -2.0043848381
     11  H        -2.7223831326    0.8520029130   -1.0062935883
     12  C        -3.5918119689    0.3456622743   -2.9826192369
     13  H        -4.6238414386    0.6272341242   -2.8074015465
     14  C        -3.1379322108   -0.1480379626   -4.1771271606
     15  H        -3.6955282433   -0.3289804773   -5.0858485422
     16  S        -1.4397327093   -0.4984891414   -4.1200270865
   Point Group: c1    Number of degrees of freedom:    42


   Energy is  -1104.840779915

              Constraints and their Current Values
                                        Value     Constraint
   Dihedral:        6   8   9  10     -160.000     -160.000
 Hessian Updated using BFGS Update

 35 Hessian modes will be used to form the next step
  Hessian Eigenvalues:
     0.032000    0.045000    0.045001    0.045005    0.045011    0.048011
     0.148417    0.159947    0.159992    0.159993    0.160000    0.161837
     0.221277    0.222919    0.237828    0.246314    0.249360    0.250678
     0.286823    0.294498    0.312328    0.312587    0.354799    0.355019
     0.355131    0.355499    0.358257    0.358640    0.370343    0.404259
     0.404882    0.463585    0.480831    0.497929    0.503377

 Minimum Search - Taking Simple RFO Step
 Searching for Lamda that Minimizes Along All modes
 Value Taken    Lamda =   0.00000000
 Step Taken.  Stepsize is  0.003467

                             Maximum     Tolerance    Cnvgd?
         Gradient           0.000069      0.000300     YES
         Displacement       0.001789      0.001200      NO
         Energy change     -0.000002      0.000001      NO


 New Cartesian Coordinates Obtained by Inverse Iteration

 Displacement from previous Coordinates is:  0.005013
 ----------------------------------------------------------------
             Standard Nuclear Orientation (Angstroms)
    I     Atom           X                Y                Z
 ----------------------------------------------------------------
    1      S       0.0025735129     0.0615713959     0.0019959324
    2      C       1.7374118619     0.0317345094     0.0032806730
    3      H       2.2761328079     0.0491281816     0.9406707414
    4      C       2.2418707033    -0.0151798987    -1.2695480735
    5      H       3.3029178743    -0.0410382156    -1.4898823164
    6      C       1.2250023699    -0.0144166713    -2.2678350650
    7      H       1.4282700576    -0.0257555925    -3.3328239862
    8      C      -0.0540602649     0.0308112070    -1.7518777496
    9      C      -1.3239741166     0.0507887603    -2.4567225782
   10      C      -2.5617702807     0.4606245602    -2.0046490819
   11      H      -2.7227765996     0.8522264388    -1.0064038978
   12      C      -3.5917351435     0.3457701160    -2.9826325871
   13      H      -4.6238487634     0.6267974677    -2.8070519525
   14      C      -3.1379759802    -0.1482516867    -4.1770396168
   15      H      -3.6955999675    -0.3303148667    -5.0855243743
   16      S      -1.4396419914    -0.4982297456    -4.1201872676
 ----------------------------------------------------------------
 Nuclear Repulsion Energy =   629.0269120715 hartrees
 There are       43 alpha and       43 beta electrons
 Applying Cartesian multipole field
    Component          Value
    ---------          -----
     (2,0,0)        1.00000E-11
     (0,2,0)        2.00000E-11
     (0,0,2)       -3.00000E-11
 Nucleus-field energy     =    -0.0000000515 hartrees
 Requested basis set is 6-31++G(d,p)
 There are 76 shells and 234 basis functions
 A cutoff of  1.0D-12 yielded   2529 shell pairs
 There are     24905 function pairs

 Q-Chem warning in module /project/projectdirs/jcesr/qchem/qc44/cnl_qc441/compile/cori/qc_src/libqints/qchem/aobasis.C, line 68:

 Using reconstructed effective core potential

 Smallest overlap matrix eigenvalue = 9.46E-07
 Linear dependence detected in AO basis
 Number of orthogonalized atomic orbitals = 233
 Maximum deviation from orthogonality = 7.541E-11
 Guess MOs from SCF MO coefficient file
 Reading MOs from coefficient file
 Reading MOs from coefficient file
 A restricted hybrid HF-DFT SCF calculation will be
 performed using Pulay DIIS extrapolation
 Exchange:     0.2000 Hartree-Fock + 0.0800 Slater + 0.7200 B88
 Correlation:  0.1900 VWN1RPA + 0.8100 LYP
 Using SG-1 standard quadrature grid
 SCF converges when DIIS error is below 1.0E-08
 Geometry optimization detected.  Setting ReadMinima to 0
 Setting SaveMinima to 0
 ---------------------------------------
  Cycle       Energy         DIIS Error
 ---------------------------------------
    1   -1104.8408471634      1.71E-05
    2   -1104.8407801274      2.15E-06
    3   -1104.8407800322      4.26E-06
    4   -1104.8407801684      5.67E-07
    5   -1104.8407801705      2.52E-07
    6   -1104.8407801688      7.41E-08
    7   -1104.8407801698      3.94E-08
    8   -1104.8407801700      5.80E-09 Convergence criterion met
 ---------------------------------------
 SCF time:  CPU 4.44 s  wall 4.33 s
 SCF   energy in the final basis set = -1104.8407801700
 Total energy in the final basis set = -1104.8407801700
 
 --------------------------------------------------------------
 
                    Orbital Energies (a.u.)
 --------------------------------------------------------------
 
 Alpha MOs
 -- Occupied --
-88.920 -88.920 -10.239 -10.239 -10.225 -10.225 -10.205 -10.205
-10.203 -10.203  -7.979  -7.979  -5.944  -5.944  -5.940  -5.940
 -5.936  -5.936  -0.900  -0.878  -0.772  -0.749  -0.737  -0.706
 -0.604  -0.581  -0.552  -0.534  -0.527  -0.478  -0.420  -0.418
 -0.408  -0.405  -0.401  -0.378  -0.374  -0.358  -0.344  -0.281
 -0.264  -0.259  -0.213
 -- Virtual --
 -0.058  -0.006  -0.004  -0.002   0.007   0.009   0.017   0.022
  0.032   0.035   0.038   0.048   0.049   0.053   0.061   0.064
  0.074   0.084   0.085   0.096   0.098   0.102   0.107   0.109
  0.120   0.124   0.127   0.132   0.132   0.140   0.141   0.141
  0.147   0.157   0.161   0.165   0.169   0.173   0.181   0.186
  0.187   0.202   0.207   0.211   0.218   0.218   0.222   0.225
  0.252   0.254   0.257   0.265   0.266   0.279   0.284   0.300
  0.317   0.320   0.344   0.351   0.351   0.373   0.391   0.406
  0.454   0.465   0.513   0.517   0.542   0.550   0.566   0.585
  0.609   0.614   0.630   0.649   0.656   0.659   0.669   0.681
  0.700   0.718   0.726   0.727   0.741   0.749   0.774   0.785
  0.818   0.819   0.826   0.847   0.866   0.920   0.939   0.947
  0.953   0.955   0.960   0.967   0.982   0.993   0.994   1.018
  1.030   1.041   1.067   1.096   1.106   1.117   1.146   1.157
  1.169   1.178   1.207   1.250   1.260   1.317   1.341   1.347
  1.352   1.356   1.374   1.466   1.467   1.510   1.532   1.584
  1.679   1.692   1.731   1.802   1.862   1.871   1.885   1.916
  1.922   1.938   1.962   2.007   2.048   2.069   2.085   2.116
  2.166   2.178   2.180   2.225   2.244   2.254   2.335   2.362
  2.366   2.417   2.453   2.456   2.466   2.492   2.507   2.528
  2.533   2.565   2.585   2.608   2.666   2.692   2.719   2.748
  2.858   2.869   2.925   2.935   3.145   3.205   3.267   3.274
  3.400   3.427   3.721   3.742   3.973   3.980   4.239   4.295
  4.306   4.319   4.410   4.533   4.658   4.715
 --------------------------------------------------------------
 
          Ground-State Mulliken Net Atomic Charges

     Atom                 Charge (a.u.)
  ----------------------------------------
      1 S                    -0.103979
      2 C                     0.014692
      3 H                     0.196461
      4 C                    -0.354915
      5 H                     0.119950
      6 C                     0.370220
      7 H                     0.122518
      8 C                    -0.366505
      9 C                    -0.362704
     10 C                     0.369306
     11 H                     0.122703
     12 C                    -0.354188
     13 H                     0.119903
     14 C                     0.014632
     15 H                     0.196412
     16 S                    -0.104506
  ----------------------------------------
  Sum of atomic charges =     0.000000

 -----------------------------------------------------------------
                    Cartesian Multipole Moments
 -----------------------------------------------------------------
    Charge (ESU x 10^10)
                 0.0000
    Dipole Moment (Debye)
         X       0.0250      Y       0.2216      Z      -0.0386
       Tot       0.2263
    Quadrupole Moments (Debye-Ang)
        XX     -62.5357     XY      -1.3934     YY     -78.1698
        XZ       3.3104     YZ       1.1241     ZZ     -67.2116
    Octopole Moments (Debye-Ang^2)
       XXX     131.9071    XXY       6.8768    XYY      52.0769
       YYY       2.3337    XXZ     124.8127    XYZ      -1.3809
       YYZ     163.6411    XZZ      33.7103    YZZ      -7.6498
       ZZZ     424.4318
    Hexadecapole Moments (Debye-Ang^3)
      XXXX   -1594.4936   XXXY     -19.4982   XXYY    -350.0282
      XYYY      14.4505   YYYY    -141.5287   XXXZ    -606.7034
      XXYZ     -17.0726   XYYZ    -255.6244   YYYZ     -55.0703
      XXZZ    -671.6014   XYZZ      27.3528   YYZZ    -575.0729
      XZZZ    -572.9257   YZZZ      -1.3053   ZZZZ   -2868.5942
 -----------------------------------------------------------------
 Calculating analytic gradient of the SCF energy
 Gradient of SCF Energy
            1           2           3           4           5           6
    1  -0.0000006  -0.0000057   0.0000015  -0.0000081  -0.0000045   0.0000114
    2   0.0000320   0.0000065   0.0000102   0.0000125  -0.0000184  -0.0001974
    3   0.0000015  -0.0000010  -0.0000018  -0.0000098   0.0000043   0.0000063
            7           8           9          10          11          12
    1   0.0000070  -0.0000553   0.0000869  -0.0000550   0.0000021   0.0000168
    2  -0.0000022   0.0001397   0.0001372  -0.0001658   0.0000466   0.0000222
    3   0.0000002   0.0000374  -0.0000859   0.0000573  -0.0000178   0.0000018
           13          14          15          16
    1   0.0000030   0.0000014  -0.0000022   0.0000011
    2   0.0000022  -0.0000215  -0.0000045   0.0000006
    3  -0.0000042   0.0000104   0.0000030  -0.0000017
 Max gradient component =       1.974E-04
 RMS gradient           =       5.334E-05
 Gradient time:  CPU 2.07 s  wall 2.07 s
 Geometry Optimization Parameters
   NAtoms,    NIC,     NZ,  NCons,   NDum,   NFix, NCnnct, MaxDiis
       16     111       0       1       0       0       0       0

 Cartesian Hessian Update
 Hessian Updated using BFGS Update


** CONSTRAINED OPTIMIZATION IN DELOCALIZED INTERNAL COORDINATES **
   Searching for a Minimum

   Optimization Cycle:   3

                       Coordinates (Angstroms)
     ATOM                X               Y               Z
      1  S         0.0025735129    0.0615713959    0.0019959324
      2  C         1.7374118619    0.0317345094    0.0032806730
      3  H         2.2761328079    0.0491281816    0.9406707414
      4  C         2.2418707033   -0.0151798987   -1.2695480735
      5  H         3.3029178743   -0.0410382156   -1.4898823164
      6  C         1.2250023699   -0.0144166713   -2.2678350650
      7  H         1.4282700576   -0.0257555925   -3.3328239862
      8  C        -0.0540602649    0.0308112070   -1.7518777496
      9  C        -1.3239741166    0.0507887603   -2.4567225782
     10  C        -2.5617702807    0.4606245602   -2.0046490819
     11  H        -2.7227765996    0.8522264388   -1.0064038978
     12  C        -3.5917351435    0.3457701160   -2.9826325871
     13  H        -4.6238487634    0.6267974677   -2.8070519525
     14  C        -3.1379759802   -0.1482516867   -4.1770396168
     15  H        -3.6955999675   -0.3303148667   -5.0855243743
     16  S        -1.4396419914   -0.4982297456   -4.1201872676
   Point Group: c1    Number of degrees of freedom:    42


   Energy is  -1104.840780170

              Constraints and their Current Values
                                        Value     Constraint
   Dihedral:        6   8   9  10     -160.000     -160.000
 Hessian Updated using BFGS Update

 38 Hessian modes will be used to form the next step
  Hessian Eigenvalues:
     0.024405    0.045000    0.045000    0.045001    0.045002    0.045004
     0.045011    0.045398    0.048477    0.153932    0.159947    0.159992
     0.160000    0.160053    0.162437    0.221273    0.222854    0.237824
     0.246152    0.250660    0.251512    0.290709    0.294498    0.312388
     0.312585    0.354832    0.355128    0.355204    0.355599    0.358257
     0.358613    0.384738    0.404878    0.411300    0.463585    0.480763
     0.497945    0.503677

 Minimum Search - Taking Simple RFO Step
 Searching for Lamda that Minimizes Along All modes
 Value Taken    Lamda =   0.00000000
 Step Taken.  Stepsize is  0.001222

                             Maximum     Tolerance    Cnvgd?
         Gradient           0.000031      0.000300     YES
         Displacement       0.000762      0.001200     YES
         Energy change     -0.000000      0.000001     YES

 Final energy is   -1104.84078016996     


 ******************************
 **  OPTIMIZATION CONVERGED  **
 ******************************

                       Coordinates (Angstroms)
     ATOM                X               Y               Z
      1  S         0.0025735129    0.0615713959    0.0019959324
      2  C         1.7374118619    0.0317345094    0.0032806730
      3  H         2.2761328079    0.0491281816    0.9406707414
      4  C         2.2418707033   -0.0151798987   -1.2695480735
      5  H         3.3029178743   -0.0410382156   -1.4898823164
      6  C         1.2250023699   -0.0144166713   -2.2678350650
      7  H         1.4282700576   -0.0257555925   -3.3328239862
      8  C        -0.0540602649    0.0308112070   -1.7518777496
      9  C        -1.3239741166    0.0507887603   -2.4567225782
     10  C        -2.5617702807    0.4606245602   -2.0046490819
     11  H        -2.7227765996    0.8522264388   -1.0064038978
     12  C        -3.5917351435    0.3457701160   -2.9826325871
     13  H        -4.6238487634    0.6267974677   -2.8070519525
     14  C        -3.1379759802   -0.1482516867   -4.1770396168
     15  H        -3.6955999675   -0.3303148667   -5.0855243743
     16  S        -1.4396419914   -0.4982297456   -4.1201872676

Z-matrix Print:
$molecule
0 1
S 
C  1 1.735095
H  2 1.081306 1 119.901117
C  2 1.369954 1 111.597070 3 179.909473 0
H  4 1.083991 2 123.374213 1 -179.938719 0
C  4 1.424991 2 112.836542 1 0.577015 0
H  6 1.084273 4 123.663505 2 178.597948 0
C  6 1.379949 4 113.547459 2 -0.106908 0
C  8 1.452545 6 129.003665 4 179.721765 0
C  9 1.380027 8 128.997618 6 -160.000000 0
H  10 1.084329 9 122.820586 8 0.954526 0
C  10 1.424946 9 113.549856 8 179.666565 0
H  12 1.084003 10 123.789672 9 -179.580988 0
C  12 1.369877 10 112.833891 9 -0.106586 0
H  14 1.081405 12 128.491546 10 -179.551397 0
S  14 1.734951 12 111.618569 10 0.595996 0
$end

 
 --------------------------------------------------------------
 
                    Orbital Energies (a.u.)
 --------------------------------------------------------------
 
 Alpha MOs
 -- Occupied --
-88.920 -88.920 -10.239 -10.239 -10.225 -10.225 -10.205 -10.205
-10.203 -10.203  -7.979  -7.979  -5.944  -5.944  -5.940  -5.940
 -5.936  -5.936  -0.900  -0.878  -0.772  -0.749  -0.737  -0.706
 -0.604  -0.581  -0.552  -0.534  -0.527  -0.478  -0.420  -0.418
 -0.408  -0.405  -0.401  -0.378  -0.374  -0.358  -0.344  -0.281
 -0.264  -0.259  -0.213
 -- Virtual --
 -0.058  -0.006  -0.004  -0.002   0.007   0.009   0.017   0.022
  0.032   0.035   0.038   0.048   0.049   0.053   0.061   0.064
  0.074   0.084   0.085   0.096   0.098   0.102   0.107   0.109
  0.120   0.124   0.127   0.132   0.132   0.140   0.141   0.141
  0.147   0.157   0.161   0.165   0.169   0.173   0.181   0.186
  0.187   0.202   0.207   0.211   0.218   0.218   0.222   0.225
  0.252   0.254   0.257   0.265   0.266   0.279   0.284   0.300
  0.317   0.320   0.344   0.351   0.351   0.373   0.391   0.406
  0.454   0.465   0.513   0.517   0.542   0.550   0.566   0.585
  0.609   0.614   0.630   0.649   0.656   0.659   0.669   0.681
  0.700   0.718   0.726   0.727   0.741   0.749   0.774   0.785
  0.818   0.819   0.826   0.847   0.866   0.920   0.939   0.947
  0.953   0.955   0.960   0.967   0.982   0.993   0.994   1.018
  1.030   1.041   1.067   1.096   1.106   1.117   1.146   1.157
  1.169   1.178   1.207   1.250   1.260   1.317   1.341   1.347
  1.352   1.356   1.374   1.466   1.467   1.510   1.532   1.584
  1.679   1.692   1.731   1.802   1.862   1.871   1.885   1.916
  1.922   1.938   1.962   2.007   2.048   2.069   2.085   2.116
  2.166   2.178   2.180   2.225   2.244   2.254   2.335   2.362
  2.366   2.417   2.453   2.456   2.466   2.492   2.507   2.528
  2.533   2.565   2.585   2.608   2.666   2.692   2.719   2.748
  2.858   2.869   2.925   2.935   3.145   3.205   3.267   3.274
  3.400   3.427   3.721   3.742   3.973   3.980   4.239   4.295
  4.306   4.319   4.410   4.533   4.658   4.715
 --------------------------------------------------------------
 
          Ground-State Mulliken Net Atomic Charges

     Atom                 Charge (a.u.)
  ----------------------------------------
      1 S                    -0.103979
      2 C                     0.014692
      3 H                     0.196461
      4 C                    -0.354915
      5 H                     0.119950
      6 C                     0.370220
      7 H                     0.122518
      8 C                    -0.366505
      9 C                    -0.362704
     10 C                     0.369306
     11 H                     0.122703
     12 C                    -0.354188
     13 H                     0.119903
     14 C                     0.014632
     15 H                     0.196412
     16 S                    -0.104506
  ----------------------------------------
  Sum of atomic charges =     0.000000

 -----------------------------------------------------------------
                    Cartesian Multipole Moments
 -----------------------------------------------------------------
    Charge (ESU x 10^10)
                 0.0000
    Dipole Moment (Debye)
         X       0.0250      Y       0.2216      Z      -0.0386
       Tot       0.2263
    Quadrupole Moments (Debye-Ang)
        XX     -62.5357     XY      -1.3934     YY     -78.1698
        XZ       3.3104     YZ       1.1241     ZZ     -67.2116
    Octopole Moments (Debye-Ang^2)
       XXX     131.9071    XXY       6.8768    XYY      52.0769
       YYY       2.3337    XXZ     124.8127    XYZ      -1.3809
       YYZ     163.6411    XZZ      33.7103    YZZ      -7.6498
       ZZZ     424.4318
    Hexadecapole Moments (Debye-Ang^3)
      XXXX   -1594.4936   XXXY     -19.4982   XXYY    -350.0282
      XYYY      14.4505   YYYY    -141.5287   XXXZ    -606.7034
      XXYZ     -17.0726   XYYZ    -255.6244   YYYZ     -55.0703
      XXZZ    -671.6014   XYZZ      27.3528   YYZZ    -575.0729
      XZZZ    -572.9257   YZZZ      -1.3053   ZZZZ   -2868.5942
 -----------------------------------------------------------------
Archival summary:
1\1\nid00485\OPT\ProcedureUnspecified\BasisUnspecified\286\bwood\WedMay3102:25:172017WedMay3102:25:172017\0\\#,OPT,ProcedureUnspecified,BasisUnspecified,\\0,1\S\C,1,1.7351\H,2,1.08131,1,119.901\C,2,1.36995,1,111.597,3,179.909,0\H,4,1.08399,2,123.374,1,-179.939,0\C,4,1.42499,2,112.837,1,0.577015,0\H,6,1.08427,4,123.664,2,178.598,0\C,6,1.37995,4,113.547,2,-0.106908,0\C,8,1.45254,6,129.004,4,179.722,0\C,9,1.38003,8,128.998,6,-160,0\H,10,1.08433,9,122.821,8,0.954526,0\C,10,1.42495,9,113.55,8,179.667,0\H,12,1.084,10,123.79,9,-179.581,0\C,12,1.36988,10,112.834,9,-0.106586,0\H,14,1.0814,12,128.492,10,-179.551,0\S,14,1.73495,12,111.619,10,0.595996,0\\\@

 Total job time:  27.19s(wall), 25.80s(cpu) 
 Wed May 31 02:25:17 2017

        *************************************************************
        *                                                           *
        *  Thank you very much for using Q-Chem.  Have a nice day.  *
        *                                                           *
        *************************************************************


0 sent ACK to 0 
now end server 0 ... 
