srun -N 1 --ntasks-per-node 16 --cpus-per-task 4 --cpu_bind=cores --nodelist nid00472 /global/project/projectdirs/jcesr/qchem/qc44/cnl_qc441/dist/exe/qcprog.cori.haswell.exe .pt_n2_neutral_-80.0.in.48599.qcin.1 /global/cscratch1/sd/bwood/qchem/nx/qchem48599/
Process 0 of 16 is on nid00472 - thread support 0
Process 1 of 16 is on nid00472 - thread support 0
Process 2 of 16 is on nid00472 - thread support 0
Process 3 of 16 is on nid00472 - thread support 0
Process 4 of 16 is on nid00472 - thread support 0
Process 5 of 16 is on nid00472 - thread support 0
Process 6 of 16 is on nid00472 - thread support 0
initial socket setup ...start
Process 15 of 16 is on nid00472 - thread support 0
initial socket setup ...done 
now start server 0 ... 
nid00472 10.128.1
Q-Chem Developer Version! Running on 10.128.1.*
                  Welcome to Q-Chem
     A Quantum Leap Into The Future Of Chemistry


 Q-Chem 4.4, Q-Chem, Inc., Pleasanton, CA (2016)

 Y. Shao,  Z. Gan,  E. Epifanovsky,  A. T. B. Gilbert,  M. Wormit,  
 J. Kussmann,  A. W. Lange,  A. Behn,  J. Deng,  X. Feng,  D. Ghosh,  
 M. Goldey,  P. R. Horn,  L. D. Jacobson,  I. Kaliman,  F. Rob,  
 R. Z. Khaliullin,  T. Kus,  A. Landau,  J. Liu,  E. I. Proynov,  Y. M. Rhee,  
 R. M. Richard,  M. A. Rohrdanz,  R. P. Steele,  E. J. Sundstrom,  
 H. L. Woodcock III,  P. M. Zimmerman,  D. Zuev,  B. Albrecht,  E. Alguire,  
 B. Austin,  S. A. Baeppler,  G. J. O. Beran,  Y. A. Bernard,  
 E. J. Berquist,  K. Brandhorst,  K. B. Bravaya,  S. T. Brown,  D. Casanova,  
 C.-M. Chang,  Y. Chen,  S. H. Chien,  K. D. Closser,  M. P. Coons,  
 D. L. Crittenden,  S. Dasgupta,  M. Diedenhofen,  R. A. DiStasio Jr.,  
 H. Do,  A. D. Dutoi,  R. G. Edgar,  P.-T. Fang,  S. Fatehi,  Q. Feng,  
 L. Fusti-Molnar,  A. Ghysels,  A. Golubeva-Zadorozhnaya,  J. Gomes,  
 A. Gunina,  M. W. D. Hanson-Heine,  P. H. P. Harbach,  A. W. Hauser,  
 J. E. Herr,  E. G. Hohenstein,  Z. C. Holden,  K. Hui,  T.-C. Jagau,  H. Ji,  
 B. Kaduk,  K. Khistyaev,  Jaehoon Kim,  Jihan Kim,  R. A. King,  
 P. Klunzinger,  K. Koh,  D. Kosenkov,  T. Kowalczyk,  C. M. Krauter,  
 A. Kunitsa,  K. U. Lao,  A. Laurent,  K. V. Lawler,  J. Lee,  D. Lefrancois,  
 S. Lehtola,  S. V. Levchenko,  C. Y. Lin,  Y.-S. Lin,  F. Liu,  E. Livshits,  
 R. C. Lochan,  A. Luenser,  P. Manohar,  S. F. Manzer,  S.-P. Mao,  Y. Mao,  
 N. Mardirossian,  A. V. Marenich,  L. A. Martinez-Martinez,  S. A. Maurer,  
 N. J. Mayhall,  J.-M. Mewes,  A. F. Morrison,  K. Nanda,  T. S. Nguyen-Beck,  
 C. M. Oana,  R. Olivares-Amaya,  D. P. O'Neill,  J. A. Parkhill,  
 T. M. Perrine,  R. Peverati,  P. A. Pieniazek,  F. Plasser,  A. Prociuk,  
 D. R. Rehn,  E. Rosta,  N. J. Russ,  N. Sergueev,  S. M. Sharada,  
 S. Sharma,  D. W. Small,  A. Sodt,  T. Stauch,  T. Stein,  D. Stuck,  
 Y.-C. Su,  A. J. W. Thom,  T. Tsuchimochi,  L. Vogt,  O. Vydrov,  T. Wang,  
 M. A. Watson,  J. Wenzel,  A. White,  C. F. Williams,  V. Vanovschi,  
 K. Yao,  S. Yeganeh,  S. R. Yost,  Z.-Q. You,  I. Y. Zhang,  X. Zhang,  
 Y. Zhao,  B. R. Brooks,  G. K. L. Chan,  D. M. Chipman,  C. J. Cramer,  
 W. A. Goddard III,  M. S. Gordon,  W. J. Hehre,  A. Klamt,  
 H. F. Schaefer III,  M. W. Schmidt,  C. D. Sherrill,  D. G. Truhlar,  
 A. Warshel,  X. Xu,  A. Aspuru-Guzik,  R. Baer,  A. T. Bell,  N. A. Besley,  
 J.-D. Chai,  A. Dreuw,  B. D. Dunietz,  T. R. Furlani,  S. R. Gwaltney,  
 C.-P. Hsu,  Y. Jung,  J. Kong,  D. S. Lambrecht,  W. Liang,  C. Ochsenfeld,  
 V. A. Rassolov,  L. V. Slipchenko,  J. E. Subotnik,  T. Van Voorhis,  
 J. M. Herbert,  A. I. Krylov,  P. M. W. Gill,  M. Head-Gordon

 Contributors to earlier versions of Q-Chem not listed above: 
 R. D. Adamson,  J. Baker,  E. F. C. Byrd,  A. K. Chakraborty,  C.-L. Cheng,  
 H. Dachsel,  R. J. Doerksen,  G. Hawkins,  A. Heyden,  S. Hirata,  
 G. Kedziora,  F. J. Keil,  C. Kelley,  P. P. Korambath,  W. Kurlancheek,  
 A. M. Lee,  M. S. Lee,  D. Liotard,  I. Lotan,  P. E. Maslen,  N. Nair,  
 D. Neuhauser,  R. Olson,  B. Peters,  J. Ritchie,  N. E. Schultz,  
 N. Shenvi,  A. C. Simmonett,  K. S. Thanthiriwatte,  Q. Wu,  W. Zhang

 Please cite Q-Chem as follows:
 Y. Shao et al., Mol. Phys. 113, 184-215 (2015)
 DOI: 10.1080/00268976.2014.952696

 Q-Chem 4.4.2 for Intel X86 EM64T Linux

 Parts of Q-Chem use Armadillo 5.200.1 (Boston Tea Smuggler).
 http://arma.sourceforge.net/

 Q-Chem begins on Wed May 31 02:24:50 2017  

Host: nid00447
0

     Scratch files written to /global/cscratch1/sd/bwood/qchem/nx/qchem48599.0//
 Parallel job on  16  processors

Checking the input file for inconsistencies... 	...done.

--------------------------------------------------------------
User input:
--------------------------------------------------------------
$molecule
 0  1
 S           0.00238887        0.06077275        0.00183269
 C           1.73707619        0.03315849        0.00323229
 H           2.27612737        0.05289032        0.94042557
 C           2.24169204       -0.01546201       -1.26965798
 H           3.30285780       -0.04005365       -1.48972496
 C           1.22479222       -0.01612968       -2.26811464
 H           1.42674790       -0.02650987       -3.33334501
 C          -0.05393771        0.02880388       -1.75170966
 C          -1.32450815        0.04889988       -2.45636342
 C          -1.96495247        1.11081935       -3.06150517
 H          -1.54636457        2.11076701       -3.08809293
 C          -3.20342338        0.75576886       -3.67061410
 H          -3.83884888        1.45751412       -4.19870752
 C          -3.50313650       -0.57373841       -3.53019817
 H          -4.36686740       -1.11102363       -3.89731505
 S          -2.27929943       -1.41337840       -2.63199841
$end


$rem
         jobtype = opt
        exchange = b3lyp
           basis = 6-31++g**
  max_scf_cycles = 150
      mem_static = 775
       mem_total = 7750
      sym_ignore = true
        symmetry = false
          thresh = 12
$end


$opt
CONSTRAINT
tors 6 8 9 10 -80.0
ENDCONSTRAINT
$end

--------------------------------------------------------------
 ----------------------------------------------------------------
             Standard Nuclear Orientation (Angstroms)
    I     Atom           X                Y                Z
 ----------------------------------------------------------------
    1      S       0.0023888700     0.0607727500     0.0018326900
    2      C       1.7370761900     0.0331584900     0.0032322900
    3      H       2.2761273700     0.0528903200     0.9404255700
    4      C       2.2416920400    -0.0154620100    -1.2696579800
    5      H       3.3028578000    -0.0400536500    -1.4897249600
    6      C       1.2247922200    -0.0161296800    -2.2681146400
    7      H       1.4267479000    -0.0265098700    -3.3333450100
    8      C      -0.0539377100     0.0288038800    -1.7517096600
    9      C      -1.3245081500     0.0488998800    -2.4563634200
   10      C      -1.9649524700     1.1108193500    -3.0615051700
   11      H      -1.5463645700     2.1107670100    -3.0880929300
   12      C      -3.2034233800     0.7557688600    -3.6706141000
   13      H      -3.8388488800     1.4575141200    -4.1987075200
   14      C      -3.5031365000    -0.5737384100    -3.5301981700
   15      H      -4.3668674000    -1.1110236300    -3.8973150500
   16      S      -2.2792994300    -1.4133784000    -2.6319984100
 ----------------------------------------------------------------
 Nuclear Repulsion Energy =   629.0408211411 hartrees
 There are       43 alpha and       43 beta electrons
 Requested basis set is 6-31++G(d,p)
 There are 76 shells and 234 basis functions

 Total QAlloc Memory Limit   7750 MB
 Mega-Array Size       758 MB
 MEM_STATIC part       775 MB
 A cutoff of  1.0D-12 yielded   2527 shell pairs
 There are     24917 function pairs

 Q-Chem warning in module /project/projectdirs/jcesr/qchem/qc44/cnl_qc441/compile/cori/qc_src/libqints/qchem/aobasis.C, line 68:

 Using reconstructed effective core potential

 
 -------------------------------------------------------
 OpenMP Integral Computing Module                       
 Release: version 1.0, May 2013, Q-Chem Inc. Pittsburgh 
 -------------------------------------------------------
 Integral Job Info:
 Integral job number is                      11
 Integral operator is                         1
 short-range coefficients                     0
 long-range coefficients              100000000
 Omega coefficients                           0
 if combine SR and LR in K                    0
 Integral screening is                        0
 Integral computing path is                   2
 max size of driver memory is            800000
 size of driver memory is                593474
 size of scratch memory is             15166112
 max col of scratch BK array               1296
 max len of scratch array in speh3          155
 max len of scratch index in speh4           18
 max int batch size is                      520
 min int batch size is                       52
 fixed nKL is                                52
 max L of basis functions is                  2
 order of int derivative is                   0
 number of shells is                         76
 number of basis is                         234
 number of cartesian basis is               234
 number of contracted shell pairs          2527
 number of primitive shell pairs           8213
 maxK2 (contraction) of shell pair           36
 max number of K2 of shell pair               1
 max number of CS2 of shell pair            264
 max number of PS2 of shell pair           1500
 mem total for path MDJ                   52408
 -------------------------------------------------------
 Smallest overlap matrix eigenvalue = 1.10E-06

 Scale SEOQF with 1.000000e-01/1.000000e-01/1.000000e-01

 Standard Electronic Orientation quadrupole field applied
 Nucleus-field energy     =    -0.0000000341 hartrees
 Guess from superposition of atomic densities
 Warning:  Energy on first SCF cycle will be non-variational
 A restricted hybrid HF-DFT SCF calculation will be
 performed using Pulay DIIS extrapolation
 Exchange:     0.2000 Hartree-Fock + 0.0800 Slater + 0.7200 B88
 Correlation:  0.1900 VWN1RPA + 0.8100 LYP
 Using SG-1 standard quadrature grid
 SCF converges when DIIS error is below 1.0E-08
 ---------------------------------------
  Cycle       Energy         DIIS Error
 ---------------------------------------
    1   -1107.1796253643      4.40E-02
    2   -1104.6560959167      4.85E-03
    3   -1104.3614143942      7.67E-03
    4   -1104.8234070041      1.29E-03
    5   -1104.8339450040      6.48E-04
    6   -1104.8364843980      2.66E-04
    7   -1104.8370058261      8.71E-05
    8   -1104.8370594819      1.67E-05
    9   -1104.8370615089      1.90E-06
   10   -1104.8370615351      8.31E-07
   11   -1104.8370615400      4.20E-07
   12   -1104.8370615407      6.67E-08
   13   -1104.8370615411      3.18E-08
   14   -1104.8370615407      6.32E-09 Convergence criterion met
 ---------------------------------------
 SCF time:  CPU 7.61 s  wall 7.24 s
 SCF   energy in the final basis set = -1104.8370615407
 Total energy in the final basis set = -1104.8370615407
 
 --------------------------------------------------------------
 
                    Orbital Energies (a.u.)
 --------------------------------------------------------------
 
 Alpha MOs
 -- Occupied --
-88.919 -88.919 -10.235 -10.235 -10.225 -10.225 -10.204 -10.204
-10.203 -10.203  -7.978  -7.978  -5.942  -5.942  -5.938  -5.938
 -5.935  -5.935  -0.898  -0.877  -0.770  -0.742  -0.740  -0.704
 -0.602  -0.567  -0.564  -0.534  -0.523  -0.477  -0.418  -0.414
 -0.414  -0.406  -0.394  -0.374  -0.374  -0.351  -0.350  -0.264
 -0.257  -0.249  -0.236
 -- Virtual --
 -0.038  -0.031  -0.006  -0.002   0.006   0.013   0.020   0.023
  0.026   0.034   0.035   0.042   0.045   0.046   0.065   0.068
  0.071   0.072   0.082   0.102   0.102   0.107   0.108   0.114
  0.115   0.118   0.125   0.127   0.132   0.133   0.138   0.143
  0.145   0.152   0.158   0.162   0.166   0.173   0.179   0.184
  0.184   0.190   0.193   0.205   0.213   0.218   0.221   0.227
  0.246   0.251   0.253   0.267   0.273   0.274   0.298   0.299
  0.307   0.317   0.327   0.331   0.355   0.365   0.372   0.393
  0.431   0.471   0.476   0.494   0.522   0.530   0.553   0.575
  0.581   0.588   0.613   0.641   0.645   0.660   0.671   0.677
  0.686   0.697   0.726   0.726   0.739   0.761   0.768   0.769
  0.790   0.803   0.807   0.829   0.842   0.896   0.908   0.938
  0.947   0.960   0.961   0.968   0.971   0.988   0.990   1.017
  1.019   1.024   1.046   1.048   1.078   1.096   1.101   1.107
  1.131   1.184   1.217   1.220   1.242   1.282   1.327   1.347
  1.352   1.352   1.360   1.393   1.451   1.468   1.499   1.518
  1.575   1.691   1.695   1.791   1.831   1.841   1.879   1.884
  1.915   1.924   1.952   1.964   2.018   2.020   2.065   2.089
  2.130   2.165   2.185   2.198   2.213   2.253   2.266   2.331
  2.365   2.370   2.433   2.441   2.469   2.472   2.491   2.512
  2.513   2.529   2.582   2.587   2.621   2.640   2.699   2.703
  2.760   2.820   2.866   2.877   2.941   3.163   3.178   3.270
  3.273   3.402   3.428   3.721   3.742   3.965   3.973   4.284
  4.309   4.319   4.329   4.436   4.535   4.661   4.713
 --------------------------------------------------------------
 
          Ground-State Mulliken Net Atomic Charges

     Atom                 Charge (a.u.)
  ----------------------------------------
      1 S                     0.048771
      2 C                    -0.035613
      3 H                     0.188008
      4 C                    -0.401498
      5 H                     0.117859
      6 C                     0.344707
      7 H                     0.133697
      8 C                    -0.398345
      9 C                    -0.392128
     10 C                     0.343807
     11 H                     0.133583
     12 C                    -0.400409
     13 H                     0.117801
     14 C                    -0.035804
     15 H                     0.188064
     16 S                     0.047500
  ----------------------------------------
  Sum of atomic charges =     0.000000

 -----------------------------------------------------------------
                    Cartesian Multipole Moments
 -----------------------------------------------------------------
    Charge (ESU x 10^10)
                 0.0000
    Dipole Moment (Debye)
         X       0.3250      Y       0.5190      Z      -0.5741
       Tot       0.8394
    Quadrupole Moments (Debye-Ang)
        XX     -64.2968     XY      -0.0621     YY     -73.6498
        XZ       4.9113     YZ      -2.0173     ZZ     -67.9571
    Octopole Moments (Debye-Ang^2)
       XXX     158.4415    XXY       3.0839    XYY      46.0591
       YYY      30.0229    XXZ     106.4990    XYZ       1.2290
       YYZ     134.6500    XZZ      41.3702    YZZ      16.8078
       ZZZ     414.5636
    Hexadecapole Moments (Debye-Ang^3)
      XXXX   -1753.0528   XXXY     -41.3820   XXYY    -361.9600
      XYYY     -78.2105   YYYY    -342.2103   XXXZ    -600.4570
      XXYZ      -4.0308   XYYZ    -211.8984   YYYZ     -76.1016
      XXZZ    -579.3265   XYZZ     -33.0486   YYZZ    -450.7387
      XZZZ    -677.8850   YZZZ     -91.0277   ZZZZ   -2513.2741
 -----------------------------------------------------------------
 Calculating analytic gradient of the SCF energy
 Gradient of SCF Energy
            1           2           3           4           5           6
    1  -0.0022277   0.0020311  -0.0004214  -0.0010285  -0.0001027   0.0029832
    2  -0.0005905   0.0011325   0.0004374  -0.0013763   0.0000280  -0.0020064
    3  -0.0004851  -0.0006583  -0.0000194  -0.0007031  -0.0000056  -0.0004192
            7           8           9          10          11          12
    1   0.0010396  -0.0098699   0.0087273  -0.0028933  -0.0002853   0.0004826
    2   0.0011508   0.0003096  -0.0023523   0.0022945   0.0001727   0.0004367
    3   0.0000935  -0.0029739   0.0051633   0.0002578  -0.0015298   0.0017019
           13          14          15          16
    1   0.0000854  -0.0004986   0.0005121   0.0014660
    2  -0.0000551   0.0012221  -0.0002677  -0.0005362
    3   0.0000551  -0.0019947  -0.0001568   0.0016742
 Max gradient component =       9.870E-03
 RMS gradient           =       2.399E-03
 Gradient time:  CPU 2.06 s  wall 2.09 s
 Geometry Optimization Parameters
   NAtoms,    NIC,     NZ,  NCons,   NDum,   NFix, NCnnct, MaxDiis
       16     111       0       1       0       0       0       0


** CONSTRAINED OPTIMIZATION IN DELOCALIZED INTERNAL COORDINATES **
   Searching for a Minimum

   Optimization Cycle:   1

                       Coordinates (Angstroms)
     ATOM                X               Y               Z
      1  S         0.0023888700    0.0607727500    0.0018326900
      2  C         1.7370761900    0.0331584900    0.0032322900
      3  H         2.2761273700    0.0528903200    0.9404255700
      4  C         2.2416920400   -0.0154620100   -1.2696579800
      5  H         3.3028578000   -0.0400536500   -1.4897249600
      6  C         1.2247922200   -0.0161296800   -2.2681146400
      7  H         1.4267479000   -0.0265098700   -3.3333450100
      8  C        -0.0539377100    0.0288038800   -1.7517096600
      9  C        -1.3245081500    0.0488998800   -2.4563634200
     10  C        -1.9649524700    1.1108193500   -3.0615051700
     11  H        -1.5463645700    2.1107670100   -3.0880929300
     12  C        -3.2034233800    0.7557688600   -3.6706141000
     13  H        -3.8388488800    1.4575141200   -4.1987075200
     14  C        -3.5031365000   -0.5737384100   -3.5301981700
     15  H        -4.3668674000   -1.1110236300   -3.8973150500
     16  S        -2.2792994300   -1.4133784000   -2.6319984100
   Point Group: c1    Number of degrees of freedom:    42


   Energy is  -1104.837061541

              Constraints and their Current Values
                                        Value     Constraint
   Dihedral:        6   8   9  10      -80.000      -80.000

 Attempting to Generate Delocalized Internal Coordinates

 41 Hessian modes will be used to form the next step
  Hessian Eigenvalues:
     0.045000    0.045000    0.045000    0.045000    0.045000    0.045000
     0.045002    0.045002    0.045003    0.045004    0.045011    0.045012
     0.159943    0.159949    0.159991    0.159992    0.160000    0.160000
     0.221282    0.221282    0.237835    0.237839    0.250000    0.250000
     0.294264    0.294663    0.312518    0.312618    0.354736    0.354850
     0.355125    0.355132    0.358226    0.358329    0.378510    0.404854
     0.404909    0.463547    0.463616    0.497922    0.497945

 Minimum Search - Taking Simple RFO Step
 Searching for Lamda that Minimizes Along All modes
 Value Taken    Lamda =  -0.00053155
 Step Taken.  Stepsize is  0.066574

                             Maximum     Tolerance    Cnvgd?
         Gradient           0.004952      0.000300      NO
         Displacement       0.047457      0.001200      NO
         Energy change     *********      0.000001      NO


 New Cartesian Coordinates Obtained by Inverse Iteration

 Displacement from previous Coordinates is:  0.090953
 ----------------------------------------------------------------
             Standard Nuclear Orientation (Angstroms)
    I     Atom           X                Y                Z
 ----------------------------------------------------------------
    1      S       0.0117483700     0.0658457971     0.0094048289
    2      C       1.7440070834     0.0293277647     0.0083828663
    3      H       2.2871259556     0.0379904308     0.9437652291
    4      C       2.2457651782    -0.0046328019    -1.2664949316
    5      H       3.3064537349    -0.0301524871    -1.4894743022
    6      C       1.2243614931    -0.0073598273    -2.2628178459
    7      H       1.4164907363    -0.0260150537    -3.3296157985
    8      C      -0.0501545320     0.0328160678    -1.7454601899
    9      C      -1.3286880335     0.0446443849    -2.4622137891
   10      C      -1.9631464556     1.1041203578    -3.0693745651
   11      H      -1.5404629007     2.1024563864    -3.0835279305
   12      C      -3.2029603660     0.7526508823    -3.6819615430
   13      H      -3.8370544956     1.4568460290    -4.2087359384
   14      C      -3.5125665828    -0.5738008614    -3.5309721666
   15      H      -4.3833369954    -1.1052457133    -3.8908583482
   16      S      -2.2872382899    -1.4163923462    -2.6419020452
 ----------------------------------------------------------------
 Nuclear Repulsion Energy =   628.1876393646 hartrees
 There are       43 alpha and       43 beta electrons
 Applying Cartesian multipole field
    Component          Value
    ---------          -----
     (2,0,0)        1.00000E-11
     (0,2,0)        2.00000E-11
     (0,0,2)       -3.00000E-11
 Nucleus-field energy     =    -0.0000000342 hartrees
 Requested basis set is 6-31++G(d,p)
 There are 76 shells and 234 basis functions
 A cutoff of  1.0D-12 yielded   2525 shell pairs
 There are     24869 function pairs

 Q-Chem warning in module /project/projectdirs/jcesr/qchem/qc44/cnl_qc441/compile/cori/qc_src/libqints/qchem/aobasis.C, line 68:

 Using reconstructed effective core potential

 Smallest overlap matrix eigenvalue = 1.20E-06
 Guess MOs from SCF MO coefficient file
 Reading MOs from coefficient file
 Reading MOs from coefficient file
 A restricted hybrid HF-DFT SCF calculation will be
 performed using Pulay DIIS extrapolation
 Exchange:     0.2000 Hartree-Fock + 0.0800 Slater + 0.7200 B88
 Correlation:  0.1900 VWN1RPA + 0.8100 LYP
 Using SG-1 standard quadrature grid
 SCF converges when DIIS error is below 1.0E-08
 Geometry optimization detected.  Setting ReadMinima to 0
 Setting SaveMinima to 0
 ---------------------------------------
  Cycle       Energy         DIIS Error
 ---------------------------------------
    1   -1104.8375656754      7.23E-04
    2   -1104.8372762790      1.00E-04
    3   -1104.8370547843      1.99E-04
    4   -1104.8373501802      3.26E-05
    5   -1104.8373575429      8.48E-06
    6   -1104.8373580491      2.09E-06
    7   -1104.8373580810      9.65E-07
    8   -1104.8373580862      4.27E-07
    9   -1104.8373580888      5.25E-08
   10   -1104.8373580872      1.92E-08
   11   -1104.8373580873      6.08E-09 Convergence criterion met
 ---------------------------------------
 SCF time:  CPU 6.06 s  wall 5.72 s
 SCF   energy in the final basis set = -1104.8373580873
 Total energy in the final basis set = -1104.8373580873
 
 --------------------------------------------------------------
 
                    Orbital Energies (a.u.)
 --------------------------------------------------------------
 
 Alpha MOs
 -- Occupied --
-88.919 -88.919 -10.236 -10.236 -10.225 -10.225 -10.204 -10.204
-10.203 -10.203  -7.978  -7.978  -5.942  -5.942  -5.938  -5.938
 -5.935  -5.935  -0.898  -0.877  -0.768  -0.742  -0.740  -0.705
 -0.601  -0.567  -0.564  -0.534  -0.523  -0.478  -0.418  -0.413
 -0.413  -0.406  -0.394  -0.375  -0.375  -0.350  -0.350  -0.264
 -0.257  -0.249  -0.237
 -- Virtual --
 -0.037  -0.030  -0.006  -0.002   0.006   0.013   0.020   0.024
  0.026   0.034   0.035   0.042   0.045   0.046   0.065   0.068
  0.071   0.071   0.082   0.102   0.102   0.107   0.108   0.114
  0.115   0.118   0.124   0.127   0.132   0.132   0.138   0.143
  0.145   0.151   0.158   0.162   0.166   0.173   0.179   0.183
  0.184   0.190   0.192   0.205   0.212   0.218   0.220   0.228
  0.245   0.251   0.252   0.267   0.273   0.274   0.297   0.299
  0.306   0.316   0.327   0.331   0.355   0.365   0.372   0.393
  0.432   0.471   0.477   0.492   0.522   0.528   0.552   0.576
  0.581   0.588   0.611   0.640   0.645   0.660   0.672   0.677
  0.685   0.698   0.726   0.726   0.737   0.760   0.768   0.769
  0.790   0.802   0.806   0.828   0.842   0.897   0.908   0.941
  0.949   0.961   0.962   0.968   0.970   0.988   0.991   1.017
  1.018   1.023   1.044   1.047   1.078   1.097   1.101   1.107
  1.130   1.184   1.215   1.218   1.241   1.284   1.326   1.347
  1.352   1.356   1.359   1.392   1.452   1.465   1.497   1.518
  1.571   1.692   1.695   1.785   1.832   1.844   1.877   1.882
  1.915   1.923   1.951   1.963   2.017   2.018   2.063   2.093
  2.130   2.164   2.187   2.199   2.212   2.249   2.261   2.330
  2.365   2.370   2.432   2.442   2.465   2.475   2.491   2.512
  2.513   2.528   2.582   2.586   2.620   2.638   2.697   2.703
  2.757   2.820   2.865   2.875   2.937   3.162   3.178   3.269
  3.272   3.401   3.427   3.720   3.741   3.964   3.972   4.282
  4.308   4.321   4.328   4.434   4.534   4.660   4.710
 --------------------------------------------------------------
 
          Ground-State Mulliken Net Atomic Charges

     Atom                 Charge (a.u.)
  ----------------------------------------
      1 S                     0.047916
      2 C                    -0.032678
      3 H                     0.188725
      4 C                    -0.403916
      5 H                     0.117877
      6 C                     0.343370
      7 H                     0.134180
      8 C                    -0.397882
      9 C                    -0.391971
     10 C                     0.342593
     11 H                     0.134084
     12 C                    -0.402771
     13 H                     0.117832
     14 C                    -0.032918
     15 H                     0.188791
     16 S                     0.046769
  ----------------------------------------
  Sum of atomic charges =     0.000000

 -----------------------------------------------------------------
                    Cartesian Multipole Moments
 -----------------------------------------------------------------
    Charge (ESU x 10^10)
                 0.0000
    Dipole Moment (Debye)
         X       0.3194      Y       0.5096      Z      -0.5641
       Tot       0.8246
    Quadrupole Moments (Debye-Ang)
        XX     -64.1985     XY      -0.0953     YY     -73.6920
        XZ       4.9570     YZ      -2.0177     ZZ     -68.0393
    Octopole Moments (Debye-Ang^2)
       XXX     157.6761    XXY       2.8875    XYY      46.1322
       YYY      29.8235    XXZ     106.4536    XYZ       1.1795
       YYZ     134.8524    XZZ      41.3897    YZZ      16.6969
       ZZZ     415.2726
    Hexadecapole Moments (Debye-Ang^3)
      XXXX   -1755.1655   XXXY     -42.4223   XXYY    -363.4026
      XYYY     -80.1778   YYYY    -342.3636   XXXZ    -601.5923
      XXYZ      -4.1014   XYYZ    -213.5500   YYYZ     -76.4854
      XXZZ    -581.4927   XYZZ     -33.9186   YYZZ    -452.5694
      XZZZ    -682.1206   YZZZ     -91.7424   ZZZZ   -2523.8157
 -----------------------------------------------------------------
 Calculating analytic gradient of the SCF energy
 Gradient of SCF Energy
            1           2           3           4           5           6
    1   0.0001436   0.0009902  -0.0001110  -0.0006659   0.0000325   0.0003034
    2   0.0003473   0.0000101   0.0000615  -0.0000234  -0.0000025  -0.0017271
    3  -0.0001846   0.0004593   0.0000992  -0.0000508   0.0000224   0.0003276
            7           8           9          10          11          12
    1   0.0001865  -0.0012516   0.0016645  -0.0012330   0.0001700   0.0004782
    2   0.0007421   0.0006790  -0.0000241   0.0002691  -0.0001247  -0.0002555
    3   0.0000572  -0.0008645   0.0001238   0.0013183  -0.0007062   0.0003804
           13          14          15          16
    1  -0.0000473  -0.0009136   0.0000613   0.0001923
    2   0.0000041   0.0000558  -0.0001501   0.0001386
    3   0.0000004  -0.0005829  -0.0000204  -0.0003793
 Max gradient component =       1.727E-03
 RMS gradient           =       5.932E-04
 Gradient time:  CPU 2.06 s  wall 2.08 s
 Geometry Optimization Parameters
   NAtoms,    NIC,     NZ,  NCons,   NDum,   NFix, NCnnct, MaxDiis
       16     111       0       1       0       0       0       0

 Cartesian Hessian Update
 Hessian Updated using BFGS Update


** CONSTRAINED OPTIMIZATION IN DELOCALIZED INTERNAL COORDINATES **
   Searching for a Minimum

   Optimization Cycle:   2

                       Coordinates (Angstroms)
     ATOM                X               Y               Z
      1  S         0.0117483700    0.0658457971    0.0094048289
      2  C         1.7440070834    0.0293277647    0.0083828663
      3  H         2.2871259556    0.0379904308    0.9437652291
      4  C         2.2457651782   -0.0046328019   -1.2664949316
      5  H         3.3064537349   -0.0301524871   -1.4894743022
      6  C         1.2243614931   -0.0073598273   -2.2628178459
      7  H         1.4164907363   -0.0260150537   -3.3296157985
      8  C        -0.0501545320    0.0328160678   -1.7454601899
      9  C        -1.3286880335    0.0446443849   -2.4622137891
     10  C        -1.9631464556    1.1041203578   -3.0693745651
     11  H        -1.5404629007    2.1024563864   -3.0835279305
     12  C        -3.2029603660    0.7526508823   -3.6819615430
     13  H        -3.8370544956    1.4568460290   -4.2087359384
     14  C        -3.5125665828   -0.5738008614   -3.5309721666
     15  H        -4.3833369954   -1.1052457133   -3.8908583482
     16  S        -2.2872382899   -1.4163923462   -2.6419020452
   Point Group: c1    Number of degrees of freedom:    42


   Energy is  -1104.837358087

              Constraints and their Current Values
                                        Value     Constraint
   Dihedral:        6   8   9  10      -80.000      -80.000
 Hessian Updated using BFGS Update

 35 Hessian modes will be used to form the next step
  Hessian Eigenvalues:
     0.037732    0.045000    0.045001    0.045002    0.045006    0.045012
     0.047530    0.155759    0.159947    0.159989    0.159992    0.160131
     0.217987    0.221282    0.231149    0.237838    0.249989    0.251983
     0.294422    0.295947    0.312567    0.313250    0.354734    0.354849
     0.355127    0.355135    0.358238    0.358343    0.392493    0.404881
     0.412651    0.461048    0.463583    0.497933    0.498960

 Minimum Search - Taking Simple RFO Step
 Searching for Lamda that Minimizes Along All modes
 Value Taken    Lamda =  -0.00006109
 Step Taken.  Stepsize is  0.032133

                             Maximum     Tolerance    Cnvgd?
         Gradient           0.001096      0.000300      NO
         Displacement       0.018230      0.001200      NO
         Energy change     -0.000297      0.000001      NO


 New Cartesian Coordinates Obtained by Inverse Iteration

 Displacement from previous Coordinates is:  0.034526
 ----------------------------------------------------------------
             Standard Nuclear Orientation (Angstroms)
    I     Atom           X                Y                Z
 ----------------------------------------------------------------
    1      S       0.0103092486     0.0636509373     0.0118374121
    2      C       1.7420147860     0.0300267916     0.0067203341
    3      H       2.2870167541     0.0356232086     0.9410058301
    4      C       2.2448949884    -0.0001028769    -1.2680148996
    5      H       3.3054251311    -0.0259776169    -1.4915598008
    6      C       1.2219940318    -0.0038832020    -2.2628426561
    7      H       1.4098614231    -0.0298846604    -3.3302967166
    8      C      -0.0506369785     0.0339831929    -1.7427228096
    9      C      -1.3292359037     0.0416854027    -2.4632274951
   10      C      -1.9597036885     1.1020992321    -3.0711459508
   11      H      -1.5370702433     2.1005986763    -3.0766604237
   12      C      -3.1994148922     0.7525071192    -3.6851109916
   13      H      -3.8332966156     1.4572587632    -4.2113232846
   14      C      -3.5100782261    -0.5734435878    -3.5303541532
   15      H      -4.3830595194    -1.1023418675    -3.8885733157
   16      S      -2.2886763959    -1.4187005023    -2.6395875489
 ----------------------------------------------------------------
 Nuclear Repulsion Energy =   628.2389975693 hartrees
 There are       43 alpha and       43 beta electrons
 Applying Cartesian multipole field
    Component          Value
    ---------          -----
     (2,0,0)        1.00000E-11
     (0,2,0)        2.00000E-11
     (0,0,2)       -3.00000E-11
 Nucleus-field energy     =    -0.0000000342 hartrees
 Requested basis set is 6-31++G(d,p)
 There are 76 shells and 234 basis functions
 A cutoff of  1.0D-12 yielded   2525 shell pairs
 There are     24869 function pairs

 Q-Chem warning in module /project/projectdirs/jcesr/qchem/qc44/cnl_qc441/compile/cori/qc_src/libqints/qchem/aobasis.C, line 68:

 Using reconstructed effective core potential

 Smallest overlap matrix eigenvalue = 1.21E-06
 Guess MOs from SCF MO coefficient file
 Reading MOs from coefficient file
 Reading MOs from coefficient file
 A restricted hybrid HF-DFT SCF calculation will be
 performed using Pulay DIIS extrapolation
 Exchange:     0.2000 Hartree-Fock + 0.0800 Slater + 0.7200 B88
 Correlation:  0.1900 VWN1RPA + 0.8100 LYP
 Using SG-1 standard quadrature grid
 SCF converges when DIIS error is below 1.0E-08
 Geometry optimization detected.  Setting ReadMinima to 0
 Setting SaveMinima to 0
 ---------------------------------------
  Cycle       Energy         DIIS Error
 ---------------------------------------
    1   -1104.8375503530      2.13E-04
    2   -1104.8373789255      4.32E-05
    3   -1104.8373234305      9.67E-05
    4   -1104.8373932106      7.11E-06
    5   -1104.8373935607      1.86E-06
    6   -1104.8373935839      7.16E-07
    7   -1104.8373935861      2.10E-07
    8   -1104.8373935896      9.12E-08
    9   -1104.8373935894      2.07E-08
   10   -1104.8373935886      6.71E-09 Convergence criterion met
 ---------------------------------------
 SCF time:  CPU 5.43 s  wall 5.20 s
 SCF   energy in the final basis set = -1104.8373935886
 Total energy in the final basis set = -1104.8373935886
 
 --------------------------------------------------------------
 
                    Orbital Energies (a.u.)
 --------------------------------------------------------------
 
 Alpha MOs
 -- Occupied --
-88.919 -88.919 -10.236 -10.235 -10.225 -10.225 -10.204 -10.204
-10.203 -10.203  -7.978  -7.978  -5.942  -5.942  -5.939  -5.938
 -5.935  -5.935  -0.898  -0.877  -0.768  -0.743  -0.740  -0.705
 -0.600  -0.567  -0.564  -0.534  -0.523  -0.477  -0.417  -0.413
 -0.413  -0.405  -0.393  -0.375  -0.375  -0.351  -0.350  -0.264
 -0.257  -0.249  -0.237
 -- Virtual --
 -0.037  -0.029  -0.006  -0.002   0.006   0.013   0.020   0.023
  0.026   0.034   0.035   0.042   0.045   0.046   0.065   0.068
  0.071   0.071   0.082   0.102   0.102   0.107   0.108   0.115
  0.115   0.118   0.124   0.127   0.132   0.132   0.138   0.142
  0.145   0.151   0.158   0.162   0.166   0.173   0.179   0.183
  0.184   0.190   0.192   0.205   0.212   0.218   0.220   0.228
  0.245   0.251   0.252   0.266   0.272   0.274   0.298   0.299
  0.306   0.316   0.327   0.331   0.356   0.365   0.372   0.393
  0.432   0.472   0.477   0.492   0.522   0.528   0.552   0.576
  0.581   0.588   0.611   0.639   0.645   0.659   0.672   0.677
  0.685   0.699   0.726   0.726   0.738   0.760   0.767   0.769
  0.790   0.802   0.806   0.828   0.842   0.897   0.908   0.942
  0.950   0.960   0.962   0.968   0.969   0.988   0.992   1.017
  1.018   1.023   1.044   1.046   1.078   1.097   1.101   1.107
  1.130   1.185   1.216   1.219   1.241   1.286   1.326   1.348
  1.352   1.357   1.360   1.392   1.453   1.465   1.493   1.520
  1.570   1.692   1.694   1.784   1.832   1.846   1.876   1.881
  1.915   1.923   1.953   1.964   2.017   2.018   2.063   2.094
  2.130   2.165   2.188   2.200   2.213   2.249   2.261   2.331
  2.366   2.371   2.432   2.442   2.464   2.477   2.491   2.512
  2.514   2.527   2.581   2.585   2.620   2.639   2.697   2.704
  2.758   2.820   2.865   2.875   2.935   3.162   3.178   3.269
  3.271   3.401   3.426   3.721   3.742   3.964   3.972   4.282
  4.309   4.321   4.328   4.434   4.534   4.661   4.710
 --------------------------------------------------------------
 
          Ground-State Mulliken Net Atomic Charges

     Atom                 Charge (a.u.)
  ----------------------------------------
      1 S                     0.050176
      2 C                    -0.036204
      3 H                     0.188328
      4 C                    -0.402060
      5 H                     0.117901
      6 C                     0.340904
      7 H                     0.134351
      8 C                    -0.395958
      9 C                    -0.389807
     10 C                     0.340028
     11 H                     0.134274
     12 C                    -0.400871
     13 H                     0.117858
     14 C                    -0.036440
     15 H                     0.188403
     16 S                     0.049117
  ----------------------------------------
  Sum of atomic charges =     0.000000

 -----------------------------------------------------------------
                    Cartesian Multipole Moments
 -----------------------------------------------------------------
    Charge (ESU x 10^10)
                 0.0000
    Dipole Moment (Debye)
         X       0.3126      Y       0.4988      Z      -0.5521
       Tot       0.8071
    Quadrupole Moments (Debye-Ang)
        XX     -64.2157     XY      -0.1196     YY     -73.6739
        XZ       4.9126     YZ      -2.0047     ZZ     -68.1180
    Octopole Moments (Debye-Ang^2)
       XXX     157.7760    XXY       2.9546    XYY      46.1277
       YYY      29.8811    XXZ     106.5573    XYZ       1.2656
       YYZ     134.8350    XZZ      41.6035    YZZ      16.6700
       ZZZ     415.5407
    Hexadecapole Moments (Debye-Ang^3)
      XXXX   -1753.4428   XXXY     -43.4482   XXYY    -363.0889
      XYYY     -80.9827   YYYY    -342.4995   XXXZ    -601.9463
      XXYZ      -4.4618   XYYZ    -213.5011   YYYZ     -76.4205
      XXZZ    -582.0750   XYZZ     -34.6699   YYZZ    -452.8011
      XZZZ    -682.7799   YZZZ     -91.6956   ZZZZ   -2525.3992
 -----------------------------------------------------------------
 Calculating analytic gradient of the SCF energy
 Gradient of SCF Energy
            1           2           3           4           5           6
    1  -0.0000991  -0.0001202  -0.0000685  -0.0001050   0.0000403  -0.0001067
    2   0.0002459  -0.0000101  -0.0000407   0.0002241  -0.0000767  -0.0013962
    3   0.0003855  -0.0000534  -0.0000076  -0.0002110  -0.0000741   0.0003258
            7           8           9          10          11          12
    1   0.0000376   0.0006969  -0.0000635  -0.0007703   0.0001480   0.0002783
    2   0.0003665   0.0011155  -0.0000852   0.0000005  -0.0000409   0.0000747
    3  -0.0000262   0.0001959  -0.0013341   0.0012284  -0.0002920  -0.0000986
           13          14          15          16
    1  -0.0000373   0.0001176   0.0000443   0.0000077
    2   0.0001033  -0.0000264  -0.0000239  -0.0004302
    3   0.0000686   0.0000502   0.0000492  -0.0002067
 Max gradient component =       1.396E-03
 RMS gradient           =       4.256E-04
 Gradient time:  CPU 2.06 s  wall 2.08 s
 Geometry Optimization Parameters
   NAtoms,    NIC,     NZ,  NCons,   NDum,   NFix, NCnnct, MaxDiis
       16     111       0       1       0       0       0       0

 Cartesian Hessian Update
 Hessian Updated using BFGS Update


** CONSTRAINED OPTIMIZATION IN DELOCALIZED INTERNAL COORDINATES **
   Searching for a Minimum

   Optimization Cycle:   3

                       Coordinates (Angstroms)
     ATOM                X               Y               Z
      1  S         0.0103092486    0.0636509373    0.0118374121
      2  C         1.7420147860    0.0300267916    0.0067203341
      3  H         2.2870167541    0.0356232086    0.9410058301
      4  C         2.2448949884   -0.0001028769   -1.2680148996
      5  H         3.3054251311   -0.0259776169   -1.4915598008
      6  C         1.2219940318   -0.0038832020   -2.2628426561
      7  H         1.4098614231   -0.0298846604   -3.3302967166
      8  C        -0.0506369785    0.0339831929   -1.7427228096
      9  C        -1.3292359037    0.0416854027   -2.4632274951
     10  C        -1.9597036885    1.1020992321   -3.0711459508
     11  H        -1.5370702433    2.1005986763   -3.0766604237
     12  C        -3.1994148922    0.7525071192   -3.6851109916
     13  H        -3.8332966156    1.4572587632   -4.2113232846
     14  C        -3.5100782261   -0.5734435878   -3.5303541532
     15  H        -4.3830595194   -1.1023418675   -3.8885733157
     16  S        -2.2886763959   -1.4187005023   -2.6395875489
   Point Group: c1    Number of degrees of freedom:    42


   Energy is  -1104.837393589

              Constraints and their Current Values
                                        Value     Constraint
   Dihedral:        6   8   9  10      -80.000      -80.000
 Hessian Updated using BFGS Update

 36 Hessian modes will be used to form the next step
  Hessian Eigenvalues:
     0.025485    0.045000    0.045001    0.045006    0.045012    0.045437
     0.046768    0.155242    0.159947    0.159992    0.160000    0.160116
     0.160502    0.221278    0.222637    0.230825    0.237837    0.250003
     0.287088    0.294412    0.295365    0.312570    0.313962    0.354772
     0.354926    0.355129    0.355208    0.358272    0.358711    0.399075
     0.404883    0.420577    0.463582    0.477181    0.497933    0.498956

 Minimum Search - Taking Simple RFO Step
 Searching for Lamda that Minimizes Along All modes
 Value Taken    Lamda =  -0.00001318
 Step Taken.  Stepsize is  0.020018

                             Maximum     Tolerance    Cnvgd?
         Gradient           0.000472      0.000300      NO
         Displacement       0.012017      0.001200      NO
         Energy change     -0.000036      0.000001      NO


 New Cartesian Coordinates Obtained by Inverse Iteration

 Displacement from previous Coordinates is:  0.014890
 ----------------------------------------------------------------
             Standard Nuclear Orientation (Angstroms)
    I     Atom           X                Y                Z
 ----------------------------------------------------------------
    1      S       0.0105441472     0.0609472084     0.0117544513
    2      C       1.7422346194     0.0298407616     0.0067451939
    3      H       2.2878998948     0.0343232383     0.9407359971
    4      C       2.2450635653     0.0015654127    -1.2679353016
    5      H       3.3055766461    -0.0238150349    -1.4911250045
    6      C       1.2215925496    -0.0015609848    -2.2628718667
    7      H       1.4083227476    -0.0317556350    -3.3303813310
    8      C      -0.0510110557     0.0350849992    -1.7422795464
    9      C      -1.3286299238     0.0406838282    -2.4641087605
   10      C      -1.9582170901     1.1012794777    -3.0729110702
   11      H      -1.5367197735     2.1002376937    -3.0742051973
   12      C      -3.1987682566     0.7521696852    -3.6865515020
   13      H      -3.8325936704     1.4565843300    -4.2130704443
   14      C      -3.5104446569    -0.5732413621    -3.5302501808
   15      H      -4.3843274087    -1.1012377839    -3.8878293132
   16      S      -2.2901784344    -1.4180068246    -2.6375725940
 ----------------------------------------------------------------
 Nuclear Repulsion Energy =   628.2657492946 hartrees
 There are       43 alpha and       43 beta electrons
 Applying Cartesian multipole field
    Component          Value
    ---------          -----
     (2,0,0)        1.00000E-11
     (0,2,0)        2.00000E-11
     (0,0,2)       -3.00000E-11
 Nucleus-field energy     =    -0.0000000342 hartrees
 Requested basis set is 6-31++G(d,p)
 There are 76 shells and 234 basis functions
 A cutoff of  1.0D-12 yielded   2525 shell pairs
 There are     24869 function pairs

 Q-Chem warning in module /project/projectdirs/jcesr/qchem/qc44/cnl_qc441/compile/cori/qc_src/libqints/qchem/aobasis.C, line 68:

 Using reconstructed effective core potential

 Smallest overlap matrix eigenvalue = 1.21E-06
 Guess MOs from SCF MO coefficient file
 Reading MOs from coefficient file
 Reading MOs from coefficient file
 A restricted hybrid HF-DFT SCF calculation will be
 performed using Pulay DIIS extrapolation
 Exchange:     0.2000 Hartree-Fock + 0.0800 Slater + 0.7200 B88
 Correlation:  0.1900 VWN1RPA + 0.8100 LYP
 Using SG-1 standard quadrature grid
 SCF converges when DIIS error is below 1.0E-08
 Geometry optimization detected.  Setting ReadMinima to 0
 Setting SaveMinima to 0
 ---------------------------------------
  Cycle       Energy         DIIS Error
 ---------------------------------------
    1   -1104.8366415870      1.05E-04
    2   -1104.8374007079      1.15E-05
    3   -1104.8373973170      2.44E-05
    4   -1104.8374018494      3.18E-06
    5   -1104.8374019195      6.63E-07
    6   -1104.8374019218      4.00E-07
    7   -1104.8374019221      1.48E-07
    8   -1104.8374019212      3.99E-08
    9   -1104.8374019221      1.02E-08
   10   -1104.8374019216      2.46E-09 Convergence criterion met
 ---------------------------------------
 SCF time:  CPU 5.52 s  wall 5.14 s
 SCF   energy in the final basis set = -1104.8374019216
 Total energy in the final basis set = -1104.8374019216
 
 --------------------------------------------------------------
 
                    Orbital Energies (a.u.)
 --------------------------------------------------------------
 
 Alpha MOs
 -- Occupied --
-88.919 -88.919 -10.236 -10.235 -10.225 -10.225 -10.204 -10.204
-10.203 -10.203  -7.978  -7.978  -5.942  -5.942  -5.939  -5.939
 -5.936  -5.935  -0.898  -0.877  -0.768  -0.743  -0.740  -0.705
 -0.600  -0.567  -0.564  -0.534  -0.523  -0.478  -0.417  -0.413
 -0.413  -0.405  -0.393  -0.375  -0.375  -0.351  -0.350  -0.264
 -0.257  -0.250  -0.237
 -- Virtual --
 -0.037  -0.029  -0.006  -0.002   0.006   0.013   0.020   0.023
  0.026   0.034   0.035   0.042   0.045   0.046   0.065   0.068
  0.071   0.071   0.082   0.102   0.102   0.107   0.108   0.115
  0.115   0.118   0.124   0.127   0.132   0.132   0.138   0.142
  0.145   0.151   0.158   0.162   0.166   0.173   0.179   0.183
  0.184   0.190   0.192   0.205   0.212   0.218   0.220   0.228
  0.245   0.251   0.252   0.266   0.272   0.274   0.298   0.299
  0.306   0.315   0.327   0.331   0.356   0.365   0.372   0.393
  0.432   0.471   0.477   0.492   0.522   0.528   0.552   0.576
  0.581   0.588   0.611   0.640   0.645   0.659   0.672   0.677
  0.685   0.698   0.726   0.726   0.737   0.760   0.767   0.769
  0.790   0.802   0.806   0.828   0.842   0.897   0.908   0.943
  0.950   0.959   0.963   0.968   0.969   0.988   0.993   1.017
  1.018   1.023   1.044   1.045   1.078   1.097   1.101   1.107
  1.130   1.185   1.215   1.219   1.240   1.286   1.325   1.348
  1.352   1.357   1.361   1.392   1.454   1.465   1.490   1.522
  1.569   1.691   1.694   1.784   1.831   1.847   1.876   1.881
  1.915   1.924   1.952   1.963   2.016   2.018   2.062   2.095
  2.129   2.165   2.188   2.200   2.214   2.249   2.261   2.332
  2.366   2.371   2.432   2.441   2.463   2.478   2.491   2.511
  2.514   2.526   2.581   2.585   2.619   2.639   2.696   2.703
  2.758   2.820   2.865   2.875   2.935   3.162   3.178   3.269
  3.271   3.401   3.426   3.721   3.742   3.964   3.972   4.283
  4.309   4.321   4.328   4.434   4.534   4.661   4.710
 --------------------------------------------------------------
 
          Ground-State Mulliken Net Atomic Charges

     Atom                 Charge (a.u.)
  ----------------------------------------
      1 S                     0.049964
      2 C                    -0.036505
      3 H                     0.188329
      4 C                    -0.401956
      5 H                     0.117933
      6 C                     0.338930
      7 H                     0.134349
      8 C                    -0.393695
      9 C                    -0.387348
     10 C                     0.337900
     11 H                     0.134278
     12 C                    -0.400679
     13 H                     0.117891
     14 C                    -0.036769
     15 H                     0.188406
     16 S                     0.048973
  ----------------------------------------
  Sum of atomic charges =     0.000000

 -----------------------------------------------------------------
                    Cartesian Multipole Moments
 -----------------------------------------------------------------
    Charge (ESU x 10^10)
                 0.0000
    Dipole Moment (Debye)
         X       0.3095      Y       0.4941      Z      -0.5466
       Tot       0.7991
    Quadrupole Moments (Debye-Ang)
        XX     -64.1942     XY      -0.1273     YY     -73.6800
        XZ       4.9208     YZ      -1.9964     ZZ     -68.1507
    Octopole Moments (Debye-Ang^2)
       XXX     157.7043    XXY       2.9587    XYY      46.1434
       YYY      29.9210    XXZ     106.5241    XYZ       1.2911
       YYZ     134.8761    XZZ      41.6019    YZZ      16.6241
       ZZZ     415.6570
    Hexadecapole Moments (Debye-Ang^3)
      XXXX   -1753.0938   XXXY     -43.6018   XXYY    -363.1158
      XYYY     -81.2668   YYYY    -342.2650   XXXZ    -601.6463
      XXYZ      -4.4056   XYYZ    -213.6156   YYYZ     -76.1432
      XXZZ    -582.0417   XYZZ     -34.8923   YYZZ    -452.9697
      XZZZ    -682.8286   YZZZ     -91.2315   ZZZZ   -2525.8949
 -----------------------------------------------------------------
 Calculating analytic gradient of the SCF energy
 Gradient of SCF Energy
            1           2           3           4           5           6
    1   0.0000485  -0.0001608   0.0000311   0.0001816  -0.0000123  -0.0002714
    2   0.0000540   0.0000731  -0.0000560   0.0001845  -0.0000916  -0.0011298
    3   0.0000720  -0.0000597  -0.0000012   0.0000983  -0.0000037   0.0000689
            7           8           9          10          11          12
    1  -0.0000451   0.0003314   0.0002271  -0.0003980   0.0000852  -0.0000994
    2   0.0001265   0.0014422  -0.0005420   0.0000778  -0.0000295  -0.0000406
    3  -0.0000197   0.0004323  -0.0014189   0.0011009  -0.0000430  -0.0002428
           13          14          15          16
    1  -0.0000450   0.0001922  -0.0000349  -0.0000302
    2   0.0000212  -0.0000462   0.0000205  -0.0000642
    3   0.0001056   0.0000086   0.0000083  -0.0001057
 Max gradient component =       1.442E-03
 RMS gradient           =       4.024E-04
 Gradient time:  CPU 2.06 s  wall 2.06 s
 Geometry Optimization Parameters
   NAtoms,    NIC,     NZ,  NCons,   NDum,   NFix, NCnnct, MaxDiis
       16     111       0       1       0       0       0       0

 Cartesian Hessian Update
 Hessian Updated using BFGS Update


** CONSTRAINED OPTIMIZATION IN DELOCALIZED INTERNAL COORDINATES **
   Searching for a Minimum

   Optimization Cycle:   4

                       Coordinates (Angstroms)
     ATOM                X               Y               Z
      1  S         0.0105441472    0.0609472084    0.0117544513
      2  C         1.7422346194    0.0298407616    0.0067451939
      3  H         2.2878998948    0.0343232383    0.9407359971
      4  C         2.2450635653    0.0015654127   -1.2679353016
      5  H         3.3055766461   -0.0238150349   -1.4911250045
      6  C         1.2215925496   -0.0015609848   -2.2628718667
      7  H         1.4083227476   -0.0317556350   -3.3303813310
      8  C        -0.0510110557    0.0350849992   -1.7422795464
      9  C        -1.3286299238    0.0406838282   -2.4641087605
     10  C        -1.9582170901    1.1012794777   -3.0729110702
     11  H        -1.5367197735    2.1002376937   -3.0742051973
     12  C        -3.1987682566    0.7521696852   -3.6865515020
     13  H        -3.8325936704    1.4565843300   -4.2130704443
     14  C        -3.5104446569   -0.5732413621   -3.5302501808
     15  H        -4.3843274087   -1.1012377839   -3.8878293132
     16  S        -2.2901784344   -1.4180068246   -2.6375725940
   Point Group: c1    Number of degrees of freedom:    42


   Energy is  -1104.837401922

              Constraints and their Current Values
                                        Value     Constraint
   Dihedral:        6   8   9  10      -80.000      -80.000
 Hessian Updated using BFGS Update

 39 Hessian modes will be used to form the next step
  Hessian Eigenvalues:
     0.017793    0.044799    0.045000    0.045000    0.045001    0.045002
     0.045004    0.045012    0.045029    0.049053    0.159514    0.159947
     0.159992    0.160000    0.160146    0.160981    0.221283    0.223557
     0.236031    0.237840    0.249998    0.280929    0.294095    0.294693
     0.312569    0.314414    0.354761    0.354891    0.355129    0.355455
     0.358273    0.358803    0.382554    0.404882    0.440056    0.461547
     0.463584    0.497933    0.505758

 Minimum Search - Taking Simple RFO Step
 Searching for Lamda that Minimizes Along All modes
 Value Taken    Lamda =  -0.00000376
 Step Taken.  Stepsize is  0.012116

                             Maximum     Tolerance    Cnvgd?
         Gradient           0.000371      0.000300      NO
         Displacement       0.008204      0.001200      NO
         Energy change     -0.000008      0.000001      NO


 New Cartesian Coordinates Obtained by Inverse Iteration

 Displacement from previous Coordinates is:  0.012769
 ----------------------------------------------------------------
             Standard Nuclear Orientation (Angstroms)
    I     Atom           X                Y                Z
 ----------------------------------------------------------------
    1      S       0.0099994247     0.0589550152     0.0110848325
    2      C       1.7417795185     0.0282614699     0.0067882720
    3      H       2.2871051865     0.0320988456     0.9409632116
    4      C       2.2449173699     0.0019777352    -1.2678100885
    5      H       3.3055586923    -0.0221077305    -1.4905354094
    6      C       1.2219681712     0.0002838361    -2.2631532542
    7      H       1.4092198478    -0.0311478927    -3.3305161572
    8      C      -0.0510555289     0.0362307601    -1.7427805512
    9      C      -1.3277256866     0.0406798227    -2.4651217206
   10      C      -1.9573859710     1.1011895961    -3.0746524988
   11      H      -1.5368973282     2.1005533029    -3.0751661183
   12      C      -3.1985309601     0.7519224379    -3.6867822549
   13      H      -3.8320725787     1.4557734688    -4.2143984184
   14      C      -3.5109934670    -0.5730830656    -3.5286353005
   15      H      -4.3850957704    -1.1011839569    -3.8854792015
   16      S      -2.2904470200    -1.4173046347    -2.6356618126
 ----------------------------------------------------------------
 Nuclear Repulsion Energy =   628.3158513154 hartrees
 There are       43 alpha and       43 beta electrons
 Applying Cartesian multipole field
    Component          Value
    ---------          -----
     (2,0,0)        1.00000E-11
     (0,2,0)        2.00000E-11
     (0,0,2)       -3.00000E-11
 Nucleus-field energy     =    -0.0000000342 hartrees
 Requested basis set is 6-31++G(d,p)
 There are 76 shells and 234 basis functions
 A cutoff of  1.0D-12 yielded   2525 shell pairs
 There are     24869 function pairs

 Q-Chem warning in module /project/projectdirs/jcesr/qchem/qc44/cnl_qc441/compile/cori/qc_src/libqints/qchem/aobasis.C, line 68:

 Using reconstructed effective core potential

 Smallest overlap matrix eigenvalue = 1.22E-06
 Guess MOs from SCF MO coefficient file
 Reading MOs from coefficient file
 Reading MOs from coefficient file
 A restricted hybrid HF-DFT SCF calculation will be
 performed using Pulay DIIS extrapolation
 Exchange:     0.2000 Hartree-Fock + 0.0800 Slater + 0.7200 B88
 Correlation:  0.1900 VWN1RPA + 0.8100 LYP
 Using SG-1 standard quadrature grid
 SCF converges when DIIS error is below 1.0E-08
 Geometry optimization detected.  Setting ReadMinima to 0
 Setting SaveMinima to 0
 ---------------------------------------
  Cycle       Energy         DIIS Error
 ---------------------------------------
    1   -1104.8368431536      7.14E-05
    2   -1104.8374038198      7.63E-06
    3   -1104.8374034264      1.11E-05
    4   -1104.8374043508      2.31E-06
    5   -1104.8374043864      6.09E-07
    6   -1104.8374043883      3.45E-07
    7   -1104.8374043892      1.65E-07
    8   -1104.8374043889      4.97E-08
    9   -1104.8374043875      6.20E-09 Convergence criterion met
 ---------------------------------------
 SCF time:  CPU 4.92 s  wall 4.84 s
 SCF   energy in the final basis set = -1104.8374043875
 Total energy in the final basis set = -1104.8374043875
 
 --------------------------------------------------------------
 
                    Orbital Energies (a.u.)
 --------------------------------------------------------------
 
 Alpha MOs
 -- Occupied --
-88.919 -88.919 -10.236 -10.235 -10.225 -10.225 -10.204 -10.204
-10.203 -10.203  -7.978  -7.978  -5.942  -5.942  -5.939  -5.939
 -5.936  -5.935  -0.898  -0.877  -0.768  -0.743  -0.740  -0.705
 -0.600  -0.567  -0.564  -0.534  -0.523  -0.478  -0.417  -0.413
 -0.413  -0.405  -0.394  -0.375  -0.375  -0.351  -0.350  -0.264
 -0.257  -0.250  -0.237
 -- Virtual --
 -0.038  -0.029  -0.006  -0.002   0.006   0.013   0.020   0.024
  0.026   0.034   0.035   0.042   0.045   0.046   0.065   0.068
  0.071   0.071   0.082   0.102   0.102   0.107   0.108   0.115
  0.115   0.118   0.124   0.127   0.132   0.133   0.138   0.142
  0.145   0.151   0.158   0.162   0.166   0.173   0.179   0.183
  0.184   0.190   0.192   0.205   0.213   0.218   0.220   0.228
  0.245   0.251   0.252   0.266   0.273   0.274   0.298   0.299
  0.306   0.315   0.327   0.331   0.356   0.365   0.372   0.393
  0.432   0.471   0.477   0.492   0.522   0.529   0.552   0.576
  0.581   0.588   0.611   0.640   0.645   0.659   0.672   0.677
  0.685   0.698   0.726   0.726   0.737   0.760   0.767   0.769
  0.790   0.802   0.806   0.828   0.842   0.897   0.908   0.943
  0.950   0.959   0.963   0.968   0.969   0.988   0.993   1.017
  1.018   1.023   1.044   1.045   1.078   1.097   1.101   1.107
  1.130   1.185   1.215   1.219   1.240   1.286   1.325   1.348
  1.352   1.358   1.361   1.393   1.454   1.466   1.488   1.523
  1.569   1.692   1.694   1.784   1.830   1.848   1.876   1.881
  1.915   1.924   1.952   1.963   2.016   2.018   2.062   2.095
  2.129   2.165   2.189   2.201   2.214   2.249   2.261   2.332
  2.366   2.371   2.432   2.441   2.463   2.478   2.491   2.511
  2.514   2.526   2.581   2.585   2.619   2.639   2.696   2.703
  2.759   2.820   2.865   2.875   2.935   3.162   3.178   3.269
  3.271   3.401   3.426   3.721   3.742   3.964   3.973   4.283
  4.309   4.321   4.328   4.434   4.534   4.661   4.710
 --------------------------------------------------------------
 
          Ground-State Mulliken Net Atomic Charges

     Atom                 Charge (a.u.)
  ----------------------------------------
      1 S                     0.049551
      2 C                    -0.036582
      3 H                     0.188348
      4 C                    -0.402623
      5 H                     0.117934
      6 C                     0.339279
      7 H                     0.134355
      8 C                    -0.392986
      9 C                    -0.386498
     10 C                     0.338157
     11 H                     0.134282
     12 C                    -0.401289
     13 H                     0.117892
     14 C                    -0.036835
     15 H                     0.188427
     16 S                     0.048589
  ----------------------------------------
  Sum of atomic charges =     0.000000

 -----------------------------------------------------------------
                    Cartesian Multipole Moments
 -----------------------------------------------------------------
    Charge (ESU x 10^10)
                 0.0000
    Dipole Moment (Debye)
         X       0.3083      Y       0.4924      Z      -0.5445
       Tot       0.7962
    Quadrupole Moments (Debye-Ang)
        XX     -64.1906     XY      -0.1244     YY     -73.6809
        XZ       4.9200     YZ      -1.9988     ZZ     -68.1590
    Octopole Moments (Debye-Ang^2)
       XXX     157.6920    XXY       2.9548    XYY      46.1482
       YYY      29.9491    XXZ     106.5200    XYZ       1.2910
       YYZ     134.8813    XZZ      41.6205    YZZ      16.6363
       ZZZ     415.6720
    Hexadecapole Moments (Debye-Ang^3)
      XXXX   -1752.9449   XXXY     -43.4313   XXYY    -363.0806
      XYYY     -81.2620   YYYY    -342.0651   XXXZ    -601.4312
      XXYZ      -4.3136   XYYZ    -213.5773   YYYZ     -75.7969
      XXZZ    -582.0245   XYZZ     -34.9938   YYZZ    -452.9083
      XZZZ    -682.6796   YZZZ     -90.9757   ZZZZ   -2525.4704
 -----------------------------------------------------------------
 Calculating analytic gradient of the SCF energy
 Gradient of SCF Energy
            1           2           3           4           5           6
    1   0.0000224  -0.0000817   0.0000304   0.0001014  -0.0000146  -0.0000850
    2  -0.0000000   0.0000537  -0.0000447   0.0001059  -0.0000539  -0.0010039
    3  -0.0000310  -0.0000289  -0.0000068   0.0000779   0.0000085  -0.0000562
            7           8           9          10          11          12
    1  -0.0000231  -0.0001885   0.0006404  -0.0004025   0.0000064  -0.0000661
    2   0.0000135   0.0016122  -0.0008974   0.0002418  -0.0000023  -0.0000416
    3  -0.0000067   0.0005054  -0.0012862   0.0009094   0.0000392  -0.0001383
           13          14          15          16
    1  -0.0000321   0.0001086  -0.0000266   0.0000107
    2   0.0000011  -0.0000298   0.0000226   0.0000228
    3   0.0000747  -0.0000155  -0.0000018  -0.0000438
 Max gradient component =       1.612E-03
 RMS gradient           =       4.062E-04
 Gradient time:  CPU 2.12 s  wall 2.09 s
 Geometry Optimization Parameters
   NAtoms,    NIC,     NZ,  NCons,   NDum,   NFix, NCnnct, MaxDiis
       16     111       0       1       0       0       0       0

 Cartesian Hessian Update
 Hessian Updated using BFGS Update


** CONSTRAINED OPTIMIZATION IN DELOCALIZED INTERNAL COORDINATES **
   Searching for a Minimum

   Optimization Cycle:   5

                       Coordinates (Angstroms)
     ATOM                X               Y               Z
      1  S         0.0099994247    0.0589550152    0.0110848325
      2  C         1.7417795185    0.0282614699    0.0067882720
      3  H         2.2871051865    0.0320988456    0.9409632116
      4  C         2.2449173699    0.0019777352   -1.2678100885
      5  H         3.3055586923   -0.0221077305   -1.4905354094
      6  C         1.2219681712    0.0002838361   -2.2631532542
      7  H         1.4092198478   -0.0311478927   -3.3305161572
      8  C        -0.0510555289    0.0362307601   -1.7427805512
      9  C        -1.3277256866    0.0406798227   -2.4651217206
     10  C        -1.9573859710    1.1011895961   -3.0746524988
     11  H        -1.5368973282    2.1005533029   -3.0751661183
     12  C        -3.1985309601    0.7519224379   -3.6867822549
     13  H        -3.8320725787    1.4557734688   -4.2143984184
     14  C        -3.5109934670   -0.5730830656   -3.5286353005
     15  H        -4.3850957704   -1.1011839569   -3.8854792015
     16  S        -2.2904470200   -1.4173046347   -2.6356618126
   Point Group: c1    Number of degrees of freedom:    42


   Energy is  -1104.837404387

              Constraints and their Current Values
                                        Value     Constraint
   Dihedral:        6   8   9  10      -80.000      -80.000
 Hessian Updated using BFGS Update

 39 Hessian modes will be used to form the next step
  Hessian Eigenvalues:
     0.013374    0.041184    0.045000    0.045000    0.045000    0.045000
     0.045003    0.045007    0.045389    0.048400    0.155504    0.159947
     0.159992    0.160000    0.160193    0.160841    0.221280    0.222629
     0.234534    0.237849    0.250009    0.276587    0.294392    0.296550
     0.312568    0.314385    0.354744    0.354852    0.355129    0.355418
     0.358273    0.358850    0.400879    0.404882    0.434857    0.463583
     0.470148    0.497933    0.502843

 Minimum Search - Taking Simple RFO Step
 Searching for Lamda that Minimizes Along All modes
 Value Taken    Lamda =  -0.00000131
 Step Taken.  Stepsize is  0.008046

                             Maximum     Tolerance    Cnvgd?
         Gradient           0.000128      0.000300     YES
         Displacement       0.004596      0.001200      NO
         Energy change     -0.000002      0.000001      NO


 New Cartesian Coordinates Obtained by Inverse Iteration

 Displacement from previous Coordinates is:  0.013120
 ----------------------------------------------------------------
             Standard Nuclear Orientation (Angstroms)
    I     Atom           X                Y                Z
 ----------------------------------------------------------------
    1      S       0.0095968263     0.0573461440     0.0104299971
    2      C       1.7414454645     0.0264451223     0.0069742256
    3      H       2.2861837264     0.0298514731     0.9414715088
    4      C       2.2449953193     0.0019010847    -1.2675108741
    5      H       3.3057730276    -0.0208293831    -1.4898475520
    6      C       1.2226228015     0.0016507082    -2.2632522261
    7      H       1.4106173262    -0.0293554782    -3.3304881838
    8      C      -0.0507770138     0.0372288636    -1.7434796358
    9      C      -1.3270404150     0.0411079173    -2.4661406247
   10      C      -1.9571042187     1.1012415298    -3.0761632707
   11      H      -1.5369781976     2.1007482362    -3.0774424382
   12      C      -3.1987876862     0.7517433686    -3.6867491798
   13      H      -3.8319875602     1.4550525124    -4.2155509134
   14      C      -3.5117654640    -0.5729558722    -3.5269157111
   15      H      -4.3858528565    -1.1014853004    -3.8830989795
   16      S      -2.2905971796    -1.4165919162    -2.6340926123
 ----------------------------------------------------------------
 Nuclear Repulsion Energy =   628.3405706897 hartrees
 There are       43 alpha and       43 beta electrons
 Applying Cartesian multipole field
    Component          Value
    ---------          -----
     (2,0,0)        1.00000E-11
     (0,2,0)        2.00000E-11
     (0,0,2)       -3.00000E-11
 Nucleus-field energy     =    -0.0000000342 hartrees
 Requested basis set is 6-31++G(d,p)
 There are 76 shells and 234 basis functions
 A cutoff of  1.0D-12 yielded   2525 shell pairs
 There are     24869 function pairs

 Q-Chem warning in module /project/projectdirs/jcesr/qchem/qc44/cnl_qc441/compile/cori/qc_src/libqints/qchem/aobasis.C, line 68:

 Using reconstructed effective core potential

 Smallest overlap matrix eigenvalue = 1.22E-06
 Guess MOs from SCF MO coefficient file
 Reading MOs from coefficient file
 Reading MOs from coefficient file
 A restricted hybrid HF-DFT SCF calculation will be
 performed using Pulay DIIS extrapolation
 Exchange:     0.2000 Hartree-Fock + 0.0800 Slater + 0.7200 B88
 Correlation:  0.1900 VWN1RPA + 0.8100 LYP
 Using SG-1 standard quadrature grid
 SCF converges when DIIS error is below 1.0E-08
 Geometry optimization detected.  Setting ReadMinima to 0
 Setting SaveMinima to 0
 ---------------------------------------
  Cycle       Energy         DIIS Error
 ---------------------------------------
    1   -1104.8370264377      5.48E-05
    2   -1104.8374046550      8.02E-06
    3   -1104.8374035190      1.47E-05
    4   -1104.8374052237      2.32E-06
    5   -1104.8374052580      9.23E-07
    6   -1104.8374052649      3.89E-07
    7   -1104.8374052663      1.09E-07
    8   -1104.8374052653      2.95E-08
    9   -1104.8374052646      4.39E-09 Convergence criterion met
 ---------------------------------------
 SCF time:  CPU 4.97 s  wall 4.64 s
 SCF   energy in the final basis set = -1104.8374052646
 Total energy in the final basis set = -1104.8374052646
 
 --------------------------------------------------------------
 
                    Orbital Energies (a.u.)
 --------------------------------------------------------------
 
 Alpha MOs
 -- Occupied --
-88.919 -88.919 -10.236 -10.235 -10.225 -10.225 -10.204 -10.204
-10.203 -10.203  -7.978  -7.978  -5.942  -5.942  -5.939  -5.939
 -5.936  -5.935  -0.898  -0.877  -0.768  -0.743  -0.740  -0.705
 -0.600  -0.567  -0.564  -0.534  -0.523  -0.478  -0.417  -0.414
 -0.413  -0.405  -0.394  -0.375  -0.375  -0.351  -0.350  -0.264
 -0.257  -0.250  -0.236
 -- Virtual --
 -0.038  -0.029  -0.006  -0.002   0.006   0.013   0.020   0.024
  0.026   0.034   0.035   0.042   0.045   0.046   0.065   0.068
  0.071   0.071   0.082   0.101   0.102   0.107   0.108   0.115
  0.115   0.118   0.124   0.128   0.132   0.133   0.138   0.142
  0.145   0.151   0.158   0.162   0.166   0.173   0.179   0.183
  0.184   0.190   0.192   0.205   0.213   0.218   0.220   0.228
  0.245   0.251   0.252   0.266   0.273   0.274   0.298   0.299
  0.306   0.315   0.327   0.331   0.356   0.365   0.372   0.393
  0.432   0.471   0.477   0.492   0.522   0.529   0.552   0.576
  0.581   0.588   0.611   0.640   0.645   0.659   0.672   0.677
  0.685   0.698   0.726   0.726   0.737   0.760   0.767   0.769
  0.789   0.802   0.806   0.828   0.842   0.897   0.907   0.943
  0.950   0.959   0.963   0.967   0.969   0.988   0.993   1.017
  1.018   1.023   1.044   1.045   1.079   1.097   1.101   1.107
  1.130   1.184   1.215   1.219   1.240   1.286   1.325   1.348
  1.352   1.357   1.362   1.393   1.453   1.466   1.488   1.523
  1.569   1.692   1.694   1.784   1.830   1.848   1.876   1.881
  1.915   1.924   1.952   1.963   2.016   2.018   2.062   2.095
  2.129   2.165   2.189   2.201   2.213   2.249   2.261   2.332
  2.366   2.371   2.432   2.441   2.463   2.478   2.491   2.511
  2.515   2.526   2.582   2.585   2.618   2.639   2.697   2.703
  2.759   2.820   2.865   2.875   2.935   3.162   3.178   3.269
  3.271   3.401   3.426   3.721   3.742   3.964   3.973   4.283
  4.309   4.321   4.328   4.434   4.534   4.661   4.710
 --------------------------------------------------------------
 
          Ground-State Mulliken Net Atomic Charges

     Atom                 Charge (a.u.)
  ----------------------------------------
      1 S                     0.049037
      2 C                    -0.036494
      3 H                     0.188397
      4 C                    -0.403262
      5 H                     0.117938
      6 C                     0.339992
      7 H                     0.134358
      8 C                    -0.392763
      9 C                    -0.386166
     10 C                     0.338840
     11 H                     0.134282
     12 C                    -0.401890
     13 H                     0.117898
     14 C                    -0.036731
     15 H                     0.188478
     16 S                     0.048086
  ----------------------------------------
  Sum of atomic charges =     0.000000

 -----------------------------------------------------------------
                    Cartesian Multipole Moments
 -----------------------------------------------------------------
    Charge (ESU x 10^10)
                 0.0000
    Dipole Moment (Debye)
         X       0.3082      Y       0.4923      Z      -0.5444
       Tot       0.7961
    Quadrupole Moments (Debye-Ang)
        XX     -64.1895     XY      -0.1178     YY     -73.6823
        XZ       4.9199     YZ      -2.0068     ZZ     -68.1556
    Octopole Moments (Debye-Ang^2)
       XXX     157.6928    XXY       2.9491    XYY      46.1537
       YYY      29.9707    XXZ     106.5132    XYZ       1.2802
       YYZ     134.8769    XZZ      41.6283    YZZ      16.6762
       ZZZ     415.6348
    Hexadecapole Moments (Debye-Ang^3)
      XXXX   -1753.1434   XXXY     -43.1799   XXYY    -363.0952
      XYYY     -81.1653   YYYY    -341.8888   XXXZ    -601.3029
      XXYZ      -4.2202   XYYZ    -213.5416   YYYZ     -75.4680
      XXZZ    -582.0255   XYZZ     -35.0368   YYZZ    -452.7923
      XZZZ    -682.5250   YZZZ     -90.8539   ZZZZ   -2524.8207
 -----------------------------------------------------------------
 Calculating analytic gradient of the SCF energy
 Gradient of SCF Energy
            1           2           3           4           5           6
    1   0.0000072   0.0000023   0.0000100  -0.0000023  -0.0000007   0.0000256
    2  -0.0000109   0.0000155  -0.0000260   0.0000306  -0.0000077  -0.0009766
    3  -0.0000586   0.0000093  -0.0000058   0.0000090   0.0000070  -0.0000302
            7           8           9          10          11          12
    1  -0.0000017  -0.0003821   0.0008256  -0.0004811  -0.0000314   0.0000084
    2  -0.0000200   0.0017094  -0.0010105   0.0002665   0.0000072  -0.0000127
    3   0.0000047   0.0005002  -0.0012696   0.0008296   0.0000540  -0.0000166
           13          14          15          16
    1  -0.0000189   0.0000116  -0.0000032   0.0000306
    2  -0.0000005  -0.0000148   0.0000084   0.0000421
    3   0.0000288  -0.0000295  -0.0000079  -0.0000242
 Max gradient component =       1.709E-03
 RMS gradient           =       4.232E-04
 Gradient time:  CPU 2.05 s  wall 2.07 s
 Geometry Optimization Parameters
   NAtoms,    NIC,     NZ,  NCons,   NDum,   NFix, NCnnct, MaxDiis
       16     111       0       1       0       0       0       0

 Cartesian Hessian Update
 Hessian Updated using BFGS Update


** CONSTRAINED OPTIMIZATION IN DELOCALIZED INTERNAL COORDINATES **
   Searching for a Minimum

   Optimization Cycle:   6

                       Coordinates (Angstroms)
     ATOM                X               Y               Z
      1  S         0.0095968263    0.0573461440    0.0104299971
      2  C         1.7414454645    0.0264451223    0.0069742256
      3  H         2.2861837264    0.0298514731    0.9414715088
      4  C         2.2449953193    0.0019010847   -1.2675108741
      5  H         3.3057730276   -0.0208293831   -1.4898475520
      6  C         1.2226228015    0.0016507082   -2.2632522261
      7  H         1.4106173262   -0.0293554782   -3.3304881838
      8  C        -0.0507770138    0.0372288636   -1.7434796358
      9  C        -1.3270404150    0.0411079173   -2.4661406247
     10  C        -1.9571042187    1.1012415298   -3.0761632707
     11  H        -1.5369781976    2.1007482362   -3.0774424382
     12  C        -3.1987876862    0.7517433686   -3.6867491798
     13  H        -3.8319875602    1.4550525124   -4.2155509134
     14  C        -3.5117654640   -0.5729558722   -3.5269157111
     15  H        -4.3858528565   -1.1014853004   -3.8830989795
     16  S        -2.2905971796   -1.4165919162   -2.6340926123
   Point Group: c1    Number of degrees of freedom:    42


   Energy is  -1104.837405265

              Constraints and their Current Values
                                        Value     Constraint
   Dihedral:        6   8   9  10      -80.000      -80.000
 Hessian Updated using BFGS Update

 40 Hessian modes will be used to form the next step
  Hessian Eigenvalues:
     0.010702    0.032793    0.045000    0.045000    0.045000    0.045000
     0.045002    0.045012    0.045026    0.046219    0.047314    0.155812
     0.159947    0.159992    0.160000    0.160191    0.160592    0.221270
     0.223322    0.228595    0.237844    0.250010    0.284172    0.294403
     0.296838    0.312567    0.314321    0.354781    0.355075    0.355129
     0.355455    0.358273    0.358828    0.402376    0.404889    0.438002
     0.463584    0.479286    0.497934    0.509469

 Minimum Search - Taking Simple RFO Step
 Searching for Lamda that Minimizes Along All modes
 Value Taken    Lamda =   0.00000000
 Step Taken.  Stepsize is  0.005383

                             Maximum     Tolerance    Cnvgd?
         Gradient           0.000079      0.000300     YES
         Displacement       0.003955      0.001200      NO
         Energy change     -0.000001      0.000001     YES

 Final energy is   -1104.83740526461     


 ******************************
 **  OPTIMIZATION CONVERGED  **
 ******************************

                       Coordinates (Angstroms)
     ATOM                X               Y               Z
      1  S         0.0095968263    0.0573461440    0.0104299971
      2  C         1.7414454645    0.0264451223    0.0069742256
      3  H         2.2861837264    0.0298514731    0.9414715088
      4  C         2.2449953193    0.0019010847   -1.2675108741
      5  H         3.3057730276   -0.0208293831   -1.4898475520
      6  C         1.2226228015    0.0016507082   -2.2632522261
      7  H         1.4106173262   -0.0293554782   -3.3304881838
      8  C        -0.0507770138    0.0372288636   -1.7434796358
      9  C        -1.3270404150    0.0411079173   -2.4661406247
     10  C        -1.9571042187    1.1012415298   -3.0761632707
     11  H        -1.5369781976    2.1007482362   -3.0774424382
     12  C        -3.1987876862    0.7517433686   -3.6867491798
     13  H        -3.8319875602    1.4550525124   -4.2155509134
     14  C        -3.5117654640   -0.5729558722   -3.5269157111
     15  H        -4.3858528565   -1.1014853004   -3.8830989795
     16  S        -2.2905971796   -1.4165919162   -2.6340926123

Z-matrix Print:
$molecule
0 1
S 
C  1 1.732128
H  2 1.081682 1 120.115309
C  2 1.370575 1 111.685759 3 -179.896225 0
H  4 1.084066 2 123.408122 1 -179.929574 0
C  4 1.427146 2 112.681312 1 -0.274130 0
H  6 1.084111 4 124.238140 2 -179.132168 0
C  6 1.375855 4 113.543244 2 0.512821 0
C  8 1.466664 6 128.265639 4 -179.680719 0
C  9 1.375860 8 128.242575 6 -79.999999 0
H  10 1.084215 9 122.235344 8 -0.018463 0
C  10 1.427145 9 113.542387 8 -179.703425 0
H  12 1.084074 10 123.917972 9 -179.805188 0
C  12 1.370522 10 112.674629 9 0.531944 0
H  14 1.081776 12 128.196653 10 179.887136 0
S  14 1.732082 12 111.708913 10 -0.270145 0
$end

 
 --------------------------------------------------------------
 
                    Orbital Energies (a.u.)
 --------------------------------------------------------------
 
 Alpha MOs
 -- Occupied --
-88.919 -88.919 -10.236 -10.235 -10.225 -10.225 -10.204 -10.204
-10.203 -10.203  -7.978  -7.978  -5.942  -5.942  -5.939  -5.939
 -5.936  -5.935  -0.898  -0.877  -0.768  -0.743  -0.740  -0.705
 -0.600  -0.567  -0.564  -0.534  -0.523  -0.478  -0.417  -0.414
 -0.413  -0.405  -0.394  -0.375  -0.375  -0.351  -0.350  -0.264
 -0.257  -0.250  -0.236
 -- Virtual --
 -0.038  -0.029  -0.006  -0.002   0.006   0.013   0.020   0.024
  0.026   0.034   0.035   0.042   0.045   0.046   0.065   0.068
  0.071   0.071   0.082   0.101   0.102   0.107   0.108   0.115
  0.115   0.118   0.124   0.128   0.132   0.133   0.138   0.142
  0.145   0.151   0.158   0.162   0.166   0.173   0.179   0.183
  0.184   0.190   0.192   0.205   0.213   0.218   0.220   0.228
  0.245   0.251   0.252   0.266   0.273   0.274   0.298   0.299
  0.306   0.315   0.327   0.331   0.356   0.365   0.372   0.393
  0.432   0.471   0.477   0.492   0.522   0.529   0.552   0.576
  0.581   0.588   0.611   0.640   0.645   0.659   0.672   0.677
  0.685   0.698   0.726   0.726   0.737   0.760   0.767   0.769
  0.789   0.802   0.806   0.828   0.842   0.897   0.907   0.943
  0.950   0.959   0.963   0.967   0.969   0.988   0.993   1.017
  1.018   1.023   1.044   1.045   1.079   1.097   1.101   1.107
  1.130   1.184   1.215   1.219   1.240   1.286   1.325   1.348
  1.352   1.357   1.362   1.393   1.453   1.466   1.488   1.523
  1.569   1.692   1.694   1.784   1.830   1.848   1.876   1.881
  1.915   1.924   1.952   1.963   2.016   2.018   2.062   2.095
  2.129   2.165   2.189   2.201   2.213   2.249   2.261   2.332
  2.366   2.371   2.432   2.441   2.463   2.478   2.491   2.511
  2.515   2.526   2.582   2.585   2.618   2.639   2.697   2.703
  2.759   2.820   2.865   2.875   2.935   3.162   3.178   3.269
  3.271   3.401   3.426   3.721   3.742   3.964   3.973   4.283
  4.309   4.321   4.328   4.434   4.534   4.661   4.710
 --------------------------------------------------------------
 
          Ground-State Mulliken Net Atomic Charges

     Atom                 Charge (a.u.)
  ----------------------------------------
      1 S                     0.049037
      2 C                    -0.036494
      3 H                     0.188397
      4 C                    -0.403262
      5 H                     0.117938
      6 C                     0.339992
      7 H                     0.134358
      8 C                    -0.392763
      9 C                    -0.386166
     10 C                     0.338840
     11 H                     0.134282
     12 C                    -0.401890
     13 H                     0.117898
     14 C                    -0.036731
     15 H                     0.188478
     16 S                     0.048086
  ----------------------------------------
  Sum of atomic charges =     0.000000

 -----------------------------------------------------------------
                    Cartesian Multipole Moments
 -----------------------------------------------------------------
    Charge (ESU x 10^10)
                 0.0000
    Dipole Moment (Debye)
         X       0.3082      Y       0.4923      Z      -0.5444
       Tot       0.7961
    Quadrupole Moments (Debye-Ang)
        XX     -64.1895     XY      -0.1178     YY     -73.6823
        XZ       4.9199     YZ      -2.0068     ZZ     -68.1556
    Octopole Moments (Debye-Ang^2)
       XXX     157.6928    XXY       2.9491    XYY      46.1537
       YYY      29.9707    XXZ     106.5132    XYZ       1.2802
       YYZ     134.8769    XZZ      41.6283    YZZ      16.6762
       ZZZ     415.6348
    Hexadecapole Moments (Debye-Ang^3)
      XXXX   -1753.1434   XXXY     -43.1799   XXYY    -363.0952
      XYYY     -81.1653   YYYY    -341.8888   XXXZ    -601.3029
      XXYZ      -4.2202   XYYZ    -213.5416   YYYZ     -75.4680
      XXZZ    -582.0255   XYZZ     -35.0368   YYZZ    -452.7923
      XZZZ    -682.5250   YZZZ     -90.8539   ZZZZ   -2524.8207
 -----------------------------------------------------------------
Archival summary:
1\1\nid00472\OPT\ProcedureUnspecified\BasisUnspecified\286\bwood\WedMay3102:25:392017WedMay3102:25:392017\0\\#,OPT,ProcedureUnspecified,BasisUnspecified,\\0,1\S\C,1,1.73213\H,2,1.08168,1,120.115\C,2,1.37058,1,111.686,3,-179.896,0\H,4,1.08407,2,123.408,1,-179.93,0\C,4,1.42715,2,112.681,1,-0.27413,0\H,6,1.08411,4,124.238,2,-179.132,0\C,6,1.37585,4,113.543,2,0.512821,0\C,8,1.46666,6,128.266,4,-179.681,0\C,9,1.37586,8,128.243,6,-80,0\H,10,1.08421,9,122.235,8,-0.0184632,0\C,10,1.42714,9,113.542,8,-179.703,0\H,12,1.08407,10,123.918,9,-179.805,0\C,12,1.37052,10,112.675,9,0.531944,0\H,14,1.08178,12,128.197,10,179.887,0\S,14,1.73208,12,111.709,10,-0.270145,0\\\@

 Total job time:  49.40s(wall), 48.26s(cpu) 
 Wed May 31 02:25:39 2017

        *************************************************************
        *                                                           *
        *  Thank you very much for using Q-Chem.  Have a nice day.  *
        *                                                           *
        *************************************************************


0 sent ACK to 0 
now end server 0 ... 
