srun -N 1 --ntasks-per-node 16 --cpus-per-task 4 --cpu_bind=cores --nodelist nid00458 /global/project/projectdirs/jcesr/qchem/qc44/cnl_qc441/dist/exe/qcprog.cori.haswell.exe .pt_n2_neutral_10.0.in.47624.qcin.1 /global/cscratch1/sd/bwood/qchem/nx/qchem47624/
Process 1 of 16 is on nid00458 - thread support 0
Process 3 of 16 is on nid00458 - thread support 0
Process 4 of 16 is on nid00458 - thread support 0
Process 5 of 16 is on nid00458 - thread support 0
Process 6 of 16 is on nid00458 - thread support 0
Process 15 of 16 is on nid00458 - thread support 0
Process 0 of 16 is on nid00458 - thread support 0
initial socket setup ...start
Process 2 of 16 is on nid00458 - thread support 0
initial socket setup ...done 
now start server 0 ... 
nid00458 10.128.1
Q-Chem Developer Version! Running on 10.128.1.*
                  Welcome to Q-Chem
     A Quantum Leap Into The Future Of Chemistry


 Q-Chem 4.4, Q-Chem, Inc., Pleasanton, CA (2016)

 Y. Shao,  Z. Gan,  E. Epifanovsky,  A. T. B. Gilbert,  M. Wormit,  
 J. Kussmann,  A. W. Lange,  A. Behn,  J. Deng,  X. Feng,  D. Ghosh,  
 M. Goldey,  P. R. Horn,  L. D. Jacobson,  I. Kaliman,  F. Rob,  
 R. Z. Khaliullin,  T. Kus,  A. Landau,  J. Liu,  E. I. Proynov,  Y. M. Rhee,  
 R. M. Richard,  M. A. Rohrdanz,  R. P. Steele,  E. J. Sundstrom,  
 H. L. Woodcock III,  P. M. Zimmerman,  D. Zuev,  B. Albrecht,  E. Alguire,  
 B. Austin,  S. A. Baeppler,  G. J. O. Beran,  Y. A. Bernard,  
 E. J. Berquist,  K. Brandhorst,  K. B. Bravaya,  S. T. Brown,  D. Casanova,  
 C.-M. Chang,  Y. Chen,  S. H. Chien,  K. D. Closser,  M. P. Coons,  
 D. L. Crittenden,  S. Dasgupta,  M. Diedenhofen,  R. A. DiStasio Jr.,  
 H. Do,  A. D. Dutoi,  R. G. Edgar,  P.-T. Fang,  S. Fatehi,  Q. Feng,  
 L. Fusti-Molnar,  A. Ghysels,  A. Golubeva-Zadorozhnaya,  J. Gomes,  
 A. Gunina,  M. W. D. Hanson-Heine,  P. H. P. Harbach,  A. W. Hauser,  
 J. E. Herr,  E. G. Hohenstein,  Z. C. Holden,  K. Hui,  T.-C. Jagau,  H. Ji,  
 B. Kaduk,  K. Khistyaev,  Jaehoon Kim,  Jihan Kim,  R. A. King,  
 P. Klunzinger,  K. Koh,  D. Kosenkov,  T. Kowalczyk,  C. M. Krauter,  
 A. Kunitsa,  K. U. Lao,  A. Laurent,  K. V. Lawler,  J. Lee,  D. Lefrancois,  
 S. Lehtola,  S. V. Levchenko,  C. Y. Lin,  Y.-S. Lin,  F. Liu,  E. Livshits,  
 R. C. Lochan,  A. Luenser,  P. Manohar,  S. F. Manzer,  S.-P. Mao,  Y. Mao,  
 N. Mardirossian,  A. V. Marenich,  L. A. Martinez-Martinez,  S. A. Maurer,  
 N. J. Mayhall,  J.-M. Mewes,  A. F. Morrison,  K. Nanda,  T. S. Nguyen-Beck,  
 C. M. Oana,  R. Olivares-Amaya,  D. P. O'Neill,  J. A. Parkhill,  
 T. M. Perrine,  R. Peverati,  P. A. Pieniazek,  F. Plasser,  A. Prociuk,  
 D. R. Rehn,  E. Rosta,  N. J. Russ,  N. Sergueev,  S. M. Sharada,  
 S. Sharma,  D. W. Small,  A. Sodt,  T. Stauch,  T. Stein,  D. Stuck,  
 Y.-C. Su,  A. J. W. Thom,  T. Tsuchimochi,  L. Vogt,  O. Vydrov,  T. Wang,  
 M. A. Watson,  J. Wenzel,  A. White,  C. F. Williams,  V. Vanovschi,  
 K. Yao,  S. Yeganeh,  S. R. Yost,  Z.-Q. You,  I. Y. Zhang,  X. Zhang,  
 Y. Zhao,  B. R. Brooks,  G. K. L. Chan,  D. M. Chipman,  C. J. Cramer,  
 W. A. Goddard III,  M. S. Gordon,  W. J. Hehre,  A. Klamt,  
 H. F. Schaefer III,  M. W. Schmidt,  C. D. Sherrill,  D. G. Truhlar,  
 A. Warshel,  X. Xu,  A. Aspuru-Guzik,  R. Baer,  A. T. Bell,  N. A. Besley,  
 J.-D. Chai,  A. Dreuw,  B. D. Dunietz,  T. R. Furlani,  S. R. Gwaltney,  
 C.-P. Hsu,  Y. Jung,  J. Kong,  D. S. Lambrecht,  W. Liang,  C. Ochsenfeld,  
 V. A. Rassolov,  L. V. Slipchenko,  J. E. Subotnik,  T. Van Voorhis,  
 J. M. Herbert,  A. I. Krylov,  P. M. W. Gill,  M. Head-Gordon

 Contributors to earlier versions of Q-Chem not listed above: 
 R. D. Adamson,  J. Baker,  E. F. C. Byrd,  A. K. Chakraborty,  C.-L. Cheng,  
 H. Dachsel,  R. J. Doerksen,  G. Hawkins,  A. Heyden,  S. Hirata,  
 G. Kedziora,  F. J. Keil,  C. Kelley,  P. P. Korambath,  W. Kurlancheek,  
 A. M. Lee,  M. S. Lee,  D. Liotard,  I. Lotan,  P. E. Maslen,  N. Nair,  
 D. Neuhauser,  R. Olson,  B. Peters,  J. Ritchie,  N. E. Schultz,  
 N. Shenvi,  A. C. Simmonett,  K. S. Thanthiriwatte,  Q. Wu,  W. Zhang

 Please cite Q-Chem as follows:
 Y. Shao et al., Mol. Phys. 113, 184-215 (2015)
 DOI: 10.1080/00268976.2014.952696

 Q-Chem 4.4.2 for Intel X86 EM64T Linux

 Parts of Q-Chem use Armadillo 5.200.1 (Boston Tea Smuggler).
 http://arma.sourceforge.net/

 Q-Chem begins on Wed May 31 02:24:42 2017  

Host: nid00447
0

     Scratch files written to /global/cscratch1/sd/bwood/qchem/nx/qchem47624.0//
 Parallel job on  16  processors

Checking the input file for inconsistencies... 	...done.

--------------------------------------------------------------
User input:
--------------------------------------------------------------
$molecule
 0  1
 S           0.00238887        0.06077275        0.00183269
 C           1.73707619        0.03315849        0.00323229
 H           2.27612737        0.05289032        0.94042557
 C           2.24169204       -0.01546201       -1.26965798
 H           3.30285780       -0.04005365       -1.48972496
 C           1.22479222       -0.01612968       -2.26811464
 H           1.42674790       -0.02650987       -3.33334501
 C          -0.05393771        0.02880388       -1.75170966
 C          -1.32450815        0.04889988       -2.45636342
 C          -1.57705346       -0.15765971       -3.79710666
 H          -0.79579543       -0.38859800       -4.51273328
 C          -2.95863404       -0.07068413       -4.13556656
 H          -3.34391574       -0.21295066       -5.13876788
 C          -3.75498914        0.19987576       -3.05401671
 H          -4.83023938        0.31053419       -3.02126160
 S          -2.82293145        0.37079597       -1.60088560
$end


$rem
         jobtype = opt
        exchange = b3lyp
           basis = 6-31++g**
  max_scf_cycles = 150
      mem_static = 775
       mem_total = 7750
      sym_ignore = true
        symmetry = false
          thresh = 12
$end


$opt
CONSTRAINT
tors 6 8 9 10 10.0
ENDCONSTRAINT
$end

--------------------------------------------------------------
 ----------------------------------------------------------------
             Standard Nuclear Orientation (Angstroms)
    I     Atom           X                Y                Z
 ----------------------------------------------------------------
    1      S       0.0023888700     0.0607727500     0.0018326900
    2      C       1.7370761900     0.0331584900     0.0032322900
    3      H       2.2761273700     0.0528903200     0.9404255700
    4      C       2.2416920400    -0.0154620100    -1.2696579800
    5      H       3.3028578000    -0.0400536500    -1.4897249600
    6      C       1.2247922200    -0.0161296800    -2.2681146400
    7      H       1.4267479000    -0.0265098700    -3.3333450100
    8      C      -0.0539377100     0.0288038800    -1.7517096600
    9      C      -1.3245081500     0.0488998800    -2.4563634200
   10      C      -1.5770534600    -0.1576597100    -3.7971066600
   11      H      -0.7957954300    -0.3885980000    -4.5127332800
   12      C      -2.9586340400    -0.0706841300    -4.1355665600
   13      H      -3.3439157400    -0.2129506600    -5.1387678800
   14      C      -3.7549891400     0.1998757600    -3.0540167100
   15      H      -4.8302393800     0.3105341900    -3.0212616000
   16      S      -2.8229314500     0.3707959700    -1.6008856000
 ----------------------------------------------------------------
 Nuclear Repulsion Energy =   633.0530839557 hartrees
 There are       43 alpha and       43 beta electrons
 Requested basis set is 6-31++G(d,p)
 There are 76 shells and 234 basis functions

 Total QAlloc Memory Limit   7750 MB
 Mega-Array Size       758 MB
 MEM_STATIC part       775 MB
 A cutoff of  1.0D-12 yielded   2529 shell pairs
 There are     24877 function pairs

 Q-Chem warning in module /project/projectdirs/jcesr/qchem/qc44/cnl_qc441/compile/cori/qc_src/libqints/qchem/aobasis.C, line 68:

 Using reconstructed effective core potential

 
 -------------------------------------------------------
 OpenMP Integral Computing Module                       
 Release: version 1.0, May 2013, Q-Chem Inc. Pittsburgh 
 -------------------------------------------------------
 Integral Job Info:
 Integral job number is                      11
 Integral operator is                         1
 short-range coefficients                     0
 long-range coefficients              100000000
 Omega coefficients                           0
 if combine SR and LR in K                    0
 Integral screening is                        0
 Integral computing path is                   2
 max size of driver memory is            800000
 size of driver memory is                593474
 size of scratch memory is             15166112
 max col of scratch BK array               1296
 max len of scratch array in speh3          155
 max len of scratch index in speh4           18
 max int batch size is                      520
 min int batch size is                       52
 fixed nKL is                                52
 max L of basis functions is                  2
 order of int derivative is                   0
 number of shells is                         76
 number of basis is                         234
 number of cartesian basis is               234
 number of contracted shell pairs          2529
 number of primitive shell pairs           8247
 maxK2 (contraction) of shell pair           36
 max number of K2 of shell pair               1
 max number of CS2 of shell pair            260
 max number of PS2 of shell pair           1500
 mem total for path MDJ                   51992
 -------------------------------------------------------
 Smallest overlap matrix eigenvalue = 7.32E-07
 Linear dependence detected in AO basis
 Number of orthogonalized atomic orbitals = 233
 Maximum deviation from orthogonality = 6.474E-11

 Scale SEOQF with 1.000000e-01/1.000000e-01/1.000000e-02

 Standard Electronic Orientation quadrupole field applied
 Nucleus-field energy     =     0.0000000097 hartrees
 Guess from superposition of atomic densities
 Warning:  Energy on first SCF cycle will be non-variational
 A restricted hybrid HF-DFT SCF calculation will be
 performed using Pulay DIIS extrapolation
 Exchange:     0.2000 Hartree-Fock + 0.0800 Slater + 0.7200 B88
 Correlation:  0.1900 VWN1RPA + 0.8100 LYP
 Using SG-1 standard quadrature grid
 SCF converges when DIIS error is below 1.0E-08
 ---------------------------------------
  Cycle       Energy         DIIS Error
 ---------------------------------------
    1   -1107.1737715812      4.42E-02
    2   -1104.6634079007      4.80E-03
    3   -1104.3779810153      7.57E-03
    4   -1104.8285863201      1.08E-03
    5   -1104.8370427836      4.90E-04
    6   -1104.8386512997      1.43E-04
    7   -1104.8388022917      3.30E-05
    8   -1104.8388090915      9.55E-06
    9   -1104.8388096651      4.32E-06
   10   -1104.8388098073      5.36E-07
   11   -1104.8388098097      2.94E-07
   12   -1104.8388098092      5.26E-08
   13   -1104.8388098085      4.18E-08
   14   -1104.8388098087      4.81E-09 Convergence criterion met
 ---------------------------------------
 SCF time:  CPU 7.83 s  wall 7.24 s
 SCF   energy in the final basis set = -1104.8388098087
 Total energy in the final basis set = -1104.8388098087
 
 --------------------------------------------------------------
 
                    Orbital Energies (a.u.)
 --------------------------------------------------------------
 
 Alpha MOs
 -- Occupied --
-88.919 -88.919 -10.239 -10.239 -10.225 -10.225 -10.205 -10.205
-10.204 -10.204  -7.979  -7.979  -5.943  -5.943  -5.940  -5.939
 -5.936  -5.936  -0.901  -0.878  -0.772  -0.750  -0.737  -0.705
 -0.604  -0.581  -0.553  -0.533  -0.528  -0.477  -0.421  -0.419
 -0.408  -0.404  -0.402  -0.376  -0.374  -0.361  -0.342  -0.284
 -0.266  -0.257  -0.211
 -- Virtual --
 -0.059  -0.015  -0.003   0.000   0.005   0.014   0.019   0.026
  0.027   0.036   0.040   0.044   0.051   0.061   0.066   0.071
  0.079   0.084   0.087   0.094   0.101   0.102   0.107   0.113
  0.116   0.122   0.127   0.128   0.137   0.138   0.144   0.146
  0.149   0.156   0.157   0.159   0.166   0.178   0.184   0.189
  0.190   0.193   0.196   0.206   0.209   0.216   0.229   0.240
  0.260   0.261   0.266   0.272   0.285   0.296   0.300   0.310
  0.312   0.315   0.338   0.346   0.364   0.380   0.383   0.426
  0.446   0.467   0.490   0.536   0.552   0.564   0.566   0.574
  0.593   0.623   0.644   0.654   0.656   0.669   0.675   0.676
  0.701   0.718   0.721   0.722   0.733   0.752   0.765   0.791
  0.807   0.817   0.830   0.843   0.885   0.923   0.928   0.947
  0.953   0.957   0.970   0.979   0.985   1.002   1.010   1.012
  1.025   1.034   1.080   1.083   1.110   1.116   1.135   1.170
  1.187   1.191   1.208   1.248   1.256   1.331   1.338   1.353
  1.356   1.369   1.374   1.451   1.498   1.529   1.556   1.598
  1.639   1.693   1.711   1.781   1.855   1.872   1.894   1.917
  1.923   1.978   1.992   2.014   2.021   2.073   2.091   2.122
  2.127   2.169   2.183   2.247   2.247   2.290   2.292   2.360
  2.366   2.414   2.453   2.473   2.477   2.499   2.509   2.533
  2.545   2.569   2.574   2.595   2.686   2.690   2.724   2.757
  2.799   2.851   2.954   2.983   3.138   3.217   3.269   3.272
  3.393   3.434   3.707   3.757   3.941   4.024   4.225   4.298
  4.310   4.334   4.400   4.551   4.645   4.736
 --------------------------------------------------------------
 
          Ground-State Mulliken Net Atomic Charges

     Atom                 Charge (a.u.)
  ----------------------------------------
      1 S                    -0.167813
      2 C                     0.031538
      3 H                     0.200735
      4 C                    -0.415520
      5 H                     0.119638
      6 C                     0.399936
      7 H                     0.109979
      8 C                    -0.278825
      9 C                    -0.276266
     10 C                     0.400156
     11 H                     0.109955
     12 C                    -0.416951
     13 H                     0.119584
     14 C                     0.031887
     15 H                     0.200728
     16 S                    -0.168760
  ----------------------------------------
  Sum of atomic charges =    -0.000000

 -----------------------------------------------------------------
                    Cartesian Multipole Moments
 -----------------------------------------------------------------
    Charge (ESU x 10^10)
                -0.0000
    Dipole Moment (Debye)
         X       0.4875      Y      -0.1213      Z      -0.8846
       Tot       1.0173
    Quadrupole Moments (Debye-Ang)
        XX     -63.3506     XY      -0.5088     YY     -78.7014
        XZ       2.7779     YZ       1.2932     ZZ     -62.9652
    Octopole Moments (Debye-Ang^2)
       XXX     157.6871    XXY      -1.8872    XYY      65.2711
       YYY     -17.6343    XXZ     107.5633    XYZ      -0.1157
       YYZ     144.3698    XZZ      51.5845    YZZ     -12.9936
       ZZZ     346.5615
    Hexadecapole Moments (Debye-Ang^3)
      XXXX   -1818.8797   XXXY      22.2375   XXYY    -405.0597
      XYYY      49.9917   YYYY    -118.6797   XXXZ    -556.8154
      XXYZ       1.1785   XYYZ    -246.0549   YYYZ      16.5344
      XXZZ    -643.7258   XYZZ      24.9031   YYZZ    -459.3926
      XZZZ    -587.9222   YZZZ      57.4590   ZZZZ   -2110.5269
 -----------------------------------------------------------------
 Calculating analytic gradient of the SCF energy
 Gradient of SCF Energy
            1           2           3           4           5           6
    1  -0.0026197  -0.0002494   0.0000857   0.0006195   0.0000106  -0.0001095
    2   0.0000007   0.0003853   0.0002042  -0.0002371   0.0000297  -0.0007915
    3  -0.0004107  -0.0005507   0.0000500   0.0004135   0.0000259   0.0012106
            7           8           9          10          11          12
    1  -0.0002556   0.0009344   0.0005395  -0.0009732   0.0003777  -0.0005483
    2   0.0001783   0.0001755  -0.0006322   0.0011646  -0.0001614   0.0001017
    3  -0.0003003  -0.0012193  -0.0012566   0.0003863   0.0000316  -0.0003595
           13          14          15          16
    1  -0.0000262   0.0005809  -0.0001213   0.0017548
    2  -0.0000409  -0.0004420  -0.0002233   0.0002883
    3   0.0000251   0.0000611  -0.0000321   0.0019253
 Max gradient component =       2.620E-03
 RMS gradient           =       7.317E-04
 Gradient time:  CPU 2.16 s  wall 2.10 s
 Geometry Optimization Parameters
   NAtoms,    NIC,     NZ,  NCons,   NDum,   NFix, NCnnct, MaxDiis
       16     111       0       1       0       0       0       0


** CONSTRAINED OPTIMIZATION IN DELOCALIZED INTERNAL COORDINATES **
   Searching for a Minimum

   Optimization Cycle:   1

                       Coordinates (Angstroms)
     ATOM                X               Y               Z
      1  S         0.0023888700    0.0607727500    0.0018326900
      2  C         1.7370761900    0.0331584900    0.0032322900
      3  H         2.2761273700    0.0528903200    0.9404255700
      4  C         2.2416920400   -0.0154620100   -1.2696579800
      5  H         3.3028578000   -0.0400536500   -1.4897249600
      6  C         1.2247922200   -0.0161296800   -2.2681146400
      7  H         1.4267479000   -0.0265098700   -3.3333450100
      8  C        -0.0539377100    0.0288038800   -1.7517096600
      9  C        -1.3245081500    0.0488998800   -2.4563634200
     10  C        -1.5770534600   -0.1576597100   -3.7971066600
     11  H        -0.7957954300   -0.3885980000   -4.5127332800
     12  C        -2.9586340400   -0.0706841300   -4.1355665600
     13  H        -3.3439157400   -0.2129506600   -5.1387678800
     14  C        -3.7549891400    0.1998757600   -3.0540167100
     15  H        -4.8302393800    0.3105341900   -3.0212616000
     16  S        -2.8229314500    0.3707959700   -1.6008856000
   Point Group: c1    Number of degrees of freedom:    42


   Energy is  -1104.838809809

              Constraints and their Current Values
                                        Value     Constraint
   Dihedral:        6   8   9  10       10.000       10.000

 Attempting to Generate Delocalized Internal Coordinates

 41 Hessian modes will be used to form the next step
  Hessian Eigenvalues:
     0.045000    0.045000    0.045000    0.045000    0.045000    0.045000
     0.045002    0.045002    0.045003    0.045004    0.045011    0.045012
     0.159943    0.159949    0.159991    0.159992    0.160000    0.160000
     0.221282    0.221282    0.237835    0.237839    0.250000    0.250000
     0.294264    0.294663    0.312518    0.312618    0.354736    0.354850
     0.355125    0.355132    0.358226    0.358329    0.378510    0.404854
     0.404909    0.463547    0.463616    0.497922    0.497945

 Minimum Search - Taking Simple RFO Step
 Searching for Lamda that Minimizes Along All modes
 Value Taken    Lamda =  -0.00049389
 Step Taken.  Stepsize is  0.053707

                             Maximum     Tolerance    Cnvgd?
         Gradient           0.009055      0.000300      NO
         Displacement       0.037332      0.001200      NO
         Energy change     *********      0.000001      NO


 New Cartesian Coordinates Obtained by Inverse Iteration

 Displacement from previous Coordinates is:  0.265863
 ----------------------------------------------------------------
             Standard Nuclear Orientation (Angstroms)
    I     Atom           X                Y                Z
 ----------------------------------------------------------------
    1      S       0.0269474690     0.0595817235     0.0312459688
    2      C       1.7606495310     0.0261123732    -0.0008515923
    3      H       2.3183220959     0.0362213509     0.9253847223
    4      C       2.2376457714    -0.0122374462    -1.2845234185
    5      H       3.2939078456    -0.0377947453    -1.5268912175
    6      C       1.2012527848    -0.0065040865    -2.2620671274
    7      H       1.3849454602    -0.0142276542    -3.3302455830
    8      C      -0.0687515692     0.0348290433    -1.7223573933
    9      C      -1.3419696480     0.0488026406    -2.4274590772
   10      C      -1.5707028658    -0.1645833754    -3.7719768561
   11      H      -0.7773234309    -0.3969958650    -4.4730039211
   12      C      -2.9444060526    -0.0750914241    -4.1393013368
   13      H      -3.3080444802    -0.2186309918    -5.1503871954
   14      C      -3.7635301227     0.2040825548    -3.0773482912
   15      H      -4.8384073330     0.3211978875    -3.0678242005
   16      S      -2.8608575656     0.3729215448    -1.6061568907
 ----------------------------------------------------------------
 Nuclear Repulsion Energy =   631.6091470951 hartrees
 There are       43 alpha and       43 beta electrons
 Applying Cartesian multipole field
    Component          Value
    ---------          -----
     (2,0,0)        1.00000E-11
     (0,2,0)        2.00000E-11
     (0,0,2)       -3.00000E-12
 Nucleus-field energy     =     0.0000000098 hartrees
 Requested basis set is 6-31++G(d,p)
 There are 76 shells and 234 basis functions
 A cutoff of  1.0D-12 yielded   2527 shell pairs
 There are     24869 function pairs

 Q-Chem warning in module /project/projectdirs/jcesr/qchem/qc44/cnl_qc441/compile/cori/qc_src/libqints/qchem/aobasis.C, line 68:

 Using reconstructed effective core potential

 Smallest overlap matrix eigenvalue = 7.15E-07
 Linear dependence detected in AO basis
 Number of orthogonalized atomic orbitals = 233
 Maximum deviation from orthogonality = 7.847E-11
 Guess MOs from SCF MO coefficient file
 Reading MOs from coefficient file
 Reading MOs from coefficient file
 A restricted hybrid HF-DFT SCF calculation will be
 performed using Pulay DIIS extrapolation
 Exchange:     0.2000 Hartree-Fock + 0.0800 Slater + 0.7200 B88
 Correlation:  0.1900 VWN1RPA + 0.8100 LYP
 Using SG-1 standard quadrature grid
 SCF converges when DIIS error is below 1.0E-08
 Geometry optimization detected.  Setting ReadMinima to 0
 Setting SaveMinima to 0
 ---------------------------------------
  Cycle       Energy         DIIS Error
 ---------------------------------------
    1   -1104.8131046516      1.14E-03
    2   -1104.8383222721      3.06E-04
    3   -1104.8357872852      6.52E-04
    4   -1104.8390770937      3.52E-05
    5   -1104.8390838626      1.74E-05
    6   -1104.8390858250      5.22E-06
    7   -1104.8390860226      1.87E-06
    8   -1104.8390860481      3.65E-07
    9   -1104.8390860478      4.74E-08
   10   -1104.8390860497      2.22E-08
   11   -1104.8390860491      8.07E-09 Convergence criterion met
 ---------------------------------------
 SCF time:  CPU 6.30 s  wall 5.86 s
 SCF   energy in the final basis set = -1104.8390860491
 Total energy in the final basis set = -1104.8390860491
 
 --------------------------------------------------------------
 
                    Orbital Energies (a.u.)
 --------------------------------------------------------------
 
 Alpha MOs
 -- Occupied --
-88.920 -88.920 -10.240 -10.240 -10.225 -10.225 -10.205 -10.205
-10.204 -10.203  -7.979  -7.979  -5.944  -5.944  -5.940  -5.940
 -5.937  -5.937  -0.900  -0.878  -0.772  -0.750  -0.737  -0.705
 -0.604  -0.580  -0.554  -0.533  -0.528  -0.477  -0.422  -0.419
 -0.408  -0.403  -0.402  -0.377  -0.374  -0.360  -0.343  -0.284
 -0.265  -0.258  -0.211
 -- Virtual --
 -0.059  -0.014  -0.003  -0.000   0.005   0.014   0.019   0.026
  0.027   0.036   0.040   0.045   0.051   0.061   0.066   0.070
  0.079   0.084   0.086   0.093   0.101   0.102   0.107   0.113
  0.115   0.123   0.127   0.128   0.137   0.138   0.144   0.146
  0.148   0.155   0.157   0.159   0.166   0.178   0.184   0.189
  0.190   0.193   0.197   0.206   0.210   0.216   0.229   0.240
  0.260   0.260   0.266   0.273   0.284   0.295   0.301   0.310
  0.312   0.314   0.337   0.345   0.363   0.380   0.384   0.427
  0.443   0.465   0.491   0.535   0.548   0.562   0.566   0.574
  0.595   0.624   0.646   0.653   0.656   0.667   0.672   0.673
  0.702   0.717   0.721   0.722   0.732   0.753   0.764   0.792
  0.805   0.815   0.831   0.841   0.884   0.923   0.929   0.947
  0.954   0.956   0.971   0.980   0.985   1.009   1.010   1.012
  1.024   1.031   1.079   1.083   1.107   1.115   1.135   1.169
  1.187   1.188   1.207   1.247   1.258   1.334   1.339   1.352
  1.355   1.369   1.372   1.446   1.496   1.529   1.551   1.595
  1.641   1.693   1.711   1.781   1.856   1.872   1.893   1.916
  1.923   1.978   1.993   2.010   2.019   2.072   2.090   2.125
  2.127   2.168   2.181   2.245   2.246   2.292   2.293   2.360
  2.366   2.415   2.454   2.475   2.476   2.499   2.509   2.533
  2.543   2.566   2.575   2.597   2.685   2.689   2.722   2.756
  2.802   2.854   2.951   2.977   3.140   3.216   3.270   3.273
  3.394   3.434   3.707   3.757   3.941   4.021   4.227   4.297
  4.308   4.334   4.399   4.547   4.644   4.733
 --------------------------------------------------------------
 
          Ground-State Mulliken Net Atomic Charges

     Atom                 Charge (a.u.)
  ----------------------------------------
      1 S                    -0.146425
      2 C                     0.022870
      3 H                     0.200374
      4 C                    -0.410978
      5 H                     0.119560
      6 C                     0.370769
      7 H                     0.107930
      8 C                    -0.264423
      9 C                    -0.261616
     10 C                     0.369215
     11 H                     0.107822
     12 C                    -0.411176
     13 H                     0.119564
     14 C                     0.022994
     15 H                     0.200370
     16 S                    -0.146851
  ----------------------------------------
  Sum of atomic charges =    -0.000000

 -----------------------------------------------------------------
                    Cartesian Multipole Moments
 -----------------------------------------------------------------
    Charge (ESU x 10^10)
                -0.0000
    Dipole Moment (Debye)
         X       0.5013      Y      -0.1228      Z      -0.9086
       Tot       1.0450
    Quadrupole Moments (Debye-Ang)
        XX     -63.3524     XY      -0.5803     YY     -78.7089
        XZ       2.8727     YZ       1.2333     ZZ     -62.9550
    Octopole Moments (Debye-Ang^2)
       XXX     158.5879    XXY      -1.6743    XYY      65.5395
       YYY     -17.7450    XXZ     106.8158    XYZ       0.0480
       YYZ     143.8328    XZZ      51.5828    YZZ     -12.8964
       ZZZ     345.1210
    Hexadecapole Moments (Debye-Ang^3)
      XXXX   -1833.6777   XXXY      21.1390   XXYY    -407.8119
      XYYY      50.6568   YYYY    -119.0539   XXXZ    -557.6470
      XXYZ      -0.0582   XYYZ    -247.3098   YYYZ      16.9845
      XXZZ    -643.6736   XYZZ      24.3658   YYZZ    -458.2478
      XZZZ    -590.6943   YZZZ      57.2689   ZZZZ   -2105.9561
 -----------------------------------------------------------------
 Calculating analytic gradient of the SCF energy
 Gradient of SCF Energy
            1           2           3           4           5           6
    1   0.0001227   0.0002678   0.0001339   0.0001525  -0.0000318  -0.0003976
    2   0.0001582   0.0000918   0.0000278   0.0001418  -0.0000063  -0.0006984
    3   0.0004196   0.0001014  -0.0000260   0.0005677   0.0000744   0.0006037
            7           8           9          10          11          12
    1  -0.0001541   0.0006449   0.0005349  -0.0001402   0.0001855  -0.0005662
    2   0.0000301   0.0001727  -0.0004723   0.0008275  -0.0000118  -0.0000479
    3  -0.0000995  -0.0011643  -0.0012110   0.0005441   0.0000774   0.0001499
           13          14          15          16
    1  -0.0000211  -0.0003656  -0.0000508  -0.0003147
    2   0.0000124  -0.0000860  -0.0000653  -0.0000741
    3   0.0000447  -0.0001018  -0.0001320   0.0001515
 Max gradient component =       1.211E-03
 RMS gradient           =       3.876E-04
 Gradient time:  CPU 2.16 s  wall 2.11 s
 Geometry Optimization Parameters
   NAtoms,    NIC,     NZ,  NCons,   NDum,   NFix, NCnnct, MaxDiis
       16     111       0       1       0       0       0       0

 Cartesian Hessian Update
 Hessian Updated using BFGS Update


** CONSTRAINED OPTIMIZATION IN DELOCALIZED INTERNAL COORDINATES **
   Searching for a Minimum

   Optimization Cycle:   2

                       Coordinates (Angstroms)
     ATOM                X               Y               Z
      1  S         0.0269474690    0.0595817235    0.0312459688
      2  C         1.7606495310    0.0261123732   -0.0008515923
      3  H         2.3183220959    0.0362213509    0.9253847223
      4  C         2.2376457714   -0.0122374462   -1.2845234185
      5  H         3.2939078456   -0.0377947453   -1.5268912175
      6  C         1.2012527848   -0.0065040865   -2.2620671274
      7  H         1.3849454602   -0.0142276542   -3.3302455830
      8  C        -0.0687515692    0.0348290433   -1.7223573933
      9  C        -1.3419696480    0.0488026406   -2.4274590772
     10  C        -1.5707028658   -0.1645833754   -3.7719768561
     11  H        -0.7773234309   -0.3969958650   -4.4730039211
     12  C        -2.9444060526   -0.0750914241   -4.1393013368
     13  H        -3.3080444802   -0.2186309918   -5.1503871954
     14  C        -3.7635301227    0.2040825548   -3.0773482912
     15  H        -4.8384073330    0.3211978875   -3.0678242005
     16  S        -2.8608575656    0.3729215448   -1.6061568907
   Point Group: c1    Number of degrees of freedom:    42


   Energy is  -1104.839086049

              Constraints and their Current Values
                                        Value     Constraint
   Dihedral:        6   8   9  10       10.000       10.000
 Hessian Updated using BFGS Update

 39 Hessian modes will be used to form the next step
  Hessian Eigenvalues:
     0.040269    0.045000    0.045000    0.045000    0.045002    0.045002
     0.045004    0.045010    0.045012    0.045269    0.157879    0.159947
     0.159990    0.159992    0.160000    0.160031    0.204536    0.221284
     0.221998    0.237837    0.249989    0.257823    0.294442    0.308905
     0.312583    0.313390    0.354674    0.354826    0.355129    0.355144
     0.358219    0.358324    0.389855    0.404871    0.411950    0.462893
     0.463670    0.497925    0.499444

 Minimum Search - Taking Simple RFO Step
 Searching for Lamda that Minimizes Along All modes
 Value Taken    Lamda =  -0.00005085
 Step Taken.  Stepsize is  0.026204

                             Maximum     Tolerance    Cnvgd?
         Gradient           0.001422      0.000300      NO
         Displacement       0.018484      0.001200      NO
         Energy change     -0.000276      0.000001      NO


 New Cartesian Coordinates Obtained by Inverse Iteration

 Displacement from previous Coordinates is:  0.081230
 ----------------------------------------------------------------
             Standard Nuclear Orientation (Angstroms)
    I     Atom           X                Y                Z
 ----------------------------------------------------------------
    1      S       0.0292713862     0.0568597997     0.0377238713
    2      C       1.7625835218     0.0226793402    -0.0045933899
    3      H       2.3240426877     0.0283725980     0.9192854663
    4      C       2.2339964398    -0.0100348448    -1.2908842105
    5      H       3.2890304247    -0.0349406095    -1.5389522776
    6      C       1.1932421359    -0.0001794474    -2.2623710397
    7      H       1.3722044719    -0.0053214403    -3.3312098381
    8      C      -0.0738709277     0.0379216956    -1.7141926427
    9      C      -1.3464413648     0.0466998994    -2.4180580830
   10      C      -1.5669973135    -0.1705882129    -3.7639870966
   11      H      -0.7709174401    -0.4052361494    -4.4609130678
   12      C      -2.9373050308    -0.0775556498    -4.1391355810
   13      H      -3.2956637358    -0.2217051426    -5.1520890659
   14      C      -3.7608480692     0.2069454342    -3.0817044796
   15      H      -4.8351910865     0.3284104312    -3.0775972085
   16      S      -2.8674582098     0.3753558284    -1.6050847667
 ----------------------------------------------------------------
 Nuclear Repulsion Energy =   631.6589857453 hartrees
 There are       43 alpha and       43 beta electrons
 Applying Cartesian multipole field
    Component          Value
    ---------          -----
     (2,0,0)        1.00000E-11
     (0,2,0)        2.00000E-11
     (0,0,2)       -3.00000E-12
 Nucleus-field energy     =     0.0000000098 hartrees
 Requested basis set is 6-31++G(d,p)
 There are 76 shells and 234 basis functions
 A cutoff of  1.0D-12 yielded   2529 shell pairs
 There are     24877 function pairs

 Q-Chem warning in module /project/projectdirs/jcesr/qchem/qc44/cnl_qc441/compile/cori/qc_src/libqints/qchem/aobasis.C, line 68:

 Using reconstructed effective core potential

 Smallest overlap matrix eigenvalue = 6.95E-07
 Linear dependence detected in AO basis
 Number of orthogonalized atomic orbitals = 233
 Maximum deviation from orthogonality = 9.118E-11
 Guess MOs from SCF MO coefficient file
 Reading MOs from coefficient file
 Reading MOs from coefficient file
 A restricted hybrid HF-DFT SCF calculation will be
 performed using Pulay DIIS extrapolation
 Exchange:     0.2000 Hartree-Fock + 0.0800 Slater + 0.7200 B88
 Correlation:  0.1900 VWN1RPA + 0.8100 LYP
 Using SG-1 standard quadrature grid
 SCF converges when DIIS error is below 1.0E-08
 Geometry optimization detected.  Setting ReadMinima to 0
 Setting SaveMinima to 0
 ---------------------------------------
  Cycle       Energy         DIIS Error
 ---------------------------------------
    1   -1104.8354475614      4.05E-04
    2   -1104.8390439570      9.28E-05
    3   -1104.8388171901      1.95E-04
    4   -1104.8391122945      1.49E-05
    5   -1104.8391137295      5.97E-06
    6   -1104.8391139590      2.15E-06
    7   -1104.8391139926      6.18E-07
    8   -1104.8391139959      1.86E-07
    9   -1104.8391139980      3.17E-08
   10   -1104.8391139978      9.45E-09 Convergence criterion met
 ---------------------------------------
 SCF time:  CPU 5.72 s  wall 5.30 s
 SCF   energy in the final basis set = -1104.8391139978
 Total energy in the final basis set = -1104.8391139978
 
 --------------------------------------------------------------
 
                    Orbital Energies (a.u.)
 --------------------------------------------------------------
 
 Alpha MOs
 -- Occupied --
-88.920 -88.920 -10.240 -10.239 -10.225 -10.225 -10.205 -10.205
-10.203 -10.203  -7.980  -7.980  -5.944  -5.944  -5.940  -5.940
 -5.937  -5.937  -0.901  -0.878  -0.772  -0.750  -0.737  -0.705
 -0.604  -0.580  -0.553  -0.533  -0.528  -0.477  -0.422  -0.419
 -0.408  -0.403  -0.402  -0.377  -0.374  -0.360  -0.343  -0.283
 -0.266  -0.258  -0.211
 -- Virtual --
 -0.059  -0.014  -0.003  -0.000   0.005   0.014   0.019   0.026
  0.026   0.036   0.040   0.045   0.050   0.061   0.066   0.070
  0.078   0.084   0.086   0.094   0.101   0.102   0.107   0.113
  0.115   0.123   0.127   0.128   0.137   0.138   0.144   0.145
  0.148   0.155   0.157   0.159   0.166   0.178   0.184   0.189
  0.190   0.193   0.197   0.206   0.210   0.216   0.229   0.240
  0.259   0.260   0.266   0.272   0.283   0.294   0.301   0.310
  0.312   0.314   0.336   0.345   0.363   0.380   0.384   0.427
  0.443   0.465   0.492   0.534   0.547   0.562   0.566   0.574
  0.595   0.625   0.647   0.653   0.657   0.667   0.671   0.672
  0.703   0.718   0.721   0.722   0.733   0.754   0.764   0.792
  0.804   0.815   0.831   0.842   0.884   0.923   0.929   0.947
  0.954   0.956   0.971   0.980   0.986   1.008   1.011   1.012
  1.025   1.031   1.079   1.084   1.106   1.114   1.136   1.169
  1.188   1.188   1.207   1.247   1.258   1.336   1.340   1.352
  1.355   1.369   1.371   1.444   1.496   1.529   1.550   1.594
  1.643   1.693   1.711   1.782   1.856   1.874   1.894   1.915
  1.923   1.979   1.993   2.011   2.019   2.073   2.089   2.126
  2.127   2.170   2.182   2.245   2.245   2.294   2.294   2.360
  2.366   2.416   2.455   2.476   2.476   2.499   2.509   2.533
  2.544   2.566   2.575   2.597   2.685   2.689   2.722   2.756
  2.804   2.855   2.950   2.976   3.140   3.216   3.270   3.273
  3.395   3.434   3.708   3.757   3.942   4.020   4.228   4.298
  4.307   4.334   4.399   4.547   4.645   4.733
 --------------------------------------------------------------
 
          Ground-State Mulliken Net Atomic Charges

     Atom                 Charge (a.u.)
  ----------------------------------------
      1 S                    -0.140680
      2 C                     0.019173
      3 H                     0.199942
      4 C                    -0.404301
      5 H                     0.119521
      6 C                     0.360842
      7 H                     0.107510
      8 C                    -0.262031
      9 C                    -0.259958
     10 C                     0.358317
     11 H                     0.107368
     12 C                    -0.403850
     13 H                     0.119544
     14 C                     0.019285
     15 H                     0.199961
     16 S                    -0.140642
  ----------------------------------------
  Sum of atomic charges =     0.000000

 -----------------------------------------------------------------
                    Cartesian Multipole Moments
 -----------------------------------------------------------------
    Charge (ESU x 10^10)
                -0.0000
    Dipole Moment (Debye)
         X       0.5007      Y      -0.1215      Z      -0.9081
       Tot       1.0441
    Quadrupole Moments (Debye-Ang)
        XX     -63.4174     XY      -0.6174     YY     -78.6937
        XZ       2.8358     YZ       1.2097     ZZ     -62.9606
    Octopole Moments (Debye-Ang^2)
       XXX     159.1338    XXY      -1.5277    XYY      65.5818
       YYY     -17.7369    XXZ     106.8061    XYZ       0.0930
       YYZ     143.6443    XZZ      51.7364    YZZ     -12.8813
       ZZZ     344.6593
    Hexadecapole Moments (Debye-Ang^3)
      XXXX   -1835.2999   XXXY      20.4800   XXYY    -407.5864
      XYYY      50.7934   YYYY    -119.3263   XXXZ    -558.1037
      XXYZ      -0.6160   XYYZ    -247.0621   YYYZ      17.0707
      XXZZ    -643.4561   XYZZ      24.2269   YYZZ    -457.5813
      XZZZ    -590.4614   YZZZ      57.3349   ZZZZ   -2102.8004
 -----------------------------------------------------------------
 Calculating analytic gradient of the SCF energy
 Gradient of SCF Energy
            1           2           3           4           5           6
    1  -0.0000637  -0.0001927  -0.0000038   0.0000097   0.0000020  -0.0000750
    2   0.0002473   0.0000368  -0.0000371   0.0001370  -0.0000276  -0.0005697
    3   0.0005860  -0.0001895  -0.0000403  -0.0000712  -0.0000525   0.0001365
            7           8           9          10          11          12
    1   0.0000336   0.0001665   0.0001636   0.0000282   0.0000197   0.0000075
    2  -0.0000445   0.0004348  -0.0004770   0.0005450   0.0000411  -0.0001287
    3  -0.0000390  -0.0003937  -0.0002961   0.0000364  -0.0000510  -0.0000123
           13          14          15          16
    1   0.0000586   0.0002413   0.0000463  -0.0004418
    2   0.0000105  -0.0000577   0.0000216  -0.0001319
    3  -0.0000442   0.0000463  -0.0000333   0.0004177
 Max gradient component =       5.860E-04
 RMS gradient           =       2.218E-04
 Gradient time:  CPU 2.08 s  wall 2.11 s
 Geometry Optimization Parameters
   NAtoms,    NIC,     NZ,  NCons,   NDum,   NFix, NCnnct, MaxDiis
       16     111       0       1       0       0       0       0

 Cartesian Hessian Update
 Hessian Updated using BFGS Update


** CONSTRAINED OPTIMIZATION IN DELOCALIZED INTERNAL COORDINATES **
   Searching for a Minimum

   Optimization Cycle:   3

                       Coordinates (Angstroms)
     ATOM                X               Y               Z
      1  S         0.0292713862    0.0568597997    0.0377238713
      2  C         1.7625835218    0.0226793402   -0.0045933899
      3  H         2.3240426877    0.0283725980    0.9192854663
      4  C         2.2339964398   -0.0100348448   -1.2908842105
      5  H         3.2890304247   -0.0349406095   -1.5389522776
      6  C         1.1932421359   -0.0001794474   -2.2623710397
      7  H         1.3722044719   -0.0053214403   -3.3312098381
      8  C        -0.0738709277    0.0379216956   -1.7141926427
      9  C        -1.3464413648    0.0466998994   -2.4180580830
     10  C        -1.5669973135   -0.1705882129   -3.7639870966
     11  H        -0.7709174401   -0.4052361494   -4.4609130678
     12  C        -2.9373050308   -0.0775556498   -4.1391355810
     13  H        -3.2956637358   -0.2217051426   -5.1520890659
     14  C        -3.7608480692    0.2069454342   -3.0817044796
     15  H        -4.8351910865    0.3284104312   -3.0775972085
     16  S        -2.8674582098    0.3753558284   -1.6050847667
   Point Group: c1    Number of degrees of freedom:    42


   Energy is  -1104.839113998

              Constraints and their Current Values
                                        Value     Constraint
   Dihedral:        6   8   9  10       10.000       10.000
 Hessian Updated using BFGS Update

 38 Hessian modes will be used to form the next step
  Hessian Eigenvalues:
     0.026357    0.045000    0.045000    0.045001    0.045003    0.045006
     0.045012    0.045044    0.046176    0.158653    0.159947    0.159992
     0.159998    0.160001    0.160977    0.219895    0.221355    0.233137
     0.237861    0.250019    0.285053    0.294450    0.305067    0.312579
     0.313728    0.354561    0.354813    0.355129    0.355194    0.358268
     0.358463    0.389624    0.404887    0.444098    0.462087    0.464003
     0.497933    0.501591

 Minimum Search - Taking Simple RFO Step
 Searching for Lamda that Minimizes Along All modes
 Value Taken    Lamda =  -0.00001280
 Step Taken.  Stepsize is  0.019155

                             Maximum     Tolerance    Cnvgd?
         Gradient           0.000476      0.000300      NO
         Displacement       0.015690      0.001200      NO
         Energy change     -0.000028      0.000001      NO


 New Cartesian Coordinates Obtained by Inverse Iteration

 Displacement from previous Coordinates is:  0.033025
 ----------------------------------------------------------------
             Standard Nuclear Orientation (Angstroms)
    I     Atom           X                Y                Z
 ----------------------------------------------------------------
    1      S       0.0302594331     0.0524808695     0.0378104641
    2      C       1.7635633450     0.0201422047    -0.0047243359
    3      H       2.3250932638     0.0237056781     0.9191662560
    4      C       2.2339492498    -0.0082768596    -1.2915731010
    5      H       3.2888777905    -0.0313733369    -1.5402334071
    6      C       1.1924584076     0.0041210419    -2.2624154323
    7      H       1.3707861133     0.0019585903    -3.3312520152
    8      C      -0.0745343810     0.0396600541    -1.7129632507
    9      C      -1.3473368010     0.0444708475    -2.4163398051
   10      C      -1.5670867779    -0.1750083808    -3.7624277141
   11      H      -0.7710538735    -0.4125129099    -4.4582682115
   12      C      -2.9368493834    -0.0791609915    -4.1391308652
   13      H      -3.2949210048    -0.2246209333    -5.1519824412
   14      C      -3.7608782932     0.2095349198    -3.0831547330
   15      H      -4.8349753779     0.3335933450    -3.0796134600
   16      S      -2.8676738204     0.3789693909    -1.6066613579
 ----------------------------------------------------------------
 Nuclear Repulsion Energy =   631.6794835809 hartrees
 There are       43 alpha and       43 beta electrons
 Applying Cartesian multipole field
    Component          Value
    ---------          -----
     (2,0,0)        1.00000E-11
     (0,2,0)        2.00000E-11
     (0,0,2)       -3.00000E-12
 Nucleus-field energy     =     0.0000000098 hartrees
 Requested basis set is 6-31++G(d,p)
 There are 76 shells and 234 basis functions
 A cutoff of  1.0D-12 yielded   2529 shell pairs
 There are     24877 function pairs

 Q-Chem warning in module /project/projectdirs/jcesr/qchem/qc44/cnl_qc441/compile/cori/qc_src/libqints/qchem/aobasis.C, line 68:

 Using reconstructed effective core potential

 Smallest overlap matrix eigenvalue = 6.90E-07
 Linear dependence detected in AO basis
 Number of orthogonalized atomic orbitals = 233
 Maximum deviation from orthogonality = 1.610E-10
 Guess MOs from SCF MO coefficient file
 Reading MOs from coefficient file
 Reading MOs from coefficient file
 A restricted hybrid HF-DFT SCF calculation will be
 performed using Pulay DIIS extrapolation
 Exchange:     0.2000 Hartree-Fock + 0.0800 Slater + 0.7200 B88
 Correlation:  0.1900 VWN1RPA + 0.8100 LYP
 Using SG-1 standard quadrature grid
 SCF converges when DIIS error is below 1.0E-08
 Geometry optimization detected.  Setting ReadMinima to 0
 Setting SaveMinima to 0
 ---------------------------------------
  Cycle       Energy         DIIS Error
 ---------------------------------------
    1   -1104.8396778880      1.96E-04
    2   -1104.8391184750      2.42E-05
    3   -1104.8391046225      4.87E-05
    4   -1104.8391235693      5.42E-06
    5   -1104.8391237643      2.23E-06
    6   -1104.8391237918      1.13E-06
    7   -1104.8391238010      2.20E-07
    8   -1104.8391238021      8.24E-08
    9   -1104.8391238027      1.04E-08
   10   -1104.8391238036      2.79E-09 Convergence criterion met
 ---------------------------------------
 SCF time:  CPU 5.62 s  wall 5.31 s
 SCF   energy in the final basis set = -1104.8391238036
 Total energy in the final basis set = -1104.8391238036
 
 --------------------------------------------------------------
 
                    Orbital Energies (a.u.)
 --------------------------------------------------------------
 
 Alpha MOs
 -- Occupied --
-88.920 -88.920 -10.240 -10.239 -10.225 -10.225 -10.205 -10.205
-10.203 -10.203  -7.980  -7.980  -5.944  -5.944  -5.940  -5.940
 -5.937  -5.937  -0.901  -0.878  -0.772  -0.750  -0.737  -0.705
 -0.604  -0.580  -0.553  -0.533  -0.528  -0.477  -0.422  -0.419
 -0.408  -0.403  -0.402  -0.377  -0.374  -0.360  -0.343  -0.283
 -0.266  -0.258  -0.211
 -- Virtual --
 -0.059  -0.014  -0.003  -0.000   0.005   0.014   0.019   0.026
  0.026   0.036   0.040   0.045   0.050   0.061   0.066   0.070
  0.078   0.084   0.086   0.094   0.101   0.102   0.107   0.113
  0.115   0.123   0.127   0.129   0.138   0.138   0.144   0.145
  0.148   0.155   0.157   0.160   0.166   0.178   0.184   0.189
  0.190   0.193   0.197   0.206   0.210   0.216   0.229   0.240
  0.259   0.260   0.267   0.272   0.282   0.293   0.301   0.310
  0.312   0.314   0.335   0.345   0.362   0.380   0.383   0.426
  0.443   0.465   0.492   0.534   0.547   0.562   0.566   0.573
  0.595   0.626   0.647   0.653   0.657   0.668   0.670   0.672
  0.703   0.718   0.720   0.722   0.733   0.754   0.764   0.792
  0.804   0.815   0.831   0.842   0.884   0.923   0.929   0.947
  0.954   0.956   0.970   0.980   0.986   1.009   1.010   1.012
  1.025   1.032   1.079   1.084   1.106   1.114   1.135   1.169
  1.188   1.188   1.206   1.247   1.258   1.336   1.340   1.352
  1.355   1.369   1.371   1.443   1.496   1.529   1.550   1.593
  1.645   1.693   1.711   1.782   1.856   1.874   1.893   1.915
  1.923   1.978   1.993   2.011   2.019   2.073   2.089   2.126
  2.128   2.170   2.182   2.245   2.245   2.294   2.294   2.360
  2.366   2.416   2.455   2.476   2.476   2.499   2.509   2.533
  2.544   2.566   2.575   2.597   2.684   2.690   2.722   2.756
  2.804   2.855   2.950   2.976   3.140   3.216   3.270   3.273
  3.395   3.434   3.708   3.757   3.942   4.020   4.229   4.298
  4.307   4.333   4.399   4.547   4.645   4.733
 --------------------------------------------------------------
 
          Ground-State Mulliken Net Atomic Charges

     Atom                 Charge (a.u.)
  ----------------------------------------
      1 S                    -0.139693
      2 C                     0.020471
      3 H                     0.199892
      4 C                    -0.402335
      5 H                     0.119501
      6 C                     0.359419
      7 H                     0.107831
      8 C                    -0.264963
      9 C                    -0.263468
     10 C                     0.356568
     11 H                     0.107694
     12 C                    -0.401634
     13 H                     0.119525
     14 C                     0.020691
     15 H                     0.199939
     16 S                    -0.139437
  ----------------------------------------
  Sum of atomic charges =     0.000000

 -----------------------------------------------------------------
                    Cartesian Multipole Moments
 -----------------------------------------------------------------
    Charge (ESU x 10^10)
                -0.0000
    Dipole Moment (Debye)
         X       0.5000      Y      -0.1204      Z      -0.9070
       Tot       1.0426
    Quadrupole Moments (Debye-Ang)
        XX     -63.4155     XY      -0.6309     YY     -78.6845
        XZ       2.8483     YZ       1.1970     ZZ     -62.9735
    Octopole Moments (Debye-Ang^2)
       XXX     159.1184    XXY      -1.4062    XYY      65.5472
       YYY     -17.6987    XXZ     106.7807    XYZ       0.0896
       YYZ     143.6262    XZZ      51.7042    YZZ     -12.8939
       ZZZ     344.7751
    Hexadecapole Moments (Debye-Ang^3)
      XXXX   -1835.4289   XXXY      20.2564   XXYY    -407.5379
      XYYY      51.0292   YYYY    -119.6396   XXXZ    -558.0932
      XXYZ      -0.8881   XYYZ    -247.0703   YYYZ      17.2541
      XXZZ    -643.3036   XYZZ      24.3478   YYZZ    -457.5105
      XZZZ    -590.6416   YZZZ      57.7047   ZZZZ   -2103.3525
 -----------------------------------------------------------------
 Calculating analytic gradient of the SCF energy
 Gradient of SCF Energy
            1           2           3           4           5           6
    1   0.0000832  -0.0000565  -0.0000087   0.0000223   0.0000005  -0.0000307
    2   0.0002049   0.0000581  -0.0000532   0.0000712  -0.0000276  -0.0005549
    3   0.0000378  -0.0000490   0.0000105  -0.0000422  -0.0000112  -0.0000797
            7           8           9          10          11          12
    1   0.0000409  -0.0001750   0.0000291   0.0001455  -0.0000437  -0.0000012
    2  -0.0000675   0.0007894  -0.0007207   0.0005011   0.0000726  -0.0000679
    3   0.0000334  -0.0000114   0.0003041  -0.0001334  -0.0000255  -0.0000111
           13          14          15          16
    1   0.0000167   0.0000939   0.0000036  -0.0001199
    2   0.0000246  -0.0000722   0.0000556  -0.0002135
    3  -0.0000146  -0.0000006  -0.0000039  -0.0000031
 Max gradient component =       7.894E-04
 RMS gradient           =       2.062E-04
 Gradient time:  CPU 2.15 s  wall 2.10 s
 Geometry Optimization Parameters
   NAtoms,    NIC,     NZ,  NCons,   NDum,   NFix, NCnnct, MaxDiis
       16     111       0       1       0       0       0       0

 Cartesian Hessian Update
 Hessian Updated using BFGS Update


** CONSTRAINED OPTIMIZATION IN DELOCALIZED INTERNAL COORDINATES **
   Searching for a Minimum

   Optimization Cycle:   4

                       Coordinates (Angstroms)
     ATOM                X               Y               Z
      1  S         0.0302594331    0.0524808695    0.0378104641
      2  C         1.7635633450    0.0201422047   -0.0047243359
      3  H         2.3250932638    0.0237056781    0.9191662560
      4  C         2.2339492498   -0.0082768596   -1.2915731010
      5  H         3.2888777905   -0.0313733369   -1.5402334071
      6  C         1.1924584076    0.0041210419   -2.2624154323
      7  H         1.3707861133    0.0019585903   -3.3312520152
      8  C        -0.0745343810    0.0396600541   -1.7129632507
      9  C        -1.3473368010    0.0444708475   -2.4163398051
     10  C        -1.5670867779   -0.1750083808   -3.7624277141
     11  H        -0.7710538735   -0.4125129099   -4.4582682115
     12  C        -2.9368493834   -0.0791609915   -4.1391308652
     13  H        -3.2949210048   -0.2246209333   -5.1519824412
     14  C        -3.7608782932    0.2095349198   -3.0831547330
     15  H        -4.8349753779    0.3335933450   -3.0796134600
     16  S        -2.8676738204    0.3789693909   -1.6066613579
   Point Group: c1    Number of degrees of freedom:    42


   Energy is  -1104.839123804

              Constraints and their Current Values
                                        Value     Constraint
   Dihedral:        6   8   9  10       10.000       10.000
 Hessian Updated using BFGS Update

 41 Hessian modes will be used to form the next step
  Hessian Eigenvalues:
     0.010484    0.044952    0.045000    0.045000    0.045000    0.045001
     0.045002    0.045003    0.045003    0.045011    0.045013    0.046383
     0.159873    0.159946    0.159991    0.160000    0.160484    0.160926
     0.221299    0.221857    0.237837    0.238944    0.250017    0.290308
     0.294413    0.309207    0.312581    0.322500    0.354793    0.355121
     0.355131    0.356012    0.358281    0.359640    0.392446    0.404946
     0.440936    0.463719    0.482131    0.497943    0.501075

 Minimum Search - Taking Simple RFO Step
 Searching for Lamda that Minimizes Along All modes
 Value Taken    Lamda =  -0.00001654
 Step Taken.  Stepsize is  0.037416

                             Maximum     Tolerance    Cnvgd?
         Gradient           0.000514      0.000300      NO
         Displacement       0.031132      0.001200      NO
         Energy change     -0.000010      0.000001      NO


 New Cartesian Coordinates Obtained by Inverse Iteration

 Displacement from previous Coordinates is:  0.062878
 ----------------------------------------------------------------
             Standard Nuclear Orientation (Angstroms)
    I     Atom           X                Y                Z
 ----------------------------------------------------------------
    1      S       0.0301418003     0.0423640240     0.0368063007
    2      C       1.7635365763     0.0148593505    -0.0046676013
    3      H       2.3243785143     0.0154207129     0.9196371976
    4      C       2.2340667104    -0.0048772987    -1.2917475031
    5      H       3.2891601188    -0.0232658621    -1.5400891690
    6      C       1.1928310051     0.0115089049    -2.2628437012
    7      H       1.3710770955     0.0161676948    -3.3316463777
    8      C      -0.0743733840     0.0425550748    -1.7129818345
    9      C      -1.3477966119     0.0403680128    -2.4157026145
   10      C      -1.5678295440    -0.1827380713    -3.7614375520
   11      H      -0.7726174315    -0.4269050915    -4.4558878756
   12      C      -2.9370881713    -0.0821871226    -4.1387078916
   13      H      -3.2960942111    -0.2314498595    -5.1506696400
   14      C      -3.7602076006     0.2150525936    -3.0842099913
   15      H      -4.8338655877     0.3428456165    -3.0805735890
   16      S      -2.8656413887     0.3879648509    -1.6090415676
 ----------------------------------------------------------------
 Nuclear Repulsion Energy =   631.7356175060 hartrees
 There are       43 alpha and       43 beta electrons
 Applying Cartesian multipole field
    Component          Value
    ---------          -----
     (2,0,0)        1.00000E-11
     (0,2,0)        2.00000E-11
     (0,0,2)       -3.00000E-12
 Nucleus-field energy     =     0.0000000098 hartrees
 Requested basis set is 6-31++G(d,p)
 There are 76 shells and 234 basis functions
 A cutoff of  1.0D-12 yielded   2529 shell pairs
 There are     24877 function pairs

 Q-Chem warning in module /project/projectdirs/jcesr/qchem/qc44/cnl_qc441/compile/cori/qc_src/libqints/qchem/aobasis.C, line 68:

 Using reconstructed effective core potential

 Smallest overlap matrix eigenvalue = 6.89E-07
 Linear dependence detected in AO basis
 Number of orthogonalized atomic orbitals = 233
 Maximum deviation from orthogonality = 1.158E-10
 Guess MOs from SCF MO coefficient file
 Reading MOs from coefficient file
 Reading MOs from coefficient file
 A restricted hybrid HF-DFT SCF calculation will be
 performed using Pulay DIIS extrapolation
 Exchange:     0.2000 Hartree-Fock + 0.0800 Slater + 0.7200 B88
 Correlation:  0.1900 VWN1RPA + 0.8100 LYP
 Using SG-1 standard quadrature grid
 SCF converges when DIIS error is below 1.0E-08
 Geometry optimization detected.  Setting ReadMinima to 0
 Setting SaveMinima to 0
 ---------------------------------------
  Cycle       Energy         DIIS Error
 ---------------------------------------
    1   -1104.8416288459      3.61E-04
    2   -1104.8391258896      2.82E-05
    3   -1104.8391143116      4.86E-05
    4   -1104.8391339576      7.78E-06
    5   -1104.8391343863      1.92E-06
    6   -1104.8391343997      1.48E-06
    7   -1104.8391344157      3.82E-07
    8   -1104.8391344162      1.32E-07
    9   -1104.8391344172      1.95E-08
   10   -1104.8391344177      7.43E-09 Convergence criterion met
 ---------------------------------------
 SCF time:  CPU 5.64 s  wall 5.27 s
 SCF   energy in the final basis set = -1104.8391344177
 Total energy in the final basis set = -1104.8391344177
 
 --------------------------------------------------------------
 
                    Orbital Energies (a.u.)
 --------------------------------------------------------------
 
 Alpha MOs
 -- Occupied --
-88.920 -88.920 -10.240 -10.239 -10.225 -10.225 -10.205 -10.205
-10.203 -10.203  -7.980  -7.980  -5.944  -5.944  -5.940  -5.940
 -5.937  -5.937  -0.901  -0.878  -0.772  -0.750  -0.737  -0.705
 -0.604  -0.580  -0.553  -0.533  -0.528  -0.477  -0.422  -0.419
 -0.408  -0.403  -0.402  -0.377  -0.374  -0.360  -0.343  -0.283
 -0.265  -0.258  -0.211
 -- Virtual --
 -0.059  -0.014  -0.003  -0.000   0.005   0.014   0.019   0.026
  0.026   0.036   0.040   0.045   0.050   0.061   0.066   0.070
  0.078   0.084   0.086   0.094   0.102   0.102   0.107   0.113
  0.115   0.123   0.127   0.129   0.138   0.138   0.144   0.145
  0.147   0.155   0.158   0.160   0.166   0.178   0.184   0.189
  0.190   0.193   0.196   0.206   0.210   0.216   0.228   0.240
  0.258   0.260   0.267   0.272   0.280   0.292   0.301   0.310
  0.312   0.314   0.334   0.346   0.362   0.380   0.383   0.426
  0.443   0.465   0.492   0.534   0.546   0.561   0.567   0.572
  0.595   0.626   0.646   0.653   0.657   0.667   0.668   0.672
  0.703   0.719   0.720   0.722   0.733   0.754   0.763   0.792
  0.802   0.816   0.831   0.843   0.884   0.922   0.930   0.947
  0.954   0.955   0.970   0.979   0.986   1.008   1.009   1.012
  1.026   1.032   1.079   1.084   1.106   1.113   1.135   1.169
  1.187   1.188   1.206   1.247   1.257   1.334   1.340   1.353
  1.355   1.368   1.371   1.440   1.496   1.530   1.550   1.591
  1.647   1.694   1.712   1.782   1.856   1.874   1.893   1.914
  1.923   1.977   1.992   2.011   2.019   2.072   2.088   2.126
  2.128   2.172   2.182   2.244   2.245   2.293   2.295   2.360
  2.366   2.416   2.455   2.476   2.476   2.499   2.508   2.532
  2.544   2.565   2.575   2.597   2.684   2.690   2.722   2.756
  2.803   2.855   2.949   2.975   3.140   3.216   3.270   3.273
  3.395   3.434   3.708   3.757   3.942   4.019   4.229   4.298
  4.307   4.332   4.400   4.546   4.645   4.733
 --------------------------------------------------------------
 
          Ground-State Mulliken Net Atomic Charges

     Atom                 Charge (a.u.)
  ----------------------------------------
      1 S                    -0.138920
      2 C                     0.023170
      3 H                     0.199746
      4 C                    -0.399754
      5 H                     0.119432
      6 C                     0.360034
      7 H                     0.108702
      8 C                    -0.272246
      9 C                    -0.271460
     10 C                     0.357044
     11 H                     0.108593
     12 C                    -0.398696
     13 H                     0.119460
     14 C                     0.023568
     15 H                     0.199836
     16 S                    -0.138508
  ----------------------------------------
  Sum of atomic charges =     0.000000

 -----------------------------------------------------------------
                    Cartesian Multipole Moments
 -----------------------------------------------------------------
    Charge (ESU x 10^10)
                -0.0000
    Dipole Moment (Debye)
         X       0.4986      Y      -0.1189      Z      -0.9046
       Tot       1.0397
    Quadrupole Moments (Debye-Ang)
        XX     -63.4160     XY      -0.6404     YY     -78.6668
        XZ       2.8585     YZ       1.1849     ZZ     -62.9928
    Octopole Moments (Debye-Ang^2)
       XXX     159.0631    XXY      -1.1935    XYY      65.4678
       YYY     -17.6386    XXZ     106.7878    XYZ       0.0245
       YYZ     143.6102    XZZ      51.6685    YZZ     -12.9843
       ZZZ     345.0517
    Hexadecapole Moments (Debye-Ang^3)
      XXXX   -1834.8202   XXXY      20.3342   XXYY    -407.2662
      XYYY      51.7532   YYYY    -120.3888   XXXZ    -558.1044
      XXYZ      -1.1723   XYYZ    -246.9880   YYYZ      17.7682
      XXZZ    -643.0987   XYZZ      24.9203   YYZZ    -457.4359
      XZZZ    -590.8906   YZZZ      58.8660   ZZZZ   -2104.7743
 -----------------------------------------------------------------
 Calculating analytic gradient of the SCF energy
 Gradient of SCF Energy
            1           2           3           4           5           6
    1   0.0000960   0.0000777  -0.0000417  -0.0000520  -0.0000023   0.0001198
    2   0.0000825   0.0000869  -0.0000537  -0.0000188  -0.0000086  -0.0006952
    3  -0.0004711   0.0001136   0.0000367  -0.0000831   0.0000213  -0.0002062
            7           8           9          10          11          12
    1   0.0000359  -0.0002228  -0.0003709   0.0001547  -0.0000485   0.0001208
    2  -0.0000794   0.0015681  -0.0014236   0.0006388   0.0000806   0.0000008
    3   0.0000533   0.0004275   0.0007608  -0.0003666  -0.0000171  -0.0000046
           13          14          15          16
    1  -0.0000189  -0.0001122  -0.0000049   0.0002693
    2   0.0000188  -0.0000834   0.0000710  -0.0001848
    3   0.0000111   0.0000039   0.0000388  -0.0003184
 Max gradient component =       1.568E-03
 RMS gradient           =       3.844E-04
 Gradient time:  CPU 2.14 s  wall 2.07 s
 Geometry Optimization Parameters
   NAtoms,    NIC,     NZ,  NCons,   NDum,   NFix, NCnnct, MaxDiis
       16     111       0       1       0       0       0       0

 Cartesian Hessian Update
 Hessian Updated using BFGS Update


** CONSTRAINED OPTIMIZATION IN DELOCALIZED INTERNAL COORDINATES **
   Searching for a Minimum

   Optimization Cycle:   5

                       Coordinates (Angstroms)
     ATOM                X               Y               Z
      1  S         0.0301418003    0.0423640240    0.0368063007
      2  C         1.7635365763    0.0148593505   -0.0046676013
      3  H         2.3243785143    0.0154207129    0.9196371976
      4  C         2.2340667104   -0.0048772987   -1.2917475031
      5  H         3.2891601188   -0.0232658621   -1.5400891690
      6  C         1.1928310051    0.0115089049   -2.2628437012
      7  H         1.3710770955    0.0161676948   -3.3316463777
      8  C        -0.0743733840    0.0425550748   -1.7129818345
      9  C        -1.3477966119    0.0403680128   -2.4157026145
     10  C        -1.5678295440   -0.1827380713   -3.7614375520
     11  H        -0.7726174315   -0.4269050915   -4.4558878756
     12  C        -2.9370881713   -0.0821871226   -4.1387078916
     13  H        -3.2960942111   -0.2314498595   -5.1506696400
     14  C        -3.7602076006    0.2150525936   -3.0842099913
     15  H        -4.8338655877    0.3428456165   -3.0805735890
     16  S        -2.8656413887    0.3879648509   -1.6090415676
   Point Group: c1    Number of degrees of freedom:    42


   Energy is  -1104.839134418

              Constraints and their Current Values
                                        Value     Constraint
   Dihedral:        6   8   9  10       10.000       10.000
 Hessian Updated using BFGS Update

 40 Hessian modes will be used to form the next step
  Hessian Eigenvalues:
     0.007260    0.044634    0.045000    0.045000    0.045002    0.045002
     0.045003    0.045004    0.045012    0.045135    0.045876    0.159671
     0.159955    0.159992    0.160000    0.160188    0.161089    0.221275
     0.223356    0.224750    0.237844    0.250018    0.290562    0.294440
     0.312495    0.313126    0.341125    0.354790    0.355112    0.355130
     0.356503    0.358286    0.360625    0.391788    0.404954    0.441157
     0.463712    0.495306    0.497971    0.503273

 Minimum Search - Taking Simple RFO Step
 Searching for Lamda that Minimizes Along All modes
 Value Taken    Lamda =  -0.00000552
 Step Taken.  Stepsize is  0.021534

                             Maximum     Tolerance    Cnvgd?
         Gradient           0.000457      0.000300      NO
         Displacement       0.017740      0.001200      NO
         Energy change     -0.000011      0.000001      NO


 New Cartesian Coordinates Obtained by Inverse Iteration

 Displacement from previous Coordinates is:  0.036404
 ----------------------------------------------------------------
             Standard Nuclear Orientation (Angstroms)
    I     Atom           X                Y                Z
 ----------------------------------------------------------------
    1      S       0.0296258317     0.0362105540     0.0363384957
    2      C       1.7631177238     0.0115208667    -0.0045502919
    3      H       2.3237615677     0.0110053871     0.9198715866
    4      C       2.2342733006    -0.0030810808    -1.2914444493
    5      H       3.2895342228    -0.0183417056    -1.5393180925
    6      C       1.1934708607     0.0151983780    -2.2630212260
    7      H       1.3718758371     0.0244353118    -3.3318041517
    8      C      -0.0738906021     0.0440617783    -1.7137800974
    9      C      -1.3475870935     0.0383451224    -2.4162044081
   10      C      -1.5684536415    -0.1865500507    -3.7613469951
   11      H      -0.7739137240    -0.4351902515    -4.4550466407
   12      C      -2.9376491304    -0.0837966586    -4.1383943348
   13      H      -3.2974734098    -0.2358718148    -5.1496567809
   14      C      -3.7596638477     0.2184967148    -3.0844771462
   15      H      -4.8331730709     0.3474727338    -3.0808461981
   16      S      -2.8641769346     0.3937682449    -1.6100826797
 ----------------------------------------------------------------
 Nuclear Repulsion Energy =   631.7302834306 hartrees
 There are       43 alpha and       43 beta electrons
 Applying Cartesian multipole field
    Component          Value
    ---------          -----
     (2,0,0)        1.00000E-11
     (0,2,0)        2.00000E-11
     (0,0,2)       -3.00000E-12
 Nucleus-field energy     =     0.0000000098 hartrees
 Requested basis set is 6-31++G(d,p)
 There are 76 shells and 234 basis functions
 A cutoff of  1.0D-12 yielded   2529 shell pairs
 There are     24877 function pairs

 Q-Chem warning in module /project/projectdirs/jcesr/qchem/qc44/cnl_qc441/compile/cori/qc_src/libqints/qchem/aobasis.C, line 68:

 Using reconstructed effective core potential

 Smallest overlap matrix eigenvalue = 6.92E-07
 Linear dependence detected in AO basis
 Number of orthogonalized atomic orbitals = 233
 Maximum deviation from orthogonality = 8.131E-11
 Guess MOs from SCF MO coefficient file
 Reading MOs from coefficient file
 Reading MOs from coefficient file
 A restricted hybrid HF-DFT SCF calculation will be
 performed using Pulay DIIS extrapolation
 Exchange:     0.2000 Hartree-Fock + 0.0800 Slater + 0.7200 B88
 Correlation:  0.1900 VWN1RPA + 0.8100 LYP
 Using SG-1 standard quadrature grid
 SCF converges when DIIS error is below 1.0E-08
 Geometry optimization detected.  Setting ReadMinima to 0
 Setting SaveMinima to 0
 ---------------------------------------
  Cycle       Energy         DIIS Error
 ---------------------------------------
    1   -1104.8408198746      1.94E-04
    2   -1104.8391359379      1.38E-05
    3   -1104.8391328197      2.54E-05
    4   -1104.8391379834      4.57E-06
    5   -1104.8391381154      1.48E-06
    6   -1104.8391381212      1.20E-06
    7   -1104.8391381323      1.27E-07
    8   -1104.8391381347      3.21E-08
    9   -1104.8391381342      1.72E-08
   10   -1104.8391381342      2.24E-09 Convergence criterion met
 ---------------------------------------
 SCF time:  CPU 5.65 s  wall 5.33 s
 SCF   energy in the final basis set = -1104.8391381342
 Total energy in the final basis set = -1104.8391381342
 
 --------------------------------------------------------------
 
                    Orbital Energies (a.u.)
 --------------------------------------------------------------
 
 Alpha MOs
 -- Occupied --
-88.920 -88.920 -10.240 -10.239 -10.225 -10.225 -10.205 -10.205
-10.203 -10.203  -7.980  -7.980  -5.944  -5.944  -5.940  -5.940
 -5.937  -5.937  -0.901  -0.878  -0.772  -0.750  -0.737  -0.705
 -0.604  -0.580  -0.553  -0.533  -0.528  -0.477  -0.422  -0.419
 -0.408  -0.403  -0.402  -0.377  -0.374  -0.360  -0.343  -0.283
 -0.265  -0.258  -0.211
 -- Virtual --
 -0.059  -0.014  -0.003  -0.000   0.005   0.014   0.019   0.026
  0.026   0.036   0.040   0.045   0.050   0.061   0.065   0.070
  0.078   0.083   0.086   0.094   0.102   0.102   0.107   0.113
  0.115   0.123   0.127   0.129   0.138   0.138   0.144   0.144
  0.147   0.155   0.158   0.160   0.166   0.178   0.184   0.189
  0.189   0.192   0.196   0.206   0.210   0.217   0.228   0.240
  0.257   0.260   0.267   0.272   0.279   0.291   0.301   0.310
  0.312   0.314   0.334   0.346   0.362   0.380   0.382   0.426
  0.443   0.465   0.492   0.534   0.545   0.561   0.567   0.572
  0.595   0.626   0.646   0.653   0.657   0.666   0.668   0.672
  0.703   0.720   0.721   0.722   0.733   0.754   0.763   0.792
  0.802   0.816   0.831   0.844   0.884   0.922   0.930   0.948
  0.954   0.955   0.970   0.978   0.986   1.007   1.009   1.012
  1.026   1.032   1.079   1.083   1.106   1.112   1.134   1.169
  1.187   1.188   1.205   1.247   1.256   1.334   1.340   1.353
  1.355   1.368   1.372   1.439   1.496   1.530   1.551   1.589
  1.649   1.693   1.712   1.782   1.856   1.874   1.892   1.914
  1.923   1.976   1.991   2.012   2.019   2.072   2.088   2.127
  2.129   2.172   2.182   2.244   2.244   2.292   2.295   2.360
  2.366   2.416   2.455   2.475   2.476   2.500   2.508   2.532
  2.544   2.565   2.576   2.597   2.684   2.690   2.722   2.756
  2.802   2.855   2.949   2.975   3.140   3.216   3.270   3.273
  3.395   3.434   3.708   3.756   3.942   4.019   4.229   4.298
  4.307   4.332   4.400   4.546   4.645   4.733
 --------------------------------------------------------------
 
          Ground-State Mulliken Net Atomic Charges

     Atom                 Charge (a.u.)
  ----------------------------------------
      1 S                    -0.138799
      2 C                     0.024753
      3 H                     0.199650
      4 C                    -0.398955
      5 H                     0.119379
      6 C                     0.361529
      7 H                     0.109256
      8 C                    -0.276735
      9 C                    -0.276087
     10 C                     0.358746
     11 H                     0.109169
     12 C                    -0.397801
     13 H                     0.119407
     14 C                     0.025189
     15 H                     0.199747
     16 S                    -0.138448
  ----------------------------------------
  Sum of atomic charges =     0.000000

 -----------------------------------------------------------------
                    Cartesian Multipole Moments
 -----------------------------------------------------------------
    Charge (ESU x 10^10)
                -0.0000
    Dipole Moment (Debye)
         X       0.4986      Y      -0.1187      Z      -0.9047
       Tot       1.0398
    Quadrupole Moments (Debye-Ang)
        XX     -63.4144     XY      -0.6351     YY     -78.6579
        XZ       2.8635     YZ       1.1852     ZZ     -62.9979
    Octopole Moments (Debye-Ang^2)
       XXX     159.0366    XXY      -1.0969    XYY      65.4269
       YYY     -17.6213    XXZ     106.7863    XYZ      -0.0456
       YYZ     143.5978    XZZ      51.6391    YZZ     -13.0713
       ZZZ     345.1884
    Hexadecapole Moments (Debye-Ang^3)
      XXXX   -1834.3778   XXXY      20.6744   XXYY    -407.1122
      XYYY      52.3116   YYYY    -120.8779   XXXZ    -558.0857
      XXYZ      -1.1974   XYYZ    -246.9320   YYYZ      18.1523
      XXZZ    -642.9611   XYZZ      25.4230   YYZZ    -457.3977
      XZZZ    -590.9602   YZZZ      59.7512   ZZZZ   -2105.6320
 -----------------------------------------------------------------
 Calculating analytic gradient of the SCF energy
 Gradient of SCF Energy
            1           2           3           4           5           6
    1   0.0000336   0.0000885  -0.0000342  -0.0000690   0.0000029   0.0001066
    2   0.0000123   0.0000677  -0.0000354  -0.0000345   0.0000122  -0.0008700
    3  -0.0003913   0.0001090   0.0000255  -0.0000638   0.0000221  -0.0001169
            7           8           9          10          11          12
    1   0.0000113  -0.0000509  -0.0004207   0.0001122  -0.0000199   0.0001204
    2  -0.0000583   0.0020341  -0.0019348   0.0008404   0.0000565   0.0000188
    3   0.0000330   0.0002930   0.0006315  -0.0003417  -0.0000029   0.0000059
           13          14          15          16
    1  -0.0000220  -0.0001275   0.0000007   0.0002678
    2  -0.0000025  -0.0000624   0.0000471  -0.0000914
    3   0.0000089   0.0000002   0.0000278  -0.0002403
 Max gradient component =       2.034E-03
 RMS gradient           =       4.686E-04
 Gradient time:  CPU 2.08 s  wall 2.07 s
 Geometry Optimization Parameters
   NAtoms,    NIC,     NZ,  NCons,   NDum,   NFix, NCnnct, MaxDiis
       16     111       0       1       0       0       0       0

 Cartesian Hessian Update
 Hessian Updated using BFGS Update


** CONSTRAINED OPTIMIZATION IN DELOCALIZED INTERNAL COORDINATES **
   Searching for a Minimum

   Optimization Cycle:   6

                       Coordinates (Angstroms)
     ATOM                X               Y               Z
      1  S         0.0296258317    0.0362105540    0.0363384957
      2  C         1.7631177238    0.0115208667   -0.0045502919
      3  H         2.3237615677    0.0110053871    0.9198715866
      4  C         2.2342733006   -0.0030810808   -1.2914444493
      5  H         3.2895342228   -0.0183417056   -1.5393180925
      6  C         1.1934708607    0.0151983780   -2.2630212260
      7  H         1.3718758371    0.0244353118   -3.3318041517
      8  C        -0.0738906021    0.0440617783   -1.7137800974
      9  C        -1.3475870935    0.0383451224   -2.4162044081
     10  C        -1.5684536415   -0.1865500507   -3.7613469951
     11  H        -0.7739137240   -0.4351902515   -4.4550466407
     12  C        -2.9376491304   -0.0837966586   -4.1383943348
     13  H        -3.2974734098   -0.2358718148   -5.1496567809
     14  C        -3.7596638477    0.2184967148   -3.0844771462
     15  H        -4.8331730709    0.3474727338   -3.0808461981
     16  S        -2.8641769346    0.3937682449   -1.6100826797
   Point Group: c1    Number of degrees of freedom:    42


   Energy is  -1104.839138134

              Constraints and their Current Values
                                        Value     Constraint
   Dihedral:        6   8   9  10       10.000       10.000
 Hessian Updated using BFGS Update

 40 Hessian modes will be used to form the next step
  Hessian Eigenvalues:
     0.006639    0.042075    0.045000    0.045000    0.045002    0.045003
     0.045003    0.045008    0.045012    0.045137    0.045578    0.155548
     0.159949    0.159992    0.160000    0.160120    0.160697    0.206206
     0.221312    0.225128    0.237844    0.250015    0.290875    0.294474
     0.303499    0.312575    0.315603    0.354782    0.354978    0.355129
     0.355348    0.358278    0.359033    0.392515    0.404912    0.441432
     0.463705    0.471110    0.497962    0.500102

 Minimum Search - Taking Simple RFO Step
 Searching for Lamda that Minimizes Along All modes
 Value Taken    Lamda =  -0.00000212
 Step Taken.  Stepsize is  0.010309

                             Maximum     Tolerance    Cnvgd?
         Gradient           0.000344      0.000300      NO
         Displacement       0.007807      0.001200      NO
         Energy change     -0.000004      0.000001      NO


 New Cartesian Coordinates Obtained by Inverse Iteration

 Displacement from previous Coordinates is:  0.016501
 ----------------------------------------------------------------
             Standard Nuclear Orientation (Angstroms)
    I     Atom           X                Y                Z
 ----------------------------------------------------------------
    1      S       0.0292786167     0.0334747459     0.0364189372
    2      C       1.7628094079     0.0098061703    -0.0045008639
    3      H       2.3236169553     0.0092232096     0.9198285558
    4      C       2.2344198903    -0.0024609200    -1.2911800154
    5      H       3.2897486326    -0.0162617197    -1.5388432604
    6      C       1.1938322941     0.0166166678    -2.2630365865
    7      H       1.3723831117     0.0284228148    -3.3318212663
    8      C      -0.0735763501     0.0447497032    -1.7144239188
    9      C      -1.3472883375     0.0376857700    -2.4167205760
   10      C      -1.5687730785    -0.1879339104    -3.7613987292
   11      H      -0.7746300261    -0.4390513919    -4.4547401309
   12      C      -2.9380353702    -0.0844035823    -4.1382438722
   13      H      -3.2982013849    -0.2379997803    -5.1491557483
   14      C      -3.7593576121     0.2201925603    -3.0845336763
   15      H      -4.8328868139     0.3490210703    -3.0810807589
   16      S      -2.8636620453     0.3966021224    -1.6103314998
 ----------------------------------------------------------------
 Nuclear Repulsion Energy =   631.6961773884 hartrees
 There are       43 alpha and       43 beta electrons
 Applying Cartesian multipole field
    Component          Value
    ---------          -----
     (2,0,0)        1.00000E-11
     (0,2,0)        2.00000E-11
     (0,0,2)       -3.00000E-12
 Nucleus-field energy     =     0.0000000098 hartrees
 Requested basis set is 6-31++G(d,p)
 There are 76 shells and 234 basis functions
 A cutoff of  1.0D-12 yielded   2529 shell pairs
 There are     24877 function pairs

 Q-Chem warning in module /project/projectdirs/jcesr/qchem/qc44/cnl_qc441/compile/cori/qc_src/libqints/qchem/aobasis.C, line 68:

 Using reconstructed effective core potential

 Smallest overlap matrix eigenvalue = 6.93E-07
 Linear dependence detected in AO basis
 Number of orthogonalized atomic orbitals = 233
 Maximum deviation from orthogonality = 9.351E-11
 Guess MOs from SCF MO coefficient file
 Reading MOs from coefficient file
 Reading MOs from coefficient file
 A restricted hybrid HF-DFT SCF calculation will be
 performed using Pulay DIIS extrapolation
 Exchange:     0.2000 Hartree-Fock + 0.0800 Slater + 0.7200 B88
 Correlation:  0.1900 VWN1RPA + 0.8100 LYP
 Using SG-1 standard quadrature grid
 SCF converges when DIIS error is below 1.0E-08
 Geometry optimization detected.  Setting ReadMinima to 0
 Setting SaveMinima to 0
 ---------------------------------------
  Cycle       Energy         DIIS Error
 ---------------------------------------
    1   -1104.8397545126      8.33E-05
    2   -1104.8391390101      5.64E-06
    3   -1104.8391384320      1.10E-05
    4   -1104.8391393493      1.74E-06
    5   -1104.8391393710      5.09E-07
    6   -1104.8391393731      3.07E-07
    7   -1104.8391393728      1.00E-07
    8   -1104.8391393743      1.85E-08
    9   -1104.8391393755      8.18E-09 Convergence criterion met
 ---------------------------------------
 SCF time:  CPU 5.17 s  wall 4.74 s
 SCF   energy in the final basis set = -1104.8391393755
 Total energy in the final basis set = -1104.8391393755
 
 --------------------------------------------------------------
 
                    Orbital Energies (a.u.)
 --------------------------------------------------------------
 
 Alpha MOs
 -- Occupied --
-88.920 -88.920 -10.240 -10.239 -10.225 -10.225 -10.205 -10.205
-10.203 -10.203  -7.980  -7.980  -5.944  -5.944  -5.940  -5.940
 -5.937  -5.937  -0.901  -0.878  -0.772  -0.750  -0.737  -0.705
 -0.604  -0.580  -0.554  -0.533  -0.528  -0.477  -0.422  -0.419
 -0.408  -0.403  -0.402  -0.377  -0.374  -0.360  -0.343  -0.283
 -0.265  -0.258  -0.211
 -- Virtual --
 -0.059  -0.014  -0.003  -0.000   0.005   0.014   0.019   0.026
  0.026   0.036   0.040   0.045   0.050   0.061   0.065   0.070
  0.078   0.083   0.086   0.094   0.102   0.102   0.107   0.113
  0.115   0.123   0.127   0.129   0.138   0.138   0.144   0.144
  0.147   0.155   0.158   0.160   0.166   0.178   0.184   0.189
  0.189   0.192   0.196   0.207   0.210   0.217   0.228   0.241
  0.256   0.260   0.268   0.272   0.279   0.291   0.301   0.310
  0.312   0.314   0.333   0.346   0.362   0.380   0.382   0.426
  0.443   0.465   0.492   0.534   0.545   0.561   0.567   0.572
  0.595   0.626   0.646   0.653   0.657   0.665   0.668   0.672
  0.703   0.720   0.721   0.722   0.733   0.754   0.762   0.792
  0.801   0.816   0.831   0.844   0.884   0.922   0.930   0.948
  0.954   0.955   0.970   0.978   0.986   1.007   1.009   1.011
  1.026   1.032   1.079   1.083   1.106   1.112   1.134   1.169
  1.187   1.188   1.205   1.247   1.256   1.333   1.340   1.353
  1.355   1.367   1.372   1.439   1.496   1.530   1.551   1.589
  1.650   1.693   1.712   1.782   1.856   1.874   1.892   1.914
  1.923   1.976   1.991   2.012   2.019   2.071   2.087   2.127
  2.128   2.173   2.181   2.244   2.244   2.292   2.295   2.360
  2.366   2.416   2.455   2.475   2.475   2.500   2.508   2.532
  2.544   2.565   2.575   2.596   2.684   2.690   2.722   2.756
  2.802   2.855   2.949   2.975   3.140   3.216   3.270   3.272
  3.395   3.433   3.708   3.756   3.942   4.019   4.229   4.298
  4.307   4.332   4.400   4.546   4.645   4.733
 --------------------------------------------------------------
 
          Ground-State Mulliken Net Atomic Charges

     Atom                 Charge (a.u.)
  ----------------------------------------
      1 S                    -0.138861
      2 C                     0.025580
      3 H                     0.199604
      4 C                    -0.398948
      5 H                     0.119335
      6 C                     0.362761
      7 H                     0.109533
      8 C                    -0.279001
      9 C                    -0.278318
     10 C                     0.360307
     11 H                     0.109462
     12 C                    -0.397904
     13 H                     0.119361
     14 C                     0.026016
     15 H                     0.199694
     16 S                    -0.138620
  ----------------------------------------
  Sum of atomic charges =     0.000000

 -----------------------------------------------------------------
                    Cartesian Multipole Moments
 -----------------------------------------------------------------
    Charge (ESU x 10^10)
                -0.0000
    Dipole Moment (Debye)
         X       0.4992      Y      -0.1191      Z      -0.9058
       Tot       1.0411
    Quadrupole Moments (Debye-Ang)
        XX     -63.4124     XY      -0.6264     YY     -78.6550
        XZ       2.8654     YZ       1.1896     ZZ     -62.9965
    Octopole Moments (Debye-Ang^2)
       XXX     159.0375    XXY      -1.0745    XYY      65.4154
       YYY     -17.6285    XXZ     106.7765    XYZ      -0.0951
       YYZ     143.5865    XZZ      51.6215    YZZ     -13.1302
       ZZZ     345.2202
    Hexadecapole Moments (Debye-Ang^3)
      XXXX   -1834.2252   XXXY      20.9996   XXYY    -407.0684
      XYYY      52.6432   YYYY    -121.1179   XXXZ    -558.0681
      XXYZ      -1.1267   XYYZ    -246.9097   YYYZ      18.3743
      XXZZ    -642.8872   XYZZ      25.7420   YYZZ    -457.3735
      XZZZ    -590.9502   YZZZ      60.2612   ZZZZ   -2105.9650
 -----------------------------------------------------------------
 Calculating analytic gradient of the SCF energy
 Gradient of SCF Energy
            1           2           3           4           5           6
    1  -0.0000150   0.0000373  -0.0000122  -0.0000330   0.0000029   0.0000287
    2  -0.0000115   0.0000320  -0.0000130  -0.0000237   0.0000230  -0.0009968
    3  -0.0001132   0.0000376   0.0000068  -0.0000193   0.0000112   0.0000038
            7           8           9          10          11          12
    1  -0.0000040   0.0000876  -0.0002750   0.0000894   0.0000060   0.0000497
    2  -0.0000260   0.0022437  -0.0022114   0.0009874   0.0000230   0.0000190
    3   0.0000063  -0.0000249   0.0003757  -0.0002321   0.0000022   0.0000025
           13          14          15          16
    1  -0.0000087  -0.0000539   0.0000034   0.0000969
    2  -0.0000177  -0.0000307   0.0000138  -0.0000111
    3   0.0000027  -0.0000030   0.0000018  -0.0000584
 Max gradient component =       2.244E-03
 RMS gradient           =       5.046E-04
 Gradient time:  CPU 2.13 s  wall 2.07 s
 Geometry Optimization Parameters
   NAtoms,    NIC,     NZ,  NCons,   NDum,   NFix, NCnnct, MaxDiis
       16     111       0       1       0       0       0       0

 Cartesian Hessian Update
 Hessian Updated using BFGS Update


** CONSTRAINED OPTIMIZATION IN DELOCALIZED INTERNAL COORDINATES **
   Searching for a Minimum

   Optimization Cycle:   7

                       Coordinates (Angstroms)
     ATOM                X               Y               Z
      1  S         0.0292786167    0.0334747459    0.0364189372
      2  C         1.7628094079    0.0098061703   -0.0045008639
      3  H         2.3236169553    0.0092232096    0.9198285558
      4  C         2.2344198903   -0.0024609200   -1.2911800154
      5  H         3.2897486326   -0.0162617197   -1.5388432604
      6  C         1.1938322941    0.0166166678   -2.2630365865
      7  H         1.3723831117    0.0284228148   -3.3318212663
      8  C        -0.0735763501    0.0447497032   -1.7144239188
      9  C        -1.3472883375    0.0376857700   -2.4167205760
     10  C        -1.5687730785   -0.1879339104   -3.7613987292
     11  H        -0.7746300261   -0.4390513919   -4.4547401309
     12  C        -2.9380353702   -0.0844035823   -4.1382438722
     13  H        -3.2982013849   -0.2379997803   -5.1491557483
     14  C        -3.7593576121    0.2201925603   -3.0845336763
     15  H        -4.8328868139    0.3490210703   -3.0810807589
     16  S        -2.8636620453    0.3966021224   -1.6103314998
   Point Group: c1    Number of degrees of freedom:    42


   Energy is  -1104.839139376

              Constraints and their Current Values
                                        Value     Constraint
   Dihedral:        6   8   9  10       10.000       10.000
 Hessian Updated using BFGS Update

 41 Hessian modes will be used to form the next step
  Hessian Eigenvalues:
     0.007184    0.038260    0.044994    0.045000    0.045000    0.045000
     0.045002    0.045003    0.045004    0.045011    0.045049    0.045871
     0.152532    0.159944    0.159991    0.160000    0.160132    0.160550
     0.198149    0.221306    0.226248    0.237844    0.250013    0.270230
     0.291216    0.294522    0.312559    0.316011    0.354777    0.354899
     0.355129    0.355348    0.358278    0.359026    0.392750    0.404907
     0.441246    0.463720    0.465149    0.497948    0.499910

 Minimum Search - Taking Simple RFO Step
 Searching for Lamda that Minimizes Along All modes
 Value Taken    Lamda =   0.00000000
 Step Taken.  Stepsize is  0.001653

                             Maximum     Tolerance    Cnvgd?
         Gradient           0.000088      0.000300     YES
         Displacement       0.000835      0.001200     YES
         Energy change     -0.000001      0.000001      NO

 Final energy is   -1104.83913937551     


 ******************************
 **  OPTIMIZATION CONVERGED  **
 ******************************

                       Coordinates (Angstroms)
     ATOM                X               Y               Z
      1  S         0.0292786167    0.0334747459    0.0364189372
      2  C         1.7628094079    0.0098061703   -0.0045008639
      3  H         2.3236169553    0.0092232096    0.9198285558
      4  C         2.2344198903   -0.0024609200   -1.2911800154
      5  H         3.2897486326   -0.0162617197   -1.5388432604
      6  C         1.1938322941    0.0166166678   -2.2630365865
      7  H         1.3723831117    0.0284228148   -3.3318212663
      8  C        -0.0735763501    0.0447497032   -1.7144239188
      9  C        -1.3472883375    0.0376857700   -2.4167205760
     10  C        -1.5687730785   -0.1879339104   -3.7613987292
     11  H        -0.7746300261   -0.4390513919   -4.4547401309
     12  C        -2.9380353702   -0.0844035823   -4.1382438722
     13  H        -3.2982013849   -0.2379997803   -5.1491557483
     14  C        -3.7593576121    0.2201925603   -3.0845336763
     15  H        -4.8328868139    0.3490210703   -3.0810807589
     16  S        -2.8636620453    0.3966021224   -1.6103314998

Z-matrix Print:
$molecule
0 1
S 
C  1 1.734175
H  2 1.081152 1 119.891158
C  2 1.370442 1 111.486285 3 -179.829462 0
H  4 1.084088 2 123.339915 1 179.897159 0
C  4 1.423970 2 112.903777 1 0.411549 0
H  6 1.083661 4 123.564076 2 178.878977 0
C  6 1.381337 4 113.559758 2 0.057246 0
C  8 1.454515 6 127.705812 4 -178.417189 0
C  9 1.381347 8 127.678055 6 10.000001 0
H  10 1.083718 9 122.898190 8 2.954569 0
C  10 1.423942 9 113.573879 8 -178.206157 0
H  12 1.084091 10 123.776466 9 -179.461680 0
C  12 1.370275 10 112.893605 9 0.038894 0
H  14 1.081237 12 128.612727 10 -179.406287 0
S  14 1.733973 12 111.516755 10 0.398288 0
$end

 
 --------------------------------------------------------------
 
                    Orbital Energies (a.u.)
 --------------------------------------------------------------
 
 Alpha MOs
 -- Occupied --
-88.920 -88.920 -10.240 -10.239 -10.225 -10.225 -10.205 -10.205
-10.203 -10.203  -7.980  -7.980  -5.944  -5.944  -5.940  -5.940
 -5.937  -5.937  -0.901  -0.878  -0.772  -0.750  -0.737  -0.705
 -0.604  -0.580  -0.554  -0.533  -0.528  -0.477  -0.422  -0.419
 -0.408  -0.403  -0.402  -0.377  -0.374  -0.360  -0.343  -0.283
 -0.265  -0.258  -0.211
 -- Virtual --
 -0.059  -0.014  -0.003  -0.000   0.005   0.014   0.019   0.026
  0.026   0.036   0.040   0.045   0.050   0.061   0.065   0.070
  0.078   0.083   0.086   0.094   0.102   0.102   0.107   0.113
  0.115   0.123   0.127   0.129   0.138   0.138   0.144   0.144
  0.147   0.155   0.158   0.160   0.166   0.178   0.184   0.189
  0.189   0.192   0.196   0.207   0.210   0.217   0.228   0.241
  0.256   0.260   0.268   0.272   0.279   0.291   0.301   0.310
  0.312   0.314   0.333   0.346   0.362   0.380   0.382   0.426
  0.443   0.465   0.492   0.534   0.545   0.561   0.567   0.572
  0.595   0.626   0.646   0.653   0.657   0.665   0.668   0.672
  0.703   0.720   0.721   0.722   0.733   0.754   0.762   0.792
  0.801   0.816   0.831   0.844   0.884   0.922   0.930   0.948
  0.954   0.955   0.970   0.978   0.986   1.007   1.009   1.011
  1.026   1.032   1.079   1.083   1.106   1.112   1.134   1.169
  1.187   1.188   1.205   1.247   1.256   1.333   1.340   1.353
  1.355   1.367   1.372   1.439   1.496   1.530   1.551   1.589
  1.650   1.693   1.712   1.782   1.856   1.874   1.892   1.914
  1.923   1.976   1.991   2.012   2.019   2.071   2.087   2.127
  2.128   2.173   2.181   2.244   2.244   2.292   2.295   2.360
  2.366   2.416   2.455   2.475   2.475   2.500   2.508   2.532
  2.544   2.565   2.575   2.596   2.684   2.690   2.722   2.756
  2.802   2.855   2.949   2.975   3.140   3.216   3.270   3.272
  3.395   3.433   3.708   3.756   3.942   4.019   4.229   4.298
  4.307   4.332   4.400   4.546   4.645   4.733
 --------------------------------------------------------------
 
          Ground-State Mulliken Net Atomic Charges

     Atom                 Charge (a.u.)
  ----------------------------------------
      1 S                    -0.138861
      2 C                     0.025580
      3 H                     0.199604
      4 C                    -0.398948
      5 H                     0.119335
      6 C                     0.362761
      7 H                     0.109533
      8 C                    -0.279001
      9 C                    -0.278318
     10 C                     0.360307
     11 H                     0.109462
     12 C                    -0.397904
     13 H                     0.119361
     14 C                     0.026016
     15 H                     0.199694
     16 S                    -0.138620
  ----------------------------------------
  Sum of atomic charges =     0.000000

 -----------------------------------------------------------------
                    Cartesian Multipole Moments
 -----------------------------------------------------------------
    Charge (ESU x 10^10)
                -0.0000
    Dipole Moment (Debye)
         X       0.4992      Y      -0.1191      Z      -0.9058
       Tot       1.0411
    Quadrupole Moments (Debye-Ang)
        XX     -63.4124     XY      -0.6264     YY     -78.6550
        XZ       2.8654     YZ       1.1896     ZZ     -62.9965
    Octopole Moments (Debye-Ang^2)
       XXX     159.0375    XXY      -1.0745    XYY      65.4154
       YYY     -17.6285    XXZ     106.7765    XYZ      -0.0951
       YYZ     143.5865    XZZ      51.6215    YZZ     -13.1302
       ZZZ     345.2202
    Hexadecapole Moments (Debye-Ang^3)
      XXXX   -1834.2252   XXXY      20.9996   XXYY    -407.0684
      XYYY      52.6432   YYYY    -121.1179   XXXZ    -558.0681
      XXYZ      -1.1267   XYYZ    -246.9097   YYYZ      18.3743
      XXZZ    -642.8872   XYZZ      25.7420   YYZZ    -457.3735
      XZZZ    -590.9502   YZZZ      60.2612   ZZZZ   -2105.9650
 -----------------------------------------------------------------
Archival summary:
1\1\nid00458\OPT\ProcedureUnspecified\BasisUnspecified\286\bwood\WedMay3102:25:402017WedMay3102:25:402017\0\\#,OPT,ProcedureUnspecified,BasisUnspecified,\\0,1\S\C,1,1.73418\H,2,1.08115,1,119.891\C,2,1.37044,1,111.486,3,-179.829,0\H,4,1.08409,2,123.34,1,179.897,0\C,4,1.42397,2,112.904,1,0.411549,0\H,6,1.08366,4,123.564,2,178.879,0\C,6,1.38134,4,113.56,2,0.0572462,0\C,8,1.45451,6,127.706,4,-178.417,0\C,9,1.38135,8,127.678,6,10,0\H,10,1.08372,9,122.898,8,2.95457,0\C,10,1.42394,9,113.574,8,-178.206,0\H,12,1.08409,10,123.776,9,-179.462,0\C,12,1.37028,10,112.894,9,0.0388941,0\H,14,1.08124,12,128.613,10,-179.406,0\S,14,1.73397,12,111.517,10,0.398288,0\\\@

 Total job time:  58.21s(wall), 58.40s(cpu) 
 Wed May 31 02:25:40 2017

        *************************************************************
        *                                                           *
        *  Thank you very much for using Q-Chem.  Have a nice day.  *
        *                                                           *
        *************************************************************


0 sent ACK to 0 
now end server 0 ... 
