srun -N 1 --ntasks-per-node 16 --cpus-per-task 4 --cpu_bind=cores --nodelist nid00469 /global/project/projectdirs/jcesr/qchem/qc44/cnl_qc441/dist/exe/qcprog.cori.haswell.exe .pt_n2_neutral_-90.0.in.49220.qcin.1 /global/cscratch1/sd/bwood/qchem/nx/qchem49220/
Process 1 of 16 is on nid00469 - thread support 0
Process 2 of 16 is on nid00469 - thread support 0
Process 3 of 16 is on nid00469 - thread support 0
Process 4 of 16 is on nid00469 - thread support 0
Process 5 of 16 is on nid00469 - thread support 0
Process 6 of 16 is on nid00469 - thread support 0
Process 0 of 16 is on nid00469 - thread support 0
initial socket setup ...start
Process 15 of 16 is on nid00469 - thread support 0
initial socket setup ...done 
now start server 0 ... 
nid00469 10.128.1
Q-Chem Developer Version! Running on 10.128.1.*
                  Welcome to Q-Chem
     A Quantum Leap Into The Future Of Chemistry


 Q-Chem 4.4, Q-Chem, Inc., Pleasanton, CA (2016)

 Y. Shao,  Z. Gan,  E. Epifanovsky,  A. T. B. Gilbert,  M. Wormit,  
 J. Kussmann,  A. W. Lange,  A. Behn,  J. Deng,  X. Feng,  D. Ghosh,  
 M. Goldey,  P. R. Horn,  L. D. Jacobson,  I. Kaliman,  F. Rob,  
 R. Z. Khaliullin,  T. Kus,  A. Landau,  J. Liu,  E. I. Proynov,  Y. M. Rhee,  
 R. M. Richard,  M. A. Rohrdanz,  R. P. Steele,  E. J. Sundstrom,  
 H. L. Woodcock III,  P. M. Zimmerman,  D. Zuev,  B. Albrecht,  E. Alguire,  
 B. Austin,  S. A. Baeppler,  G. J. O. Beran,  Y. A. Bernard,  
 E. J. Berquist,  K. Brandhorst,  K. B. Bravaya,  S. T. Brown,  D. Casanova,  
 C.-M. Chang,  Y. Chen,  S. H. Chien,  K. D. Closser,  M. P. Coons,  
 D. L. Crittenden,  S. Dasgupta,  M. Diedenhofen,  R. A. DiStasio Jr.,  
 H. Do,  A. D. Dutoi,  R. G. Edgar,  P.-T. Fang,  S. Fatehi,  Q. Feng,  
 L. Fusti-Molnar,  A. Ghysels,  A. Golubeva-Zadorozhnaya,  J. Gomes,  
 A. Gunina,  M. W. D. Hanson-Heine,  P. H. P. Harbach,  A. W. Hauser,  
 J. E. Herr,  E. G. Hohenstein,  Z. C. Holden,  K. Hui,  T.-C. Jagau,  H. Ji,  
 B. Kaduk,  K. Khistyaev,  Jaehoon Kim,  Jihan Kim,  R. A. King,  
 P. Klunzinger,  K. Koh,  D. Kosenkov,  T. Kowalczyk,  C. M. Krauter,  
 A. Kunitsa,  K. U. Lao,  A. Laurent,  K. V. Lawler,  J. Lee,  D. Lefrancois,  
 S. Lehtola,  S. V. Levchenko,  C. Y. Lin,  Y.-S. Lin,  F. Liu,  E. Livshits,  
 R. C. Lochan,  A. Luenser,  P. Manohar,  S. F. Manzer,  S.-P. Mao,  Y. Mao,  
 N. Mardirossian,  A. V. Marenich,  L. A. Martinez-Martinez,  S. A. Maurer,  
 N. J. Mayhall,  J.-M. Mewes,  A. F. Morrison,  K. Nanda,  T. S. Nguyen-Beck,  
 C. M. Oana,  R. Olivares-Amaya,  D. P. O'Neill,  J. A. Parkhill,  
 T. M. Perrine,  R. Peverati,  P. A. Pieniazek,  F. Plasser,  A. Prociuk,  
 D. R. Rehn,  E. Rosta,  N. J. Russ,  N. Sergueev,  S. M. Sharada,  
 S. Sharma,  D. W. Small,  A. Sodt,  T. Stauch,  T. Stein,  D. Stuck,  
 Y.-C. Su,  A. J. W. Thom,  T. Tsuchimochi,  L. Vogt,  O. Vydrov,  T. Wang,  
 M. A. Watson,  J. Wenzel,  A. White,  C. F. Williams,  V. Vanovschi,  
 K. Yao,  S. Yeganeh,  S. R. Yost,  Z.-Q. You,  I. Y. Zhang,  X. Zhang,  
 Y. Zhao,  B. R. Brooks,  G. K. L. Chan,  D. M. Chipman,  C. J. Cramer,  
 W. A. Goddard III,  M. S. Gordon,  W. J. Hehre,  A. Klamt,  
 H. F. Schaefer III,  M. W. Schmidt,  C. D. Sherrill,  D. G. Truhlar,  
 A. Warshel,  X. Xu,  A. Aspuru-Guzik,  R. Baer,  A. T. Bell,  N. A. Besley,  
 J.-D. Chai,  A. Dreuw,  B. D. Dunietz,  T. R. Furlani,  S. R. Gwaltney,  
 C.-P. Hsu,  Y. Jung,  J. Kong,  D. S. Lambrecht,  W. Liang,  C. Ochsenfeld,  
 V. A. Rassolov,  L. V. Slipchenko,  J. E. Subotnik,  T. Van Voorhis,  
 J. M. Herbert,  A. I. Krylov,  P. M. W. Gill,  M. Head-Gordon

 Contributors to earlier versions of Q-Chem not listed above: 
 R. D. Adamson,  J. Baker,  E. F. C. Byrd,  A. K. Chakraborty,  C.-L. Cheng,  
 H. Dachsel,  R. J. Doerksen,  G. Hawkins,  A. Heyden,  S. Hirata,  
 G. Kedziora,  F. J. Keil,  C. Kelley,  P. P. Korambath,  W. Kurlancheek,  
 A. M. Lee,  M. S. Lee,  D. Liotard,  I. Lotan,  P. E. Maslen,  N. Nair,  
 D. Neuhauser,  R. Olson,  B. Peters,  J. Ritchie,  N. E. Schultz,  
 N. Shenvi,  A. C. Simmonett,  K. S. Thanthiriwatte,  Q. Wu,  W. Zhang

 Please cite Q-Chem as follows:
 Y. Shao et al., Mol. Phys. 113, 184-215 (2015)
 DOI: 10.1080/00268976.2014.952696

 Q-Chem 4.4.2 for Intel X86 EM64T Linux

 Parts of Q-Chem use Armadillo 5.200.1 (Boston Tea Smuggler).
 http://arma.sourceforge.net/

 Q-Chem begins on Wed May 31 02:24:50 2017  

Host: nid00447
0

     Scratch files written to /global/cscratch1/sd/bwood/qchem/nx/qchem49220.0//
 Parallel job on  16  processors

Checking the input file for inconsistencies... 	...done.

--------------------------------------------------------------
User input:
--------------------------------------------------------------
$molecule
 0  1
 S           0.00238887        0.06077275        0.00183269
 C           1.73707619        0.03315849        0.00323229
 H           2.27612737        0.05289032        0.94042557
 C           2.24169204       -0.01546201       -1.26965798
 H           3.30285780       -0.04005365       -1.48972496
 C           1.22479222       -0.01612968       -2.26811464
 H           1.42674790       -0.02650987       -3.33334501
 C          -0.05393771        0.02880388       -1.75170966
 C          -1.32450815        0.04889988       -2.45636342
 C          -2.05472866        1.13282256       -2.89900103
 H          -1.72213594        2.15679461       -2.76984460
 C          -3.26126766        0.77165000       -3.56586141
 H          -3.95577893        1.48958389       -3.98695482
 C          -3.44713742       -0.58418270       -3.63146872
 H          -4.26391881       -1.13010283       -4.08348711
 S          -2.15318545       -1.44470960       -2.86028972
$end


$rem
         jobtype = opt
        exchange = b3lyp
           basis = 6-31++g**
  max_scf_cycles = 150
      mem_static = 775
       mem_total = 7750
      sym_ignore = true
        symmetry = false
          thresh = 12
$end


$opt
CONSTRAINT
tors 6 8 9 10 -90.0
ENDCONSTRAINT
$end

--------------------------------------------------------------
 ----------------------------------------------------------------
             Standard Nuclear Orientation (Angstroms)
    I     Atom           X                Y                Z
 ----------------------------------------------------------------
    1      S       0.0023888700     0.0607727500     0.0018326900
    2      C       1.7370761900     0.0331584900     0.0032322900
    3      H       2.2761273700     0.0528903200     0.9404255700
    4      C       2.2416920400    -0.0154620100    -1.2696579800
    5      H       3.3028578000    -0.0400536500    -1.4897249600
    6      C       1.2247922200    -0.0161296800    -2.2681146400
    7      H       1.4267479000    -0.0265098700    -3.3333450100
    8      C      -0.0539377100     0.0288038800    -1.7517096600
    9      C      -1.3245081500     0.0488998800    -2.4563634200
   10      C      -2.0547286600     1.1328225600    -2.8990010300
   11      H      -1.7221359400     2.1567946100    -2.7698446000
   12      C      -3.2612676600     0.7716500000    -3.5658614100
   13      H      -3.9557789300     1.4895838900    -3.9869548200
   14      C      -3.4471374200    -0.5841827000    -3.6314687200
   15      H      -4.2639188100    -1.1301028300    -4.0834871100
   16      S      -2.1531854500    -1.4447096000    -2.8602897200
 ----------------------------------------------------------------
 Nuclear Repulsion Energy =   628.6476756359 hartrees
 There are       43 alpha and       43 beta electrons
 Requested basis set is 6-31++G(d,p)
 There are 76 shells and 234 basis functions

 Total QAlloc Memory Limit   7750 MB
 Mega-Array Size       758 MB
 MEM_STATIC part       775 MB
 A cutoff of  1.0D-12 yielded   2528 shell pairs
 There are     24880 function pairs

 Q-Chem warning in module /project/projectdirs/jcesr/qchem/qc44/cnl_qc441/compile/cori/qc_src/libqints/qchem/aobasis.C, line 68:

 Using reconstructed effective core potential

 
 -------------------------------------------------------
 OpenMP Integral Computing Module                       
 Release: version 1.0, May 2013, Q-Chem Inc. Pittsburgh 
 -------------------------------------------------------
 Integral Job Info:
 Integral job number is                      11
 Integral operator is                         1
 short-range coefficients                     0
 long-range coefficients              100000000
 Omega coefficients                           0
 if combine SR and LR in K                    0
 Integral screening is                        0
 Integral computing path is                   2
 max size of driver memory is            800000
 size of driver memory is                593474
 size of scratch memory is             15166112
 max col of scratch BK array               1296
 max len of scratch array in speh3          155
 max len of scratch index in speh4           18
 max int batch size is                      520
 min int batch size is                       52
 fixed nKL is                                52
 max L of basis functions is                  2
 order of int derivative is                   0
 number of shells is                         76
 number of basis is                         234
 number of cartesian basis is               234
 number of contracted shell pairs          2528
 number of primitive shell pairs           8214
 maxK2 (contraction) of shell pair           36
 max number of K2 of shell pair               1
 max number of CS2 of shell pair            266
 max number of PS2 of shell pair           1512
 mem total for path MDJ                   51992
 -------------------------------------------------------
 Smallest overlap matrix eigenvalue = 1.09E-06

 Scale SEOQF with 1.000000e-01/1.000000e-01/1.000000e-01

 Standard Electronic Orientation quadrupole field applied
 Nucleus-field energy     =    -0.0000000354 hartrees
 Guess from superposition of atomic densities
 Warning:  Energy on first SCF cycle will be non-variational
 A restricted hybrid HF-DFT SCF calculation will be
 performed using Pulay DIIS extrapolation
 Exchange:     0.2000 Hartree-Fock + 0.0800 Slater + 0.7200 B88
 Correlation:  0.1900 VWN1RPA + 0.8100 LYP
 Using SG-1 standard quadrature grid
 SCF converges when DIIS error is below 1.0E-08
 ---------------------------------------
  Cycle       Energy         DIIS Error
 ---------------------------------------
    1   -1107.1721151343      4.40E-02
    2   -1104.6555431325      4.86E-03
    3   -1104.3689432879      7.61E-03
    4   -1104.8235656426      1.28E-03
    5   -1104.8337707692      6.54E-04
    6   -1104.8363949284      2.62E-04
    7   -1104.8368992876      8.59E-05
    8   -1104.8369512820      1.64E-05
    9   -1104.8369532323      1.85E-06
   10   -1104.8369532572      7.71E-07
   11   -1104.8369532612      4.29E-07
   12   -1104.8369532628      5.19E-08
   13   -1104.8369532619      3.04E-08
   14   -1104.8369532620      7.35E-09 Convergence criterion met
 ---------------------------------------
 SCF time:  CPU 7.68 s  wall 7.28 s
 SCF   energy in the final basis set = -1104.8369532620
 Total energy in the final basis set = -1104.8369532620
 
 --------------------------------------------------------------
 
                    Orbital Energies (a.u.)
 --------------------------------------------------------------
 
 Alpha MOs
 -- Occupied --
-88.919 -88.919 -10.235 -10.235 -10.224 -10.224 -10.204 -10.204
-10.203 -10.203  -7.978  -7.978  -5.942  -5.942  -5.938  -5.938
 -5.935  -5.935  -0.898  -0.877  -0.769  -0.741  -0.741  -0.704
 -0.602  -0.566  -0.565  -0.534  -0.523  -0.477  -0.417  -0.415
 -0.413  -0.406  -0.394  -0.374  -0.374  -0.351  -0.350  -0.264
 -0.257  -0.243  -0.242
 -- Virtual --
 -0.035  -0.034  -0.006  -0.003   0.006   0.012   0.021   0.022
  0.026   0.034   0.035   0.041   0.045   0.048   0.065   0.070
  0.071   0.071   0.080   0.102   0.103   0.107   0.111   0.112
  0.114   0.119   0.125   0.127   0.132   0.132   0.138   0.142
  0.146   0.151   0.157   0.162   0.169   0.173   0.179   0.182
  0.186   0.191   0.191   0.206   0.213   0.218   0.220   0.226
  0.244   0.248   0.257   0.271   0.271   0.274   0.294   0.298
  0.307   0.318   0.329   0.332   0.356   0.363   0.372   0.392
  0.431   0.470   0.485   0.485   0.519   0.534   0.550   0.577
  0.581   0.586   0.617   0.635   0.643   0.666   0.674   0.676
  0.691   0.697   0.725   0.727   0.740   0.755   0.769   0.772
  0.793   0.802   0.815   0.828   0.842   0.893   0.911   0.938
  0.942   0.958   0.959   0.970   0.972   0.987   0.991   1.016
  1.020   1.022   1.036   1.060   1.077   1.093   1.103   1.110
  1.131   1.184   1.219   1.222   1.246   1.283   1.325   1.345
  1.351   1.353   1.362   1.396   1.458   1.471   1.486   1.518
  1.570   1.691   1.695   1.785   1.827   1.845   1.878   1.884
  1.917   1.924   1.961   1.973   2.014   2.018   2.063   2.103
  2.125   2.162   2.184   2.194   2.208   2.257   2.269   2.340
  2.365   2.370   2.431   2.438   2.469   2.475   2.493   2.511
  2.512   2.525   2.581   2.588   2.613   2.646   2.701   2.702
  2.758   2.830   2.860   2.880   2.939   3.169   3.172   3.270
  3.273   3.402   3.428   3.722   3.741   3.968   3.970   4.285
  4.307   4.319   4.329   4.439   4.535   4.662   4.712
 --------------------------------------------------------------
 
          Ground-State Mulliken Net Atomic Charges

     Atom                 Charge (a.u.)
  ----------------------------------------
      1 S                     0.058133
      2 C                    -0.043061
      3 H                     0.187344
      4 C                    -0.382176
      5 H                     0.118668
      6 C                     0.324263
      7 H                     0.131646
      8 C                    -0.393873
      9 C                    -0.394085
     10 C                     0.323068
     11 H                     0.131544
     12 C                    -0.382492
     13 H                     0.118692
     14 C                    -0.042833
     15 H                     0.187265
     16 S                     0.057894
  ----------------------------------------
  Sum of atomic charges =     0.000000

 -----------------------------------------------------------------
                    Cartesian Multipole Moments
 -----------------------------------------------------------------
    Charge (ESU x 10^10)
                 0.0000
    Dipole Moment (Debye)
         X       0.2802      Y       0.5315      Z      -0.4929
       Tot       0.7772
    Quadrupole Moments (Debye-Ang)
        XX     -64.2704     XY      -0.5274     YY     -73.4240
        XZ       5.0257     YZ      -1.2954     ZZ     -68.4883
    Octopole Moments (Debye-Ang^2)
       XXX     156.5838    XXY       5.9988    XYY      43.9771
       YYY      31.0655    XXZ     107.6723    XYZ       0.4769
       YYZ     136.4949    XZZ      39.8649    YZZ      11.6004
       ZZZ     422.5171
    Hexadecapole Moments (Debye-Ang^3)
      XXXX   -1733.3160   XXXY     -45.9973   XXYY    -355.7122
      XYYY     -71.3609   YYYY    -350.9500   XXXZ    -606.1559
      XXYZ     -13.2114   XYYZ    -210.7827   YYYZ     -95.2378
      XXZZ    -578.6243   XYZZ     -16.9529   YYZZ    -464.4269
      XZZZ    -681.4703   YZZZ     -83.8277   ZZZZ   -2580.0349
 -----------------------------------------------------------------
 Calculating analytic gradient of the SCF energy
 Gradient of SCF Energy
            1           2           3           4           5           6
    1  -0.0022278   0.0021746  -0.0004496  -0.0010636  -0.0001060   0.0030031
    2  -0.0007669   0.0009833   0.0002957  -0.0009957  -0.0000227  -0.0010832
    3  -0.0003455  -0.0007402  -0.0000137  -0.0006238  -0.0000080  -0.0007012
            7           8           9          10          11          12
    1   0.0010157  -0.0103206   0.0091437  -0.0025208  -0.0003855   0.0006780
    2   0.0009099  -0.0001798  -0.0023138   0.0020938   0.0004038   0.0001142
    3   0.0000925  -0.0032225   0.0054333  -0.0001464  -0.0013312   0.0014188
           13          14          15          16
    1   0.0000878  -0.0009324   0.0004995   0.0014039
    2  -0.0000655   0.0015992  -0.0002233  -0.0007490
    3   0.0000601  -0.0016712  -0.0000500   0.0018491
 Max gradient component =       1.032E-02
 RMS gradient           =       2.460E-03
 Gradient time:  CPU 2.07 s  wall 2.10 s
 Geometry Optimization Parameters
   NAtoms,    NIC,     NZ,  NCons,   NDum,   NFix, NCnnct, MaxDiis
       16     111       0       1       0       0       0       0


** CONSTRAINED OPTIMIZATION IN DELOCALIZED INTERNAL COORDINATES **
   Searching for a Minimum

   Optimization Cycle:   1

                       Coordinates (Angstroms)
     ATOM                X               Y               Z
      1  S         0.0023888700    0.0607727500    0.0018326900
      2  C         1.7370761900    0.0331584900    0.0032322900
      3  H         2.2761273700    0.0528903200    0.9404255700
      4  C         2.2416920400   -0.0154620100   -1.2696579800
      5  H         3.3028578000   -0.0400536500   -1.4897249600
      6  C         1.2247922200   -0.0161296800   -2.2681146400
      7  H         1.4267479000   -0.0265098700   -3.3333450100
      8  C        -0.0539377100    0.0288038800   -1.7517096600
      9  C        -1.3245081500    0.0488998800   -2.4563634200
     10  C        -2.0547286600    1.1328225600   -2.8990010300
     11  H        -1.7221359400    2.1567946100   -2.7698446000
     12  C        -3.2612676600    0.7716500000   -3.5658614100
     13  H        -3.9557789300    1.4895838900   -3.9869548200
     14  C        -3.4471374200   -0.5841827000   -3.6314687200
     15  H        -4.2639188100   -1.1301028300   -4.0834871100
     16  S        -2.1531854500   -1.4447096000   -2.8602897200
   Point Group: c1    Number of degrees of freedom:    42


   Energy is  -1104.836953262

              Constraints and their Current Values
                                        Value     Constraint
   Dihedral:        6   8   9  10      -90.000      -90.000

 Attempting to Generate Delocalized Internal Coordinates

 41 Hessian modes will be used to form the next step
  Hessian Eigenvalues:
     0.045000    0.045000    0.045000    0.045000    0.045000    0.045000
     0.045002    0.045002    0.045003    0.045004    0.045011    0.045012
     0.159943    0.159949    0.159991    0.159992    0.160000    0.160000
     0.221282    0.221282    0.237835    0.237839    0.250000    0.250000
     0.294264    0.294663    0.312518    0.312618    0.354736    0.354850
     0.355125    0.355132    0.358226    0.358329    0.378510    0.404854
     0.404909    0.463547    0.463616    0.497922    0.497945

 Minimum Search - Taking Simple RFO Step
 Searching for Lamda that Minimizes Along All modes
 Value Taken    Lamda =  -0.00048609
 Step Taken.  Stepsize is  0.056787

                             Maximum     Tolerance    Cnvgd?
         Gradient           0.005135      0.000300      NO
         Displacement       0.041781      0.001200      NO
         Energy change     *********      0.000001      NO


 New Cartesian Coordinates Obtained by Inverse Iteration

 Displacement from previous Coordinates is:  0.078516
 ----------------------------------------------------------------
             Standard Nuclear Orientation (Angstroms)
    I     Atom           X                Y                Z
 ----------------------------------------------------------------
    1      S       0.0122550293     0.0690164827     0.0089630192
    2      C       1.7443917911     0.0327942733     0.0083575167
    3      H       2.2876440940     0.0473835861     0.9436080066
    4      C       2.2461938559    -0.0083296114    -1.2663469097
    5      H       3.3068929587    -0.0341134150    -1.4892703954
    6      C       1.2247763080    -0.0124304106    -2.2625966054
    7      H       1.4171260376    -0.0317227849    -3.3293472059
    8      C      -0.0497612155     0.0298020820    -1.7455944177
    9      C      -1.3298970902     0.0453166130    -2.4609090630
   10      C      -2.0549148127     1.1277561559    -2.9039960348
   11      H      -1.7183465028     2.1485593064    -2.7620312190
   12      C      -3.2628019132     0.7708276628    -3.5744006375
   13      H      -3.9566490257     1.4911965980    -3.9928828083
   14      C      -3.4551545501    -0.5846992522    -3.6355172839
   15      H      -4.2772051652    -1.1264474437    -4.0838524865
   16      S      -2.1594661394    -1.4466838024    -2.8745160053
 ----------------------------------------------------------------
 Nuclear Repulsion Energy =   627.7812667800 hartrees
 There are       43 alpha and       43 beta electrons
 Applying Cartesian multipole field
    Component          Value
    ---------          -----
     (2,0,0)        1.00000E-11
     (0,2,0)        2.00000E-11
     (0,0,2)       -3.00000E-11
 Nucleus-field energy     =    -0.0000000356 hartrees
 Requested basis set is 6-31++G(d,p)
 There are 76 shells and 234 basis functions
 A cutoff of  1.0D-12 yielded   2526 shell pairs
 There are     24868 function pairs

 Q-Chem warning in module /project/projectdirs/jcesr/qchem/qc44/cnl_qc441/compile/cori/qc_src/libqints/qchem/aobasis.C, line 68:

 Using reconstructed effective core potential

 Smallest overlap matrix eigenvalue = 1.18E-06
 Guess MOs from SCF MO coefficient file
 Reading MOs from coefficient file
 Reading MOs from coefficient file
 A restricted hybrid HF-DFT SCF calculation will be
 performed using Pulay DIIS extrapolation
 Exchange:     0.2000 Hartree-Fock + 0.0800 Slater + 0.7200 B88
 Correlation:  0.1900 VWN1RPA + 0.8100 LYP
 Using SG-1 standard quadrature grid
 SCF converges when DIIS error is below 1.0E-08
 Geometry optimization detected.  Setting ReadMinima to 0
 Setting SaveMinima to 0
 ---------------------------------------
  Cycle       Energy         DIIS Error
 ---------------------------------------
    1   -1104.8379985716      6.64E-04
    2   -1104.8371531682      8.98E-05
    3   -1104.8369936199      1.71E-04
    4   -1104.8372091961      3.24E-05
    5   -1104.8372164762      7.93E-06
    6   -1104.8372169114      1.62E-06
    7   -1104.8372169312      4.43E-07
    8   -1104.8372169331      1.43E-07
    9   -1104.8372169335      4.79E-08
   10   -1104.8372169330      1.90E-08
   11   -1104.8372169333      5.64E-09 Convergence criterion met
 ---------------------------------------
 SCF time:  CPU 6.06 s  wall 5.69 s
 SCF   energy in the final basis set = -1104.8372169333
 Total energy in the final basis set = -1104.8372169333
 
 --------------------------------------------------------------
 
                    Orbital Energies (a.u.)
 --------------------------------------------------------------
 
 Alpha MOs
 -- Occupied --
-88.919 -88.919 -10.236 -10.235 -10.225 -10.225 -10.204 -10.204
-10.203 -10.203  -7.978  -7.978  -5.942  -5.942  -5.938  -5.938
 -5.935  -5.935  -0.898  -0.877  -0.768  -0.741  -0.741  -0.705
 -0.601  -0.567  -0.565  -0.534  -0.523  -0.478  -0.418  -0.414
 -0.412  -0.406  -0.394  -0.375  -0.375  -0.350  -0.349  -0.264
 -0.257  -0.243  -0.243
 -- Virtual --
 -0.034  -0.033  -0.005  -0.003   0.007   0.013   0.021   0.022
  0.026   0.034   0.035   0.041   0.045   0.048   0.065   0.071
  0.071   0.071   0.080   0.102   0.102   0.107   0.111   0.112
  0.114   0.118   0.125   0.127   0.132   0.132   0.137   0.142
  0.145   0.150   0.157   0.162   0.169   0.173   0.179   0.181
  0.186   0.191   0.191   0.206   0.212   0.218   0.220   0.226
  0.243   0.248   0.256   0.270   0.271   0.274   0.293   0.298
  0.306   0.317   0.328   0.332   0.357   0.363   0.372   0.391
  0.431   0.471   0.483   0.486   0.519   0.531   0.548   0.578
  0.581   0.587   0.616   0.633   0.642   0.667   0.674   0.676
  0.690   0.697   0.725   0.727   0.738   0.754   0.768   0.772
  0.794   0.801   0.813   0.828   0.842   0.893   0.910   0.941
  0.944   0.958   0.960   0.968   0.971   0.986   0.992   1.015
  1.020   1.022   1.034   1.059   1.077   1.094   1.103   1.110
  1.130   1.184   1.217   1.220   1.245   1.285   1.325   1.346
  1.352   1.354   1.361   1.394   1.458   1.469   1.483   1.518
  1.566   1.691   1.695   1.780   1.827   1.849   1.875   1.882
  1.916   1.923   1.959   1.972   2.011   2.018   2.062   2.107
  2.126   2.161   2.185   2.195   2.207   2.253   2.266   2.339
  2.366   2.370   2.429   2.438   2.466   2.477   2.493   2.512
  2.512   2.524   2.580   2.587   2.612   2.644   2.699   2.702
  2.755   2.829   2.858   2.878   2.935   3.168   3.171   3.269
  3.272   3.401   3.426   3.721   3.741   3.967   3.970   4.284
  4.306   4.320   4.328   4.437   4.534   4.661   4.710
 --------------------------------------------------------------
 
          Ground-State Mulliken Net Atomic Charges

     Atom                 Charge (a.u.)
  ----------------------------------------
      1 S                     0.057344
      2 C                    -0.040777
      3 H                     0.188054
      4 C                    -0.381609
      5 H                     0.118739
      6 C                     0.319325
      7 H                     0.131874
      8 C                    -0.392462
      9 C                    -0.391799
     10 C                     0.317618
     11 H                     0.131751
     12 C                    -0.381285
     13 H                     0.118792
     14 C                    -0.040822
     15 H                     0.187977
     16 S                     0.057281
  ----------------------------------------
  Sum of atomic charges =     0.000000

 -----------------------------------------------------------------
                    Cartesian Multipole Moments
 -----------------------------------------------------------------
    Charge (ESU x 10^10)
                 0.0000
    Dipole Moment (Debye)
         X       0.2767      Y       0.5258      Z      -0.4870
       Tot       0.7682
    Quadrupole Moments (Debye-Ang)
        XX     -64.1904     XY      -0.5448     YY     -73.4661
        XZ       5.0848     YZ      -1.2620     ZZ     -68.5358
    Octopole Moments (Debye-Ang^2)
       XXX     155.9556    XXY       5.7987    XYY      44.0147
       YYY      30.7728    XXZ     107.6338    XYZ       0.4129
       YYZ     136.7188    XZZ      39.7241    YZZ      11.3426
       ZZZ     423.1312
    Hexadecapole Moments (Debye-Ang^3)
      XXXX   -1736.4512   XXXY     -46.6122   XXYY    -357.0357
      XYYY     -72.7198   YYYY    -351.2747   XXXZ    -607.7010
      XXYZ     -13.1937   XYYZ    -212.3991   YYYZ     -96.1049
      XXZZ    -580.4302   XYZZ     -17.2178   YYZZ    -466.3427
      XZZZ    -685.1597   YZZZ     -84.3121   ZZZZ   -2590.9653
 -----------------------------------------------------------------
 Calculating analytic gradient of the SCF energy
 Gradient of SCF Energy
            1           2           3           4           5           6
    1   0.0001800   0.0010596  -0.0001161  -0.0006616   0.0000399   0.0003541
    2   0.0001063   0.0000277   0.0000427   0.0000023  -0.0000163  -0.0007009
    3  -0.0001829   0.0004142   0.0001014  -0.0000283   0.0000234   0.0002533
            7           8           9          10          11          12
    1   0.0001651  -0.0013134   0.0013403  -0.0007465   0.0001367   0.0005252
    2   0.0005956  -0.0002232   0.0003028  -0.0000231  -0.0000091  -0.0002951
    3   0.0000655  -0.0010375   0.0009624   0.0004040  -0.0006437   0.0003100
           13          14          15          16
    1  -0.0000474  -0.0010185   0.0000669   0.0000355
    2  -0.0000056   0.0001561  -0.0001592   0.0001989
    3  -0.0000204  -0.0005456   0.0000083  -0.0000840
 Max gradient component =       1.340E-03
 RMS gradient           =       4.921E-04
 Gradient time:  CPU 1.88 s  wall 2.54 s
 Geometry Optimization Parameters
   NAtoms,    NIC,     NZ,  NCons,   NDum,   NFix, NCnnct, MaxDiis
       16     111       0       1       0       0       0       0

 Cartesian Hessian Update
 Hessian Updated using BFGS Update


** CONSTRAINED OPTIMIZATION IN DELOCALIZED INTERNAL COORDINATES **
   Searching for a Minimum

   Optimization Cycle:   2

                       Coordinates (Angstroms)
     ATOM                X               Y               Z
      1  S         0.0122550293    0.0690164827    0.0089630192
      2  C         1.7443917911    0.0327942733    0.0083575167
      3  H         2.2876440940    0.0473835861    0.9436080066
      4  C         2.2461938559   -0.0083296114   -1.2663469097
      5  H         3.3068929587   -0.0341134150   -1.4892703954
      6  C         1.2247763080   -0.0124304106   -2.2625966054
      7  H         1.4171260376   -0.0317227849   -3.3293472059
      8  C        -0.0497612155    0.0298020820   -1.7455944177
      9  C        -1.3298970902    0.0453166130   -2.4609090630
     10  C        -2.0549148127    1.1277561559   -2.9039960348
     11  H        -1.7183465028    2.1485593064   -2.7620312190
     12  C        -3.2628019132    0.7708276628   -3.5744006375
     13  H        -3.9566490257    1.4911965980   -3.9928828083
     14  C        -3.4551545501   -0.5846992522   -3.6355172839
     15  H        -4.2772051652   -1.1264474437   -4.0838524865
     16  S        -2.1594661394   -1.4466838024   -2.8745160053
   Point Group: c1    Number of degrees of freedom:    42


   Energy is  -1104.837216933

              Constraints and their Current Values
                                        Value     Constraint
   Dihedral:        6   8   9  10      -90.000      -90.000
 Hessian Updated using BFGS Update

 37 Hessian modes will be used to form the next step
  Hessian Eigenvalues:
     0.040032    0.045000    0.045000    0.045001    0.045002    0.045006
     0.045012    0.046804    0.154931    0.159947    0.159988    0.159992
     0.160000    0.160171    0.217947    0.221284    0.233089    0.237847
     0.249986    0.252926    0.294419    0.295517    0.312561    0.312945
     0.354724    0.354837    0.355122    0.355130    0.358238    0.358340
     0.389690    0.404882    0.412302    0.457685    0.463582    0.497931
     0.498714

 Minimum Search - Taking Simple RFO Step
 Searching for Lamda that Minimizes Along All modes
 Value Taken    Lamda =  -0.00004488
 Step Taken.  Stepsize is  0.024639

                             Maximum     Tolerance    Cnvgd?
         Gradient           0.001121      0.000300      NO
         Displacement       0.013494      0.001200      NO
         Energy change     -0.000264      0.000001      NO


 New Cartesian Coordinates Obtained by Inverse Iteration

 Displacement from previous Coordinates is:  0.039173
 ----------------------------------------------------------------
             Standard Nuclear Orientation (Angstroms)
    I     Atom           X                Y                Z
 ----------------------------------------------------------------
    1      S       0.0110426252     0.0705002547     0.0112337627
    2      C       1.7425699084     0.0362050335     0.0064247759
    3      H       2.2879175681     0.0517690130     0.9404134344
    4      C       2.2452002652    -0.0058670306    -1.2681688538
    5      H       3.3056911646    -0.0322850992    -1.4918140937
    6      C       1.2222340595    -0.0130251458    -2.2627921110
    7      H       1.4104679206    -0.0402623106    -3.3301729224
    8      C      -0.0503077329     0.0283416950    -1.7428606981
    9      C      -1.3313377170     0.0423809872    -2.4602958199
   10      C      -2.0529326142     1.1264976192    -2.9024679775
   11      H      -1.7166944240     2.1461588507    -2.7513189233
   12      C      -3.2600404379     0.7718519629    -3.5755378741
   13      H      -3.9538635934     1.4929185621    -3.9927360876
   14      C      -3.4514227572    -0.5839930034    -3.6373064853
   15      H      -4.2743758498    -1.1234800588    -4.0866892252
   16      S      -2.1590647251    -1.4494852899    -2.8762434311
 ----------------------------------------------------------------
 Nuclear Repulsion Energy =   627.8347280871 hartrees
 There are       43 alpha and       43 beta electrons
 Applying Cartesian multipole field
    Component          Value
    ---------          -----
     (2,0,0)        1.00000E-11
     (0,2,0)        2.00000E-11
     (0,0,2)       -3.00000E-11
 Nucleus-field energy     =    -0.0000000356 hartrees
 Requested basis set is 6-31++G(d,p)
 There are 76 shells and 234 basis functions
 A cutoff of  1.0D-12 yielded   2528 shell pairs
 There are     24880 function pairs

 Q-Chem warning in module /project/projectdirs/jcesr/qchem/qc44/cnl_qc441/compile/cori/qc_src/libqints/qchem/aobasis.C, line 68:

 Using reconstructed effective core potential

 Smallest overlap matrix eigenvalue = 1.18E-06
 Guess MOs from SCF MO coefficient file
 Reading MOs from coefficient file
 Reading MOs from coefficient file
 A restricted hybrid HF-DFT SCF calculation will be
 performed using Pulay DIIS extrapolation
 Exchange:     0.2000 Hartree-Fock + 0.0800 Slater + 0.7200 B88
 Correlation:  0.1900 VWN1RPA + 0.8100 LYP
 Using SG-1 standard quadrature grid
 SCF converges when DIIS error is below 1.0E-08
 Geometry optimization detected.  Setting ReadMinima to 0
 Setting SaveMinima to 0
 ---------------------------------------
  Cycle       Energy         DIIS Error
 ---------------------------------------
    1   -1104.8385346420      1.43E-04
    2   -1104.8372300156      3.84E-05
    3   -1104.8371990721      7.47E-05
    4   -1104.8372411064      1.01E-05
    5   -1104.8372418455      2.57E-06
    6   -1104.8372418896      1.09E-06
    7   -1104.8372418984      2.89E-07
    8   -1104.8372418969      1.10E-07
    9   -1104.8372418989      1.39E-08
   10   -1104.8372418984      7.20E-09 Convergence criterion met
 ---------------------------------------
 SCF time:  CPU 5.46 s  wall 5.26 s
 SCF   energy in the final basis set = -1104.8372418984
 Total energy in the final basis set = -1104.8372418984
 
 --------------------------------------------------------------
 
                    Orbital Energies (a.u.)
 --------------------------------------------------------------
 
 Alpha MOs
 -- Occupied --
-88.919 -88.919 -10.236 -10.235 -10.224 -10.224 -10.204 -10.204
-10.203 -10.203  -7.978  -7.978  -5.942  -5.942  -5.939  -5.938
 -5.936  -5.935  -0.898  -0.877  -0.768  -0.742  -0.741  -0.705
 -0.600  -0.567  -0.565  -0.534  -0.523  -0.478  -0.417  -0.414
 -0.412  -0.406  -0.393  -0.375  -0.375  -0.351  -0.350  -0.264
 -0.257  -0.243  -0.243
 -- Virtual --
 -0.034  -0.033  -0.005  -0.003   0.006   0.013   0.021   0.022
  0.026   0.034   0.035   0.041   0.045   0.048   0.065   0.071
  0.071   0.071   0.080   0.102   0.102   0.107   0.111   0.112
  0.114   0.118   0.125   0.127   0.132   0.132   0.137   0.142
  0.145   0.150   0.157   0.161   0.169   0.173   0.179   0.182
  0.186   0.191   0.191   0.206   0.212   0.218   0.220   0.226
  0.243   0.248   0.256   0.270   0.271   0.274   0.293   0.298
  0.306   0.316   0.329   0.332   0.357   0.363   0.371   0.391
  0.431   0.472   0.483   0.486   0.519   0.531   0.548   0.578
  0.580   0.587   0.617   0.633   0.642   0.667   0.674   0.676
  0.690   0.698   0.725   0.726   0.738   0.754   0.768   0.772
  0.794   0.801   0.813   0.828   0.842   0.893   0.911   0.941
  0.945   0.958   0.960   0.968   0.971   0.987   0.993   1.015
  1.020   1.022   1.034   1.059   1.077   1.094   1.103   1.110
  1.130   1.184   1.217   1.221   1.245   1.286   1.325   1.346
  1.352   1.355   1.362   1.395   1.458   1.470   1.480   1.520
  1.564   1.691   1.695   1.779   1.827   1.850   1.875   1.881
  1.917   1.923   1.960   1.972   2.011   2.018   2.062   2.108
  2.126   2.162   2.185   2.196   2.208   2.252   2.266   2.340
  2.366   2.371   2.429   2.438   2.465   2.478   2.493   2.511
  2.513   2.523   2.579   2.586   2.612   2.644   2.698   2.702
  2.755   2.830   2.859   2.878   2.934   3.168   3.171   3.269
  3.271   3.401   3.426   3.721   3.741   3.967   3.970   4.284
  4.306   4.320   4.328   4.437   4.534   4.661   4.710
 --------------------------------------------------------------
 
          Ground-State Mulliken Net Atomic Charges

     Atom                 Charge (a.u.)
  ----------------------------------------
      1 S                     0.060001
      2 C                    -0.043929
      3 H                     0.187616
      4 C                    -0.378716
      5 H                     0.118749
      6 C                     0.317041
      7 H                     0.131956
      8 C                    -0.392434
      9 C                    -0.391244
     10 C                     0.314961
     11 H                     0.131831
     12 C                    -0.378190
     13 H                     0.118811
     14 C                    -0.043975
     15 H                     0.187549
     16 S                     0.059975
  ----------------------------------------
  Sum of atomic charges =     0.000000

 -----------------------------------------------------------------
                    Cartesian Multipole Moments
 -----------------------------------------------------------------
    Charge (ESU x 10^10)
                 0.0000
    Dipole Moment (Debye)
         X       0.2724      Y       0.5182      Z      -0.4790
       Tot       0.7564
    Quadrupole Moments (Debye-Ang)
        XX     -64.2247     XY      -0.5641     YY     -73.4471
        XZ       5.0435     YZ      -1.2196     ZZ     -68.5858
    Octopole Moments (Debye-Ang^2)
       XXX     156.1143    XXY       5.8952    XYY      43.9965
       YYY      30.7503    XXZ     107.7745    XYZ       0.4895
       YYZ     136.7261    XZZ      39.8576    YZZ      11.1983
       ZZZ     423.3282
    Hexadecapole Moments (Debye-Ang^3)
      XXXX   -1734.8013   XXXY     -47.5058   XXYY    -356.6801
      XYYY     -73.1816   YYYY    -351.6864   XXXZ    -608.3160
      XXYZ     -13.6550   XYYZ    -212.3477   YYYZ     -96.5656
      XXZZ    -580.8528   XYZZ     -17.5776   YYZZ    -466.6974
      XZZZ    -685.5020   YZZZ     -84.3614   ZZZZ   -2592.6306
 -----------------------------------------------------------------
 Calculating analytic gradient of the SCF energy
 Gradient of SCF Energy
            1           2           3           4           5           6
    1  -0.0001074  -0.0000564  -0.0000769  -0.0001307   0.0000387  -0.0000139
    2   0.0000751  -0.0000019   0.0000004   0.0001378  -0.0000626  -0.0003218
    3   0.0003687  -0.0000714  -0.0000035  -0.0002316  -0.0000750   0.0002758
            7           8           9          10          11          12
    1   0.0000397   0.0006593  -0.0005152  -0.0002629   0.0001395   0.0002608
    2   0.0003037  -0.0001655   0.0004806  -0.0002358   0.0000157   0.0001059
    3  -0.0000250  -0.0001330  -0.0001348   0.0002143  -0.0002998  -0.0000075
           13          14          15          16
    1  -0.0000281   0.0000404   0.0000538  -0.0000407
    2   0.0000747   0.0000261  -0.0000514  -0.0003811
    3   0.0000455   0.0000790   0.0000582  -0.0000600
 Max gradient component =       6.593E-04
 RMS gradient           =       2.078E-04
 Gradient time:  CPU 2.05 s  wall 2.07 s
 Geometry Optimization Parameters
   NAtoms,    NIC,     NZ,  NCons,   NDum,   NFix, NCnnct, MaxDiis
       16     111       0       1       0       0       0       0

 Cartesian Hessian Update
 Hessian Updated using BFGS Update


** CONSTRAINED OPTIMIZATION IN DELOCALIZED INTERNAL COORDINATES **
   Searching for a Minimum

   Optimization Cycle:   3

                       Coordinates (Angstroms)
     ATOM                X               Y               Z
      1  S         0.0110426252    0.0705002547    0.0112337627
      2  C         1.7425699084    0.0362050335    0.0064247759
      3  H         2.2879175681    0.0517690130    0.9404134344
      4  C         2.2452002652   -0.0058670306   -1.2681688538
      5  H         3.3056911646   -0.0322850992   -1.4918140937
      6  C         1.2222340595   -0.0130251458   -2.2627921110
      7  H         1.4104679206   -0.0402623106   -3.3301729224
      8  C        -0.0503077329    0.0283416950   -1.7428606981
      9  C        -1.3313377170    0.0423809872   -2.4602958199
     10  C        -2.0529326142    1.1264976192   -2.9024679775
     11  H        -1.7166944240    2.1461588507   -2.7513189233
     12  C        -3.2600404379    0.7718519629   -3.5755378741
     13  H        -3.9538635934    1.4929185621   -3.9927360876
     14  C        -3.4514227572   -0.5839930034   -3.6373064853
     15  H        -4.2743758498   -1.1234800588   -4.0866892252
     16  S        -2.1590647251   -1.4494852899   -2.8762434311
   Point Group: c1    Number of degrees of freedom:    42


   Energy is  -1104.837241898

              Constraints and their Current Values
                                        Value     Constraint
   Dihedral:        6   8   9  10      -90.000      -90.000
 Hessian Updated using BFGS Update

 37 Hessian modes will be used to form the next step
  Hessian Eigenvalues:
     0.028267    0.045000    0.045000    0.045001    0.045005    0.045012
     0.045243    0.046045    0.152936    0.159947    0.159992    0.160000
     0.160139    0.160536    0.221269    0.222846    0.234413    0.237841
     0.250008    0.286561    0.294438    0.297786    0.312560    0.314481
     0.354772    0.354907    0.355129    0.355241    0.358271    0.358787
     0.394576    0.404881    0.425172    0.463581    0.475474    0.497933
     0.499235

 Minimum Search - Taking Simple RFO Step
 Searching for Lamda that Minimizes Along All modes
 Value Taken    Lamda =  -0.00000830
 Step Taken.  Stepsize is  0.014816

                             Maximum     Tolerance    Cnvgd?
         Gradient           0.000354      0.000300      NO
         Displacement       0.007273      0.001200      NO
         Energy change     -0.000025      0.000001      NO


 New Cartesian Coordinates Obtained by Inverse Iteration

 Displacement from previous Coordinates is:  0.024817
 ----------------------------------------------------------------
             Standard Nuclear Orientation (Angstroms)
    I     Atom           X                Y                Z
 ----------------------------------------------------------------
    1      S       0.0118303451     0.0713748957     0.0116651848
    2      C       1.7432886887     0.0387187581     0.0061255887
    3      H       2.2898525620     0.0559624574     0.9394518579
    4      C       2.2452047379    -0.0052058003    -1.2685941273
    5      H       3.3055574209    -0.0317403130    -1.4924308803
    6      C       1.2211943910    -0.0141195036    -2.2627912186
    7      H       1.4078793400    -0.0467210404    -3.3302680213
    8      C      -0.0509842524     0.0270951232    -1.7418143704
    9      C      -1.3318574031     0.0409389814    -2.4593219579
   10      C      -2.0525782797     1.1258968752    -2.9010676560
   11      H      -1.7177142869     2.1451534463    -2.7444073589
   12      C      -3.2594948874     0.7722312041    -3.5759528112
   13      H      -3.9532278873     1.4934996176    -3.9927038266
   14      C      -3.4506588160    -0.5834580926    -3.6397932486
   15      H      -4.2736246728    -1.1217304500    -4.0907762575
   16      S      -2.1595833399    -1.4496701191    -2.8776534268
 ----------------------------------------------------------------
 Nuclear Repulsion Energy =   627.8371416164 hartrees
 There are       43 alpha and       43 beta electrons
 Applying Cartesian multipole field
    Component          Value
    ---------          -----
     (2,0,0)        1.00000E-11
     (0,2,0)        2.00000E-11
     (0,0,2)       -3.00000E-11
 Nucleus-field energy     =    -0.0000000356 hartrees
 Requested basis set is 6-31++G(d,p)
 There are 76 shells and 234 basis functions
 A cutoff of  1.0D-12 yielded   2526 shell pairs
 There are     24868 function pairs

 Q-Chem warning in module /project/projectdirs/jcesr/qchem/qc44/cnl_qc441/compile/cori/qc_src/libqints/qchem/aobasis.C, line 68:

 Using reconstructed effective core potential

 Smallest overlap matrix eigenvalue = 1.18E-06
 Guess MOs from SCF MO coefficient file
 Reading MOs from coefficient file
 Reading MOs from coefficient file
 A restricted hybrid HF-DFT SCF calculation will be
 performed using Pulay DIIS extrapolation
 Exchange:     0.2000 Hartree-Fock + 0.0800 Slater + 0.7200 B88
 Correlation:  0.1900 VWN1RPA + 0.8100 LYP
 Using SG-1 standard quadrature grid
 SCF converges when DIIS error is below 1.0E-08
 Geometry optimization detected.  Setting ReadMinima to 0
 Setting SaveMinima to 0
 ---------------------------------------
  Cycle       Energy         DIIS Error
 ---------------------------------------
    1   -1104.8374762060      6.82E-05
    2   -1104.8372454278      1.45E-05
    3   -1104.8372411110      2.78E-05
    4   -1104.8372472099      3.16E-06
    5   -1104.8372472636      1.72E-06
    6   -1104.8372472831      4.67E-07
    7   -1104.8372472835      1.46E-07
    8   -1104.8372472846      3.44E-08
    9   -1104.8372472857      6.17E-09 Convergence criterion met
 ---------------------------------------
 SCF time:  CPU 5.02 s  wall 4.64 s
 SCF   energy in the final basis set = -1104.8372472857
 Total energy in the final basis set = -1104.8372472857
 
 --------------------------------------------------------------
 
                    Orbital Energies (a.u.)
 --------------------------------------------------------------
 
 Alpha MOs
 -- Occupied --
-88.919 -88.919 -10.235 -10.235 -10.224 -10.224 -10.204 -10.204
-10.203 -10.203  -7.978  -7.978  -5.942  -5.942  -5.939  -5.939
 -5.936  -5.935  -0.898  -0.877  -0.768  -0.741  -0.741  -0.705
 -0.600  -0.567  -0.565  -0.534  -0.523  -0.478  -0.417  -0.414
 -0.412  -0.406  -0.393  -0.375  -0.375  -0.351  -0.350  -0.264
 -0.257  -0.243  -0.243
 -- Virtual --
 -0.034  -0.033  -0.005  -0.003   0.007   0.013   0.021   0.022
  0.026   0.034   0.035   0.041   0.045   0.048   0.065   0.071
  0.071   0.071   0.080   0.102   0.102   0.107   0.111   0.112
  0.114   0.118   0.125   0.127   0.132   0.132   0.137   0.142
  0.145   0.150   0.157   0.161   0.169   0.173   0.179   0.182
  0.186   0.191   0.191   0.206   0.212   0.218   0.220   0.226
  0.243   0.248   0.257   0.270   0.271   0.274   0.293   0.298
  0.306   0.316   0.328   0.332   0.357   0.363   0.371   0.391
  0.431   0.472   0.483   0.486   0.519   0.531   0.548   0.578
  0.580   0.587   0.617   0.633   0.642   0.667   0.674   0.676
  0.690   0.698   0.725   0.726   0.738   0.754   0.768   0.772
  0.794   0.801   0.813   0.828   0.842   0.893   0.911   0.942
  0.945   0.958   0.960   0.967   0.971   0.987   0.993   1.016
  1.020   1.022   1.034   1.058   1.077   1.094   1.103   1.110
  1.130   1.184   1.217   1.221   1.245   1.287   1.325   1.346
  1.352   1.355   1.362   1.396   1.459   1.470   1.477   1.522
  1.563   1.691   1.695   1.780   1.827   1.851   1.874   1.881
  1.917   1.923   1.960   1.972   2.011   2.018   2.061   2.108
  2.125   2.162   2.185   2.197   2.208   2.251   2.267   2.340
  2.367   2.371   2.429   2.438   2.465   2.478   2.494   2.511
  2.513   2.522   2.579   2.586   2.612   2.644   2.698   2.702
  2.755   2.830   2.859   2.878   2.933   3.168   3.171   3.269
  3.271   3.401   3.426   3.721   3.741   3.967   3.970   4.284
  4.306   4.320   4.328   4.437   4.534   4.661   4.710
 --------------------------------------------------------------
 
          Ground-State Mulliken Net Atomic Charges

     Atom                 Charge (a.u.)
  ----------------------------------------
      1 S                     0.060291
      2 C                    -0.043989
      3 H                     0.187573
      4 C                    -0.377675
      5 H                     0.118771
      6 C                     0.315116
      7 H                     0.131918
      8 C                    -0.391768
      9 C                    -0.390396
     10 C                     0.312870
     11 H                     0.131795
     12 C                    -0.377074
     13 H                     0.118836
     14 C                    -0.044069
     15 H                     0.187505
     16 S                     0.060294
  ----------------------------------------
  Sum of atomic charges =     0.000000

 -----------------------------------------------------------------
                    Cartesian Multipole Moments
 -----------------------------------------------------------------
    Charge (ESU x 10^10)
                 0.0000
    Dipole Moment (Debye)
         X       0.2709      Y       0.5159      Z      -0.4764
       Tot       0.7526
    Quadrupole Moments (Debye-Ang)
        XX     -64.2163     XY      -0.5722     YY     -73.4528
        XZ       5.0544     YZ      -1.1905     ZZ     -68.5992
    Octopole Moments (Debye-Ang^2)
       XXX     156.1054    XXY       5.9252    XYY      44.0041
       YYY      30.7276    XXZ     107.7661    XYZ       0.5202
       YYZ     136.7895    XZZ      39.7872    YZZ      11.0663
       ZZZ     423.3730
    Hexadecapole Moments (Debye-Ang^3)
      XXXX   -1734.5865   XXXY     -47.7506   XXYY    -356.6943
      XYYY     -73.3629   YYYY    -351.7313   XXXZ    -608.3390
      XXYZ     -13.7402   XYYZ    -212.5102   YYYZ     -96.8487
      XXZZ    -580.6791   XYZZ     -17.5795   YYZZ    -467.0428
      XZZZ    -685.3214   YZZZ     -84.1048   ZZZZ   -2593.2964
 -----------------------------------------------------------------
 Calculating analytic gradient of the SCF energy
 Gradient of SCF Energy
            1           2           3           4           5           6
    1   0.0000196  -0.0001214   0.0000203   0.0001424  -0.0000096  -0.0001903
    2  -0.0000276   0.0000416   0.0000035   0.0001100  -0.0000694  -0.0000292
    3   0.0000848  -0.0000714  -0.0000028   0.0000558  -0.0000121   0.0000509
            7           8           9          10          11          12
    1  -0.0000349   0.0004442  -0.0004046   0.0001097   0.0000985  -0.0000867
    2   0.0001169  -0.0001472   0.0002439  -0.0001424  -0.0000116  -0.0000028
    3  -0.0000212  -0.0000051  -0.0000700   0.0000840  -0.0000998  -0.0001698
           13          14          15          16
    1  -0.0000258   0.0001319  -0.0000221  -0.0000713
    2  -0.0000047  -0.0000076  -0.0000036  -0.0000698
    3   0.0000642   0.0000658   0.0000186   0.0000282
 Max gradient component =       4.442E-04
 RMS gradient           =       1.213E-04
 Gradient time:  CPU 2.09 s  wall 2.05 s
 Geometry Optimization Parameters
   NAtoms,    NIC,     NZ,  NCons,   NDum,   NFix, NCnnct, MaxDiis
       16     111       0       1       0       0       0       0

 Cartesian Hessian Update
 Hessian Updated using BFGS Update


** CONSTRAINED OPTIMIZATION IN DELOCALIZED INTERNAL COORDINATES **
   Searching for a Minimum

   Optimization Cycle:   4

                       Coordinates (Angstroms)
     ATOM                X               Y               Z
      1  S         0.0118303451    0.0713748957    0.0116651848
      2  C         1.7432886887    0.0387187581    0.0061255887
      3  H         2.2898525620    0.0559624574    0.9394518579
      4  C         2.2452047379   -0.0052058003   -1.2685941273
      5  H         3.3055574209   -0.0317403130   -1.4924308803
      6  C         1.2211943910   -0.0141195036   -2.2627912186
      7  H         1.4078793400   -0.0467210404   -3.3302680213
      8  C        -0.0509842524    0.0270951232   -1.7418143704
      9  C        -1.3318574031    0.0409389814   -2.4593219579
     10  C        -2.0525782797    1.1258968752   -2.9010676560
     11  H        -1.7177142869    2.1451534463   -2.7444073589
     12  C        -3.2594948874    0.7722312041   -3.5759528112
     13  H        -3.9532278873    1.4934996176   -3.9927038266
     14  C        -3.4506588160   -0.5834580926   -3.6397932486
     15  H        -4.2736246728   -1.1217304500   -4.0907762575
     16  S        -2.1595833399   -1.4496701191   -2.8776534268
   Point Group: c1    Number of degrees of freedom:    42


   Energy is  -1104.837247286

              Constraints and their Current Values
                                        Value     Constraint
   Dihedral:        6   8   9  10      -90.000      -90.000
 Hessian Updated using BFGS Update

 40 Hessian modes will be used to form the next step
  Hessian Eigenvalues:
     0.018810    0.044716    0.045000    0.045000    0.045000    0.045001
     0.045002    0.045004    0.045011    0.045013    0.048018    0.159085
     0.159895    0.159947    0.159993    0.160000    0.160760    0.221282
     0.223077    0.237835    0.238270    0.249986    0.281005    0.293470
     0.294521    0.312563    0.314459    0.354756    0.354876    0.355129
     0.355514    0.358272    0.358806    0.379858    0.404884    0.446605
     0.459953    0.463582    0.497934    0.510371

 Minimum Search - Taking Simple RFO Step
 Searching for Lamda that Minimizes Along All modes
 Value Taken    Lamda =  -0.00000253
 Step Taken.  Stepsize is  0.010002

                             Maximum     Tolerance    Cnvgd?
         Gradient           0.000282      0.000300     YES
         Displacement       0.005975      0.001200      NO
         Energy change     -0.000005      0.000001      NO


 New Cartesian Coordinates Obtained by Inverse Iteration

 Displacement from previous Coordinates is:  0.017381
 ----------------------------------------------------------------
             Standard Nuclear Orientation (Angstroms)
    I     Atom           X                Y                Z
 ----------------------------------------------------------------
    1      S       0.0121824699     0.0725993045     0.0118851650
    2      C       1.7436850194     0.0402203407     0.0058515680
    3      H       2.2907587274     0.0590617210     0.9388402188
    4      C       2.2449246103    -0.0052040986    -1.2690789926
    5      H       3.3052236927    -0.0313382796    -1.4932099363
    6      C       1.2206146748    -0.0153086934    -2.2629138117
    7      H       1.4069397333    -0.0514038592    -3.3303213109
    8      C      -0.0515342429     0.0260131534    -1.7412798684
    9      C      -1.3321755928     0.0401045681    -2.4583578583
   10      C      -2.0526152225     1.1256952936    -2.8997331189
   11      H      -1.7191961271     2.1449069790    -2.7398652419
   12      C      -3.2590464568     0.7725407757    -3.5756733765
   13      H      -3.9524153737     1.4940748930    -3.9925656671
   14      C      -3.4501468257    -0.5830758081    -3.6412412425
   15      H      -4.2726884439    -1.1208184714    -4.0936132725
   16      S      -2.1594269824    -1.4498417787    -2.8790557842
 ----------------------------------------------------------------
 Nuclear Repulsion Energy =   627.8455003077 hartrees
 There are       43 alpha and       43 beta electrons
 Applying Cartesian multipole field
    Component          Value
    ---------          -----
     (2,0,0)        1.00000E-11
     (0,2,0)        2.00000E-11
     (0,0,2)       -3.00000E-11
 Nucleus-field energy     =    -0.0000000356 hartrees
 Requested basis set is 6-31++G(d,p)
 There are 76 shells and 234 basis functions
 A cutoff of  1.0D-12 yielded   2526 shell pairs
 There are     24868 function pairs

 Q-Chem warning in module /project/projectdirs/jcesr/qchem/qc44/cnl_qc441/compile/cori/qc_src/libqints/qchem/aobasis.C, line 68:

 Using reconstructed effective core potential

 Smallest overlap matrix eigenvalue = 1.17E-06
 Guess MOs from SCF MO coefficient file
 Reading MOs from coefficient file
 Reading MOs from coefficient file
 A restricted hybrid HF-DFT SCF calculation will be
 performed using Pulay DIIS extrapolation
 Exchange:     0.2000 Hartree-Fock + 0.0800 Slater + 0.7200 B88
 Correlation:  0.1900 VWN1RPA + 0.8100 LYP
 Using SG-1 standard quadrature grid
 SCF converges when DIIS error is below 1.0E-08
 Geometry optimization detected.  Setting ReadMinima to 0
 Setting SaveMinima to 0
 ---------------------------------------
  Cycle       Energy         DIIS Error
 ---------------------------------------
    1   -1104.8374812457      5.48E-05
    2   -1104.8372483771      7.11E-06
    3   -1104.8372474531      1.32E-05
    4   -1104.8372488458      1.63E-06
    5   -1104.8372488597      1.01E-06
    6   -1104.8372488652      3.58E-07
    7   -1104.8372488652      9.43E-08
    8   -1104.8372488657      2.63E-08
    9   -1104.8372488667      4.06E-09 Convergence criterion met
 ---------------------------------------
 SCF time:  CPU 5.04 s  wall 4.98 s
 SCF   energy in the final basis set = -1104.8372488667
 Total energy in the final basis set = -1104.8372488667
 
 --------------------------------------------------------------
 
                    Orbital Energies (a.u.)
 --------------------------------------------------------------
 
 Alpha MOs
 -- Occupied --
-88.919 -88.919 -10.235 -10.235 -10.224 -10.224 -10.204 -10.204
-10.203 -10.203  -7.978  -7.978  -5.942  -5.942  -5.939  -5.939
 -5.936  -5.935  -0.898  -0.877  -0.768  -0.741  -0.741  -0.705
 -0.600  -0.567  -0.565  -0.534  -0.523  -0.478  -0.417  -0.414
 -0.412  -0.405  -0.393  -0.375  -0.375  -0.351  -0.350  -0.264
 -0.257  -0.243  -0.243
 -- Virtual --
 -0.034  -0.033  -0.005  -0.003   0.007   0.013   0.021   0.022
  0.026   0.034   0.035   0.041   0.045   0.048   0.065   0.071
  0.071   0.071   0.080   0.102   0.102   0.107   0.111   0.112
  0.114   0.118   0.125   0.127   0.132   0.132   0.137   0.142
  0.145   0.150   0.157   0.161   0.169   0.173   0.179   0.182
  0.186   0.191   0.191   0.206   0.212   0.218   0.220   0.226
  0.243   0.248   0.257   0.270   0.271   0.274   0.293   0.298
  0.306   0.316   0.328   0.332   0.357   0.363   0.371   0.391
  0.431   0.472   0.483   0.486   0.519   0.531   0.548   0.578
  0.580   0.587   0.617   0.633   0.642   0.667   0.673   0.676
  0.691   0.698   0.725   0.726   0.738   0.754   0.767   0.773
  0.794   0.801   0.813   0.827   0.842   0.893   0.911   0.942
  0.945   0.958   0.960   0.967   0.971   0.987   0.993   1.016
  1.020   1.022   1.034   1.058   1.078   1.094   1.103   1.110
  1.129   1.184   1.217   1.221   1.245   1.287   1.325   1.346
  1.352   1.355   1.363   1.396   1.459   1.471   1.476   1.522
  1.563   1.691   1.695   1.780   1.826   1.851   1.874   1.881
  1.917   1.923   1.960   1.972   2.010   2.018   2.061   2.108
  2.125   2.162   2.185   2.197   2.208   2.251   2.267   2.341
  2.367   2.371   2.429   2.438   2.465   2.478   2.494   2.511
  2.513   2.522   2.579   2.587   2.611   2.644   2.698   2.702
  2.756   2.831   2.859   2.878   2.933   3.168   3.171   3.269
  3.271   3.401   3.426   3.721   3.741   3.967   3.970   4.284
  4.306   4.320   4.328   4.437   4.534   4.661   4.710
 --------------------------------------------------------------
 
          Ground-State Mulliken Net Atomic Charges

     Atom                 Charge (a.u.)
  ----------------------------------------
      1 S                     0.060472
      2 C                    -0.044013
      3 H                     0.187546
      4 C                    -0.377186
      5 H                     0.118775
      6 C                     0.314476
      7 H                     0.131899
      8 C                    -0.391713
      9 C                    -0.390340
     10 C                     0.312164
     11 H                     0.131776
     12 C                    -0.376567
     13 H                     0.118842
     14 C                    -0.044098
     15 H                     0.187479
     16 S                     0.060490
  ----------------------------------------
  Sum of atomic charges =     0.000000

 -----------------------------------------------------------------
                    Cartesian Multipole Moments
 -----------------------------------------------------------------
    Charge (ESU x 10^10)
                 0.0000
    Dipole Moment (Debye)
         X       0.2706      Y       0.5158      Z      -0.4759
       Tot       0.7522
    Quadrupole Moments (Debye-Ang)
        XX     -64.2197     XY      -0.5757     YY     -73.4535
        XZ       5.0591     YZ      -1.1706     ZZ     -68.5984
    Octopole Moments (Debye-Ang^2)
       XXX     156.1351    XXY       5.9493    XYY      44.0015
       YYY      30.7087    XXZ     107.7736    XYZ       0.5377
       YYZ     136.8188    XZZ      39.7375    YZZ      10.9754
       ZZZ     423.3606
    Hexadecapole Moments (Debye-Ang^3)
      XXXX   -1734.5591   XXXY     -47.8038   XXYY    -356.6672
      XYYY     -73.4098   YYYY    -351.7844   XXXZ    -608.4304
      XXYZ     -13.8079   XYYZ    -212.5566   YYYZ     -97.1026
      XXZZ    -580.5315   XYZZ     -17.5335   YYZZ    -467.2073
      XZZZ    -685.0602   YZZZ     -83.9811   ZZZZ   -2593.4515
 -----------------------------------------------------------------
 Calculating analytic gradient of the SCF energy
 Gradient of SCF Energy
            1           2           3           4           5           6
    1   0.0000236  -0.0000619   0.0000338   0.0000926  -0.0000124  -0.0000580
    2  -0.0000369   0.0000209   0.0000132   0.0000675  -0.0000431   0.0001687
    3  -0.0000267  -0.0000288  -0.0000104   0.0000696   0.0000032  -0.0000737
            7           8           9          10          11          12
    1  -0.0000238   0.0000603  -0.0001537   0.0001626   0.0000263  -0.0000725
    2   0.0000059  -0.0002149   0.0000410   0.0000191  -0.0000097  -0.0000314
    3  -0.0000076   0.0000019   0.0001676  -0.0001177  -0.0000120  -0.0001146
           13          14          15          16
    1  -0.0000182   0.0000626  -0.0000269  -0.0000342
    2  -0.0000214  -0.0000181   0.0000095   0.0000295
    3   0.0000399   0.0000427   0.0000103   0.0000563
 Max gradient component =       2.149E-04
 RMS gradient           =       7.157E-05
 Gradient time:  CPU 2.13 s  wall 2.07 s
 Geometry Optimization Parameters
   NAtoms,    NIC,     NZ,  NCons,   NDum,   NFix, NCnnct, MaxDiis
       16     111       0       1       0       0       0       0

 Cartesian Hessian Update
 Hessian Updated using BFGS Update


** CONSTRAINED OPTIMIZATION IN DELOCALIZED INTERNAL COORDINATES **
   Searching for a Minimum

   Optimization Cycle:   5

                       Coordinates (Angstroms)
     ATOM                X               Y               Z
      1  S         0.0121824699    0.0725993045    0.0118851650
      2  C         1.7436850194    0.0402203407    0.0058515680
      3  H         2.2907587274    0.0590617210    0.9388402188
      4  C         2.2449246103   -0.0052040986   -1.2690789926
      5  H         3.3052236927   -0.0313382796   -1.4932099363
      6  C         1.2206146748   -0.0153086934   -2.2629138117
      7  H         1.4069397333   -0.0514038592   -3.3303213109
      8  C        -0.0515342429    0.0260131534   -1.7412798684
      9  C        -1.3321755928    0.0401045681   -2.4583578583
     10  C        -2.0526152225    1.1256952936   -2.8997331189
     11  H        -1.7191961271    2.1449069790   -2.7398652419
     12  C        -3.2590464568    0.7725407757   -3.5756733765
     13  H        -3.9524153737    1.4940748930   -3.9925656671
     14  C        -3.4501468257   -0.5830758081   -3.6412412425
     15  H        -4.2726884439   -1.1208184714   -4.0936132725
     16  S        -2.1594269824   -1.4498417787   -2.8790557842
   Point Group: c1    Number of degrees of freedom:    42


   Energy is  -1104.837248867

              Constraints and their Current Values
                                        Value     Constraint
   Dihedral:        6   8   9  10      -90.000      -90.000
 Hessian Updated using BFGS Update

 41 Hessian modes will be used to form the next step
  Hessian Eigenvalues:
     0.014654    0.043162    0.045000    0.045000    0.045000    0.045000
     0.045002    0.045004    0.045007    0.045011    0.045254    0.047651
     0.154772    0.159947    0.159991    0.160000    0.160278    0.161062
     0.221267    0.222140    0.237199    0.237892    0.249958    0.275938
     0.294400    0.296201    0.312562    0.314672    0.354737    0.354844
     0.355129    0.355481    0.358273    0.358903    0.393900    0.404885
     0.441936    0.463581    0.468587    0.497931    0.506762

 Minimum Search - Taking Simple RFO Step
 Searching for Lamda that Minimizes Along All modes
 Value Taken    Lamda =   0.00000000
 Step Taken.  Stepsize is  0.005021

                             Maximum     Tolerance    Cnvgd?
         Gradient           0.000104      0.000300     YES
         Displacement       0.003475      0.001200      NO
         Energy change     -0.000002      0.000001      NO


 New Cartesian Coordinates Obtained by Inverse Iteration

 Displacement from previous Coordinates is:  0.009364
 ----------------------------------------------------------------
             Standard Nuclear Orientation (Angstroms)
    I     Atom           X                Y                Z
 ----------------------------------------------------------------
    1      S       0.0124426096     0.0734914295     0.0120397717
    2      C       1.7439855591     0.0409660324     0.0057283214
    3      H       2.2911546483     0.0608717150     0.9386214240
    4      C       2.2448246508    -0.0054913025    -1.2693423500
    5      H       3.3050972868    -0.0311920680    -1.4937520766
    6      C       1.2204032200    -0.0162424918    -2.2628980112
    7      H       1.4067002761    -0.0537034918    -3.3302580180
    8      C      -0.0517293806     0.0252958747    -1.7410586621
    9      C      -1.3324671313     0.0398063754    -2.4577394186
   10      C      -2.0529075281     1.1256060108    -2.8988219199
   11      H      -1.7201317048     2.1448387212    -2.7377896254
   12      C      -3.2589970237     0.7727501581    -3.5752890851
   13      H      -3.9520048451     1.4945057928    -3.9924534283
   14      C      -3.4499686212    -0.5828491914    -3.6420043012
   15      H      -4.2720508395    -1.1205052508    -4.0952761089
   16      S      -2.1592675161    -1.4499222737    -2.8800390419
 ----------------------------------------------------------------
 Nuclear Repulsion Energy =   627.8393733416 hartrees
 There are       43 alpha and       43 beta electrons
 Applying Cartesian multipole field
    Component          Value
    ---------          -----
     (2,0,0)        1.00000E-11
     (0,2,0)        2.00000E-11
     (0,0,2)       -3.00000E-11
 Nucleus-field energy     =    -0.0000000356 hartrees
 Requested basis set is 6-31++G(d,p)
 There are 76 shells and 234 basis functions
 A cutoff of  1.0D-12 yielded   2526 shell pairs
 There are     24868 function pairs

 Q-Chem warning in module /project/projectdirs/jcesr/qchem/qc44/cnl_qc441/compile/cori/qc_src/libqints/qchem/aobasis.C, line 68:

 Using reconstructed effective core potential

 Smallest overlap matrix eigenvalue = 1.17E-06
 Guess MOs from SCF MO coefficient file
 Reading MOs from coefficient file
 Reading MOs from coefficient file
 A restricted hybrid HF-DFT SCF calculation will be
 performed using Pulay DIIS extrapolation
 Exchange:     0.2000 Hartree-Fock + 0.0800 Slater + 0.7200 B88
 Correlation:  0.1900 VWN1RPA + 0.8100 LYP
 Using SG-1 standard quadrature grid
 SCF converges when DIIS error is below 1.0E-08
 Geometry optimization detected.  Setting ReadMinima to 0
 Setting SaveMinima to 0
 ---------------------------------------
  Cycle       Energy         DIIS Error
 ---------------------------------------
    1   -1104.8374503642      3.52E-05
    2   -1104.8372491798      2.73E-06
    3   -1104.8372491297      4.15E-06
    4   -1104.8372492604      8.91E-07
    5   -1104.8372492652      3.36E-07
    6   -1104.8372492650      2.43E-07
    7   -1104.8372492647      5.71E-08
    8   -1104.8372492657      1.46E-08
    9   -1104.8372492656      2.64E-09 Convergence criterion met
 ---------------------------------------
 SCF time:  CPU 4.85 s  wall 4.55 s
 SCF   energy in the final basis set = -1104.8372492656
 Total energy in the final basis set = -1104.8372492656
 
 --------------------------------------------------------------
 
                    Orbital Energies (a.u.)
 --------------------------------------------------------------
 
 Alpha MOs
 -- Occupied --
-88.919 -88.919 -10.235 -10.235 -10.224 -10.224 -10.204 -10.204
-10.203 -10.203  -7.978  -7.978  -5.942  -5.942  -5.939  -5.939
 -5.936  -5.935  -0.898  -0.877  -0.768  -0.741  -0.741  -0.705
 -0.600  -0.567  -0.565  -0.534  -0.523  -0.478  -0.417  -0.414
 -0.412  -0.405  -0.393  -0.375  -0.375  -0.351  -0.350  -0.264
 -0.257  -0.243  -0.243
 -- Virtual --
 -0.034  -0.033  -0.005  -0.003   0.007   0.013   0.021   0.022
  0.026   0.034   0.035   0.041   0.045   0.048   0.065   0.071
  0.071   0.071   0.080   0.102   0.102   0.107   0.111   0.112
  0.114   0.118   0.125   0.127   0.132   0.132   0.137   0.142
  0.145   0.150   0.157   0.161   0.169   0.173   0.179   0.182
  0.186   0.191   0.191   0.206   0.212   0.218   0.220   0.226
  0.243   0.248   0.257   0.270   0.271   0.274   0.293   0.298
  0.306   0.316   0.329   0.332   0.357   0.363   0.371   0.391
  0.431   0.471   0.483   0.486   0.519   0.531   0.548   0.578
  0.580   0.587   0.617   0.633   0.642   0.667   0.673   0.676
  0.691   0.698   0.725   0.726   0.738   0.754   0.767   0.773
  0.794   0.801   0.813   0.828   0.842   0.893   0.911   0.942
  0.945   0.958   0.960   0.967   0.971   0.987   0.993   1.016
  1.020   1.022   1.033   1.058   1.078   1.094   1.103   1.110
  1.129   1.184   1.217   1.221   1.245   1.287   1.325   1.346
  1.352   1.355   1.363   1.396   1.460   1.471   1.476   1.523
  1.562   1.691   1.695   1.780   1.826   1.851   1.875   1.881
  1.917   1.923   1.960   1.973   2.010   2.018   2.061   2.108
  2.125   2.162   2.185   2.197   2.208   2.251   2.267   2.341
  2.367   2.371   2.429   2.438   2.465   2.478   2.494   2.511
  2.513   2.522   2.579   2.587   2.611   2.644   2.698   2.702
  2.756   2.831   2.859   2.878   2.933   3.168   3.171   3.269
  3.271   3.401   3.426   3.721   3.741   3.967   3.970   4.284
  4.306   4.320   4.328   4.437   4.534   4.661   4.710
 --------------------------------------------------------------
 
          Ground-State Mulliken Net Atomic Charges

     Atom                 Charge (a.u.)
  ----------------------------------------
      1 S                     0.060525
      2 C                    -0.044024
      3 H                     0.187548
      4 C                    -0.376863
      5 H                     0.118783
      6 C                     0.314242
      7 H                     0.131889
      8 C                    -0.391841
      9 C                    -0.390490
     10 C                     0.311928
     11 H                     0.131765
     12 C                    -0.376244
     13 H                     0.118851
     14 C                    -0.044100
     15 H                     0.187481
     16 S                     0.060549
  ----------------------------------------
  Sum of atomic charges =     0.000000

 -----------------------------------------------------------------
                    Cartesian Multipole Moments
 -----------------------------------------------------------------
    Charge (ESU x 10^10)
                 0.0000
    Dipole Moment (Debye)
         X       0.2711      Y       0.5167      Z      -0.4768
       Tot       0.7536
    Quadrupole Moments (Debye-Ang)
        XX     -64.2246     XY      -0.5761     YY     -73.4534
        XZ       5.0617     YZ      -1.1620     ZZ     -68.5913
    Octopole Moments (Debye-Ang^2)
       XXX     156.1685    XXY       5.9653    XYY      43.9992
       YYY      30.6995    XXZ     107.7778    XYZ       0.5445
       YYZ     136.8270    XZZ      39.7026    YZZ      10.9359
       ZZZ     423.3215
    Hexadecapole Moments (Debye-Ang^3)
      XXXX   -1734.7619   XXXY     -47.7848   XXYY    -356.6700
      XYYY     -73.3954   YYYY    -351.8171   XXXZ    -608.5467
      XXYZ     -13.8528   XYYZ    -212.5719   YYYZ     -97.2716
      XXZZ    -580.4478   XYZZ     -17.4832   YYZZ    -467.2582
      XZZZ    -684.8731   YZZZ     -83.9703   ZZZZ   -2593.3779
 -----------------------------------------------------------------
 Calculating analytic gradient of the SCF energy
 Gradient of SCF Energy
            1           2           3           4           5           6
    1   0.0000149  -0.0000040   0.0000188   0.0000117  -0.0000006   0.0000228
    2  -0.0000200   0.0000023   0.0000223   0.0000266  -0.0000156   0.0002493
    3  -0.0000400   0.0000012  -0.0000108   0.0000126  -0.0000000  -0.0000510
            7           8           9          10          11          12
    1  -0.0000077  -0.0000332  -0.0001026   0.0001309  -0.0000060  -0.0000054
    2  -0.0000265  -0.0002955   0.0000393   0.0000339  -0.0000066  -0.0000175
    3   0.0000008  -0.0000463   0.0002894  -0.0002259   0.0000050  -0.0000288
           13          14          15          16
    1  -0.0000117  -0.0000039  -0.0000116  -0.0000125
    2  -0.0000145  -0.0000157   0.0000017   0.0000367
    3   0.0000107   0.0000238   0.0000109   0.0000484
 Max gradient component =       2.955E-04
 RMS gradient           =       8.327E-05
 Gradient time:  CPU 2.04 s  wall 2.05 s
 Geometry Optimization Parameters
   NAtoms,    NIC,     NZ,  NCons,   NDum,   NFix, NCnnct, MaxDiis
       16     111       0       1       0       0       0       0

 Cartesian Hessian Update
 Hessian Updated using BFGS Update


** CONSTRAINED OPTIMIZATION IN DELOCALIZED INTERNAL COORDINATES **
   Searching for a Minimum

   Optimization Cycle:   6

                       Coordinates (Angstroms)
     ATOM                X               Y               Z
      1  S         0.0124426096    0.0734914295    0.0120397717
      2  C         1.7439855591    0.0409660324    0.0057283214
      3  H         2.2911546483    0.0608717150    0.9386214240
      4  C         2.2448246508   -0.0054913025   -1.2693423500
      5  H         3.3050972868   -0.0311920680   -1.4937520766
      6  C         1.2204032200   -0.0162424918   -2.2628980112
      7  H         1.4067002761   -0.0537034918   -3.3302580180
      8  C        -0.0517293806    0.0252958747   -1.7410586621
      9  C        -1.3324671313    0.0398063754   -2.4577394186
     10  C        -2.0529075281    1.1256060108   -2.8988219199
     11  H        -1.7201317048    2.1448387212   -2.7377896254
     12  C        -3.2589970237    0.7727501581   -3.5752890851
     13  H        -3.9520048451    1.4945057928   -3.9924534283
     14  C        -3.4499686212   -0.5828491914   -3.6420043012
     15  H        -4.2720508395   -1.1205052508   -4.0952761089
     16  S        -2.1592675161   -1.4499222737   -2.8800390419
   Point Group: c1    Number of degrees of freedom:    42


   Energy is  -1104.837249266

              Constraints and their Current Values
                                        Value     Constraint
   Dihedral:        6   8   9  10      -90.000      -90.000
 Hessian Updated using BFGS Update

 41 Hessian modes will be used to form the next step
  Hessian Eigenvalues:
     0.011767    0.034523    0.045000    0.045000    0.045000    0.045001
     0.045002    0.045004    0.045008    0.045012    0.045870    0.046825
     0.152818    0.159947    0.159991    0.160000    0.160336    0.160549
     0.221264    0.223124    0.230192    0.237842    0.249962    0.284532
     0.294419    0.297058    0.312564    0.314639    0.354784    0.355125
     0.355146    0.355546    0.358272    0.358863    0.394143    0.404883
     0.443902    0.463583    0.473586    0.497937    0.509290

 Minimum Search - Taking Simple RFO Step
 Searching for Lamda that Minimizes Along All modes
 Value Taken    Lamda =   0.00000000
 Step Taken.  Stepsize is  0.003622

                             Maximum     Tolerance    Cnvgd?
         Gradient           0.000054      0.000300     YES
         Displacement       0.002581      0.001200      NO
         Energy change     -0.000000      0.000001     YES

 Final energy is   -1104.83724926556     


 ******************************
 **  OPTIMIZATION CONVERGED  **
 ******************************

                       Coordinates (Angstroms)
     ATOM                X               Y               Z
      1  S         0.0124426096    0.0734914295    0.0120397717
      2  C         1.7439855591    0.0409660324    0.0057283214
      3  H         2.2911546483    0.0608717150    0.9386214240
      4  C         2.2448246508   -0.0054913025   -1.2693423500
      5  H         3.3050972868   -0.0311920680   -1.4937520766
      6  C         1.2204032200   -0.0162424918   -2.2628980112
      7  H         1.4067002761   -0.0537034918   -3.3302580180
      8  C        -0.0517293806    0.0252958747   -1.7410586621
      9  C        -1.3324671313    0.0398063754   -2.4577394186
     10  C        -2.0529075281    1.1256060108   -2.8988219199
     11  H        -1.7201317048    2.1448387212   -2.7377896254
     12  C        -3.2589970237    0.7727501581   -3.5752890851
     13  H        -3.9520048451    1.4945057928   -3.9924534283
     14  C        -3.4499686212   -0.5828491914   -3.6420043012
     15  H        -4.2720508395   -1.1205052508   -4.0952761089
     16  S        -2.1592675161   -1.4499222737   -2.8800390419

Z-matrix Print:
$molecule
0 1
S 
C  1 1.731860
H  2 1.081702 1 120.149607
C  2 1.370694 1 111.675567 3 -179.817575 0
H  4 1.084066 2 123.417847 1 179.959942 0
C  4 1.427133 2 112.680564 1 -0.042370 0
H  6 1.084144 4 124.216694 2 -179.823563 0
C  6 1.375632 4 113.546122 2 0.151100 0
C  8 1.467696 6 128.464328 4 179.425870 0
C  9 1.375699 8 128.414535 6 -89.999999 0
H  10 1.084208 9 122.249968 8 -0.590283 0
C  10 1.427153 9 113.540897 8 179.447539 0
H  12 1.084074 10 123.919712 9 -179.884512 0
C  12 1.370610 10 112.666074 9 0.129951 0
H  14 1.081826 12 128.157153 10 -179.916894 0
S  14 1.731565 12 111.714606 10 -0.019919 0
$end

 
 --------------------------------------------------------------
 
                    Orbital Energies (a.u.)
 --------------------------------------------------------------
 
 Alpha MOs
 -- Occupied --
-88.919 -88.919 -10.235 -10.235 -10.224 -10.224 -10.204 -10.204
-10.203 -10.203  -7.978  -7.978  -5.942  -5.942  -5.939  -5.939
 -5.936  -5.935  -0.898  -0.877  -0.768  -0.741  -0.741  -0.705
 -0.600  -0.567  -0.565  -0.534  -0.523  -0.478  -0.417  -0.414
 -0.412  -0.405  -0.393  -0.375  -0.375  -0.351  -0.350  -0.264
 -0.257  -0.243  -0.243
 -- Virtual --
 -0.034  -0.033  -0.005  -0.003   0.007   0.013   0.021   0.022
  0.026   0.034   0.035   0.041   0.045   0.048   0.065   0.071
  0.071   0.071   0.080   0.102   0.102   0.107   0.111   0.112
  0.114   0.118   0.125   0.127   0.132   0.132   0.137   0.142
  0.145   0.150   0.157   0.161   0.169   0.173   0.179   0.182
  0.186   0.191   0.191   0.206   0.212   0.218   0.220   0.226
  0.243   0.248   0.257   0.270   0.271   0.274   0.293   0.298
  0.306   0.316   0.329   0.332   0.357   0.363   0.371   0.391
  0.431   0.471   0.483   0.486   0.519   0.531   0.548   0.578
  0.580   0.587   0.617   0.633   0.642   0.667   0.673   0.676
  0.691   0.698   0.725   0.726   0.738   0.754   0.767   0.773
  0.794   0.801   0.813   0.828   0.842   0.893   0.911   0.942
  0.945   0.958   0.960   0.967   0.971   0.987   0.993   1.016
  1.020   1.022   1.033   1.058   1.078   1.094   1.103   1.110
  1.129   1.184   1.217   1.221   1.245   1.287   1.325   1.346
  1.352   1.355   1.363   1.396   1.460   1.471   1.476   1.523
  1.562   1.691   1.695   1.780   1.826   1.851   1.875   1.881
  1.917   1.923   1.960   1.973   2.010   2.018   2.061   2.108
  2.125   2.162   2.185   2.197   2.208   2.251   2.267   2.341
  2.367   2.371   2.429   2.438   2.465   2.478   2.494   2.511
  2.513   2.522   2.579   2.587   2.611   2.644   2.698   2.702
  2.756   2.831   2.859   2.878   2.933   3.168   3.171   3.269
  3.271   3.401   3.426   3.721   3.741   3.967   3.970   4.284
  4.306   4.320   4.328   4.437   4.534   4.661   4.710
 --------------------------------------------------------------
 
          Ground-State Mulliken Net Atomic Charges

     Atom                 Charge (a.u.)
  ----------------------------------------
      1 S                     0.060525
      2 C                    -0.044024
      3 H                     0.187548
      4 C                    -0.376863
      5 H                     0.118783
      6 C                     0.314242
      7 H                     0.131889
      8 C                    -0.391841
      9 C                    -0.390490
     10 C                     0.311928
     11 H                     0.131765
     12 C                    -0.376244
     13 H                     0.118851
     14 C                    -0.044100
     15 H                     0.187481
     16 S                     0.060549
  ----------------------------------------
  Sum of atomic charges =     0.000000

 -----------------------------------------------------------------
                    Cartesian Multipole Moments
 -----------------------------------------------------------------
    Charge (ESU x 10^10)
                 0.0000
    Dipole Moment (Debye)
         X       0.2711      Y       0.5167      Z      -0.4768
       Tot       0.7536
    Quadrupole Moments (Debye-Ang)
        XX     -64.2246     XY      -0.5761     YY     -73.4534
        XZ       5.0617     YZ      -1.1620     ZZ     -68.5913
    Octopole Moments (Debye-Ang^2)
       XXX     156.1685    XXY       5.9653    XYY      43.9992
       YYY      30.6995    XXZ     107.7778    XYZ       0.5445
       YYZ     136.8270    XZZ      39.7026    YZZ      10.9359
       ZZZ     423.3215
    Hexadecapole Moments (Debye-Ang^3)
      XXXX   -1734.7619   XXXY     -47.7848   XXYY    -356.6700
      XYYY     -73.3954   YYYY    -351.8171   XXXZ    -608.5467
      XXYZ     -13.8528   XYYZ    -212.5719   YYYZ     -97.2716
      XXZZ    -580.4478   XYZZ     -17.4832   YYZZ    -467.2582
      XZZZ    -684.8731   YZZZ     -83.9703   ZZZZ   -2593.3779
 -----------------------------------------------------------------
Archival summary:
1\1\nid00469\OPT\ProcedureUnspecified\BasisUnspecified\286\bwood\WedMay3102:25:392017WedMay3102:25:392017\0\\#,OPT,ProcedureUnspecified,BasisUnspecified,\\0,1\S\C,1,1.73186\H,2,1.0817,1,120.15\C,2,1.37069,1,111.676,3,-179.818,0\H,4,1.08407,2,123.418,1,179.96,0\C,4,1.42713,2,112.681,1,-0.0423699,0\H,6,1.08414,4,124.217,2,-179.824,0\C,6,1.37563,4,113.546,2,0.1511,0\C,8,1.4677,6,128.464,4,179.426,0\C,9,1.3757,8,128.415,6,-90,0\H,10,1.08421,9,122.25,8,-0.590283,0\C,10,1.42715,9,113.541,8,179.448,0\H,12,1.08407,10,123.92,9,-179.885,0\C,12,1.37061,10,112.666,9,0.129951,0\H,14,1.08183,12,128.157,10,-179.917,0\S,14,1.73156,12,111.715,10,-0.0199194,0\\\@

 Total job time:  49.01s(wall), 48.29s(cpu) 
 Wed May 31 02:25:39 2017

        *************************************************************
        *                                                           *
        *  Thank you very much for using Q-Chem.  Have a nice day.  *
        *                                                           *
        *************************************************************


0 sent ACK to 0 
now end server 0 ... 
