srun -N 1 --ntasks-per-node 16 --cpus-per-task 4 --cpu_bind=cores --nodelist nid00498 /global/project/projectdirs/jcesr/qchem/qc44/cnl_qc441/dist/exe/qcprog.cori.haswell.exe .pt_n2_neutral_-130.0.in.47672.qcin.1 /global/cscratch1/sd/bwood/qchem/nx/qchem47672/
Process 0 of 16 is on nid00498 - thread support 0
Process 1 of 16 is on nid00498 - thread support 0
Process 2 of 16 is on nid00498 - thread support 0
Process 3 of 16 is on nid00498 - thread support 0
Process 4 of 16 is on nid00498 - thread support 0
Process 5 of 16 is on nid00498 - thread support 0
Process 6 of 16 is on nid00498 - thread support 0
Process 15 of 16 is on nid00498 - thread support 0
initial socket setup ...start
initial socket setup ...done 
now start server 0 ... 
nid00498 10.128.1
Q-Chem Developer Version! Running on 10.128.1.*
                  Welcome to Q-Chem
     A Quantum Leap Into The Future Of Chemistry


 Q-Chem 4.4, Q-Chem, Inc., Pleasanton, CA (2016)

 Y. Shao,  Z. Gan,  E. Epifanovsky,  A. T. B. Gilbert,  M. Wormit,  
 J. Kussmann,  A. W. Lange,  A. Behn,  J. Deng,  X. Feng,  D. Ghosh,  
 M. Goldey,  P. R. Horn,  L. D. Jacobson,  I. Kaliman,  F. Rob,  
 R. Z. Khaliullin,  T. Kus,  A. Landau,  J. Liu,  E. I. Proynov,  Y. M. Rhee,  
 R. M. Richard,  M. A. Rohrdanz,  R. P. Steele,  E. J. Sundstrom,  
 H. L. Woodcock III,  P. M. Zimmerman,  D. Zuev,  B. Albrecht,  E. Alguire,  
 B. Austin,  S. A. Baeppler,  G. J. O. Beran,  Y. A. Bernard,  
 E. J. Berquist,  K. Brandhorst,  K. B. Bravaya,  S. T. Brown,  D. Casanova,  
 C.-M. Chang,  Y. Chen,  S. H. Chien,  K. D. Closser,  M. P. Coons,  
 D. L. Crittenden,  S. Dasgupta,  M. Diedenhofen,  R. A. DiStasio Jr.,  
 H. Do,  A. D. Dutoi,  R. G. Edgar,  P.-T. Fang,  S. Fatehi,  Q. Feng,  
 L. Fusti-Molnar,  A. Ghysels,  A. Golubeva-Zadorozhnaya,  J. Gomes,  
 A. Gunina,  M. W. D. Hanson-Heine,  P. H. P. Harbach,  A. W. Hauser,  
 J. E. Herr,  E. G. Hohenstein,  Z. C. Holden,  K. Hui,  T.-C. Jagau,  H. Ji,  
 B. Kaduk,  K. Khistyaev,  Jaehoon Kim,  Jihan Kim,  R. A. King,  
 P. Klunzinger,  K. Koh,  D. Kosenkov,  T. Kowalczyk,  C. M. Krauter,  
 A. Kunitsa,  K. U. Lao,  A. Laurent,  K. V. Lawler,  J. Lee,  D. Lefrancois,  
 S. Lehtola,  S. V. Levchenko,  C. Y. Lin,  Y.-S. Lin,  F. Liu,  E. Livshits,  
 R. C. Lochan,  A. Luenser,  P. Manohar,  S. F. Manzer,  S.-P. Mao,  Y. Mao,  
 N. Mardirossian,  A. V. Marenich,  L. A. Martinez-Martinez,  S. A. Maurer,  
 N. J. Mayhall,  J.-M. Mewes,  A. F. Morrison,  K. Nanda,  T. S. Nguyen-Beck,  
 C. M. Oana,  R. Olivares-Amaya,  D. P. O'Neill,  J. A. Parkhill,  
 T. M. Perrine,  R. Peverati,  P. A. Pieniazek,  F. Plasser,  A. Prociuk,  
 D. R. Rehn,  E. Rosta,  N. J. Russ,  N. Sergueev,  S. M. Sharada,  
 S. Sharma,  D. W. Small,  A. Sodt,  T. Stauch,  T. Stein,  D. Stuck,  
 Y.-C. Su,  A. J. W. Thom,  T. Tsuchimochi,  L. Vogt,  O. Vydrov,  T. Wang,  
 M. A. Watson,  J. Wenzel,  A. White,  C. F. Williams,  V. Vanovschi,  
 K. Yao,  S. Yeganeh,  S. R. Yost,  Z.-Q. You,  I. Y. Zhang,  X. Zhang,  
 Y. Zhao,  B. R. Brooks,  G. K. L. Chan,  D. M. Chipman,  C. J. Cramer,  
 W. A. Goddard III,  M. S. Gordon,  W. J. Hehre,  A. Klamt,  
 H. F. Schaefer III,  M. W. Schmidt,  C. D. Sherrill,  D. G. Truhlar,  
 A. Warshel,  X. Xu,  A. Aspuru-Guzik,  R. Baer,  A. T. Bell,  N. A. Besley,  
 J.-D. Chai,  A. Dreuw,  B. D. Dunietz,  T. R. Furlani,  S. R. Gwaltney,  
 C.-P. Hsu,  Y. Jung,  J. Kong,  D. S. Lambrecht,  W. Liang,  C. Ochsenfeld,  
 V. A. Rassolov,  L. V. Slipchenko,  J. E. Subotnik,  T. Van Voorhis,  
 J. M. Herbert,  A. I. Krylov,  P. M. W. Gill,  M. Head-Gordon

 Contributors to earlier versions of Q-Chem not listed above: 
 R. D. Adamson,  J. Baker,  E. F. C. Byrd,  A. K. Chakraborty,  C.-L. Cheng,  
 H. Dachsel,  R. J. Doerksen,  G. Hawkins,  A. Heyden,  S. Hirata,  
 G. Kedziora,  F. J. Keil,  C. Kelley,  P. P. Korambath,  W. Kurlancheek,  
 A. M. Lee,  M. S. Lee,  D. Liotard,  I. Lotan,  P. E. Maslen,  N. Nair,  
 D. Neuhauser,  R. Olson,  B. Peters,  J. Ritchie,  N. E. Schultz,  
 N. Shenvi,  A. C. Simmonett,  K. S. Thanthiriwatte,  Q. Wu,  W. Zhang

 Please cite Q-Chem as follows:
 Y. Shao et al., Mol. Phys. 113, 184-215 (2015)
 DOI: 10.1080/00268976.2014.952696

 Q-Chem 4.4.2 for Intel X86 EM64T Linux

 Parts of Q-Chem use Armadillo 5.200.1 (Boston Tea Smuggler).
 http://arma.sourceforge.net/

 Q-Chem begins on Wed May 31 02:24:40 2017  

Host: nid00447
0

     Scratch files written to /global/cscratch1/sd/bwood/qchem/nx/qchem47672.0//
 Parallel job on  16  processors

Checking the input file for inconsistencies... 	...done.

--------------------------------------------------------------
User input:
--------------------------------------------------------------
$molecule
 0  1
 S           0.00238887        0.06077275        0.00183269
 C           1.73707619        0.03315849        0.00323229
 H           2.27612737        0.05289032        0.94042557
 C           2.24169204       -0.01546201       -1.26965798
 H           3.30285780       -0.04005365       -1.48972496
 C           1.22479222       -0.01612968       -2.26811464
 H           1.42674790       -0.02650987       -3.33334501
 C          -0.05393771        0.02880388       -1.75170966
 C          -1.32450815        0.04889988       -2.45636342
 C          -2.39544806        0.90320961       -2.29119375
 H          -2.39159784        1.71760148       -1.57525441
 C          -3.48217046        0.62969689       -3.17159704
 H          -4.40229884        1.20251373       -3.19001585
 C          -3.23724978       -0.42942693       -4.00550638
 H          -3.87815970       -0.84517289       -4.77092852
 S          -1.67421690       -1.12364194       -3.71476768
$end


$rem
         jobtype = opt
        exchange = b3lyp
           basis = 6-31++g**
  max_scf_cycles = 150
      mem_static = 775
       mem_total = 7750
      sym_ignore = true
        symmetry = false
          thresh = 12
$end


$opt
CONSTRAINT
tors 6 8 9 10 -130.0
ENDCONSTRAINT
$end

--------------------------------------------------------------
 ----------------------------------------------------------------
             Standard Nuclear Orientation (Angstroms)
    I     Atom           X                Y                Z
 ----------------------------------------------------------------
    1      S       0.0023888700     0.0607727500     0.0018326900
    2      C       1.7370761900     0.0331584900     0.0032322900
    3      H       2.2761273700     0.0528903200     0.9404255700
    4      C       2.2416920400    -0.0154620100    -1.2696579800
    5      H       3.3028578000    -0.0400536500    -1.4897249600
    6      C       1.2247922200    -0.0161296800    -2.2681146400
    7      H       1.4267479000    -0.0265098700    -3.3333450100
    8      C      -0.0539377100     0.0288038800    -1.7517096600
    9      C      -1.3245081500     0.0488998800    -2.4563634200
   10      C      -2.3954480600     0.9032096100    -2.2911937500
   11      H      -2.3915978400     1.7176014800    -1.5752544100
   12      C      -3.4821704600     0.6296968900    -3.1715970400
   13      H      -4.4022988400     1.2025137300    -3.1900158500
   14      C      -3.2372497800    -0.4294269300    -4.0055063800
   15      H      -3.8781597000    -0.8451728900    -4.7709285200
   16      S      -1.6742169000    -1.1236419400    -3.7147676800
 ----------------------------------------------------------------
 Nuclear Repulsion Energy =   628.4449876992 hartrees
 There are       43 alpha and       43 beta electrons
 Requested basis set is 6-31++G(d,p)
 There are 76 shells and 234 basis functions

 Total QAlloc Memory Limit   7750 MB
 Mega-Array Size       758 MB
 MEM_STATIC part       775 MB
 A cutoff of  1.0D-12 yielded   2532 shell pairs
 There are     24926 function pairs

 Q-Chem warning in module /project/projectdirs/jcesr/qchem/qc44/cnl_qc441/compile/cori/qc_src/libqints/qchem/aobasis.C, line 68:

 Using reconstructed effective core potential

 
 -------------------------------------------------------
 OpenMP Integral Computing Module                       
 Release: version 1.0, May 2013, Q-Chem Inc. Pittsburgh 
 -------------------------------------------------------
 Integral Job Info:
 Integral job number is                      11
 Integral operator is                         1
 short-range coefficients                     0
 long-range coefficients              100000000
 Omega coefficients                           0
 if combine SR and LR in K                    0
 Integral screening is                        0
 Integral computing path is                   2
 max size of driver memory is            800000
 size of driver memory is                593474
 size of scratch memory is             15166112
 max col of scratch BK array               1296
 max len of scratch array in speh3          155
 max len of scratch index in speh4           18
 max int batch size is                      520
 min int batch size is                       52
 fixed nKL is                                52
 max L of basis functions is                  2
 order of int derivative is                   0
 number of shells is                         76
 number of basis is                         234
 number of cartesian basis is               234
 number of contracted shell pairs          2532
 number of primitive shell pairs           8247
 maxK2 (contraction) of shell pair           36
 max number of K2 of shell pair               1
 max number of CS2 of shell pair            270
 max number of PS2 of shell pair           1512
 mem total for path MDJ                   51992
 -------------------------------------------------------
 Smallest overlap matrix eigenvalue = 1.07E-06

 Scale SEOQF with 1.000000e-01/1.000000e-01/1.000000e-01

 Standard Electronic Orientation quadrupole field applied
 Nucleus-field energy     =    -0.0000000447 hartrees
 Guess from superposition of atomic densities
 Warning:  Energy on first SCF cycle will be non-variational
 A restricted hybrid HF-DFT SCF calculation will be
 performed using Pulay DIIS extrapolation
 Exchange:     0.2000 Hartree-Fock + 0.0800 Slater + 0.7200 B88
 Correlation:  0.1900 VWN1RPA + 0.8100 LYP
 Using SG-1 standard quadrature grid
 SCF converges when DIIS error is below 1.0E-08
 ---------------------------------------
  Cycle       Energy         DIIS Error
 ---------------------------------------
    1   -1107.1517830719      4.39E-02
    2   -1104.6595974472      4.83E-03
    3   -1104.4217815784      7.20E-03
    4   -1104.8308356367      1.05E-03
    5   -1104.8370326175      6.02E-04
    6   -1104.8393334535      2.22E-04
    7   -1104.8396768709      8.15E-05
    8   -1104.8397240317      1.38E-05
    9   -1104.8397254615      1.85E-06
   10   -1104.8397254853      8.30E-07
   11   -1104.8397254895      4.02E-07
   12   -1104.8397254917      1.20E-07
   13   -1104.8397254914      2.87E-08
   14   -1104.8397254916      8.94E-09 Convergence criterion met
 ---------------------------------------
 SCF time:  CPU 7.65 s  wall 7.18 s
 SCF   energy in the final basis set = -1104.8397254916
 Total energy in the final basis set = -1104.8397254916
 
 --------------------------------------------------------------
 
                    Orbital Energies (a.u.)
 --------------------------------------------------------------
 
 Alpha MOs
 -- Occupied --
-88.920 -88.920 -10.237 -10.237 -10.225 -10.225 -10.204 -10.204
-10.203 -10.203  -7.979  -7.979  -5.943  -5.943  -5.940  -5.939
 -5.936  -5.936  -0.899  -0.877  -0.771  -0.746  -0.738  -0.705
 -0.603  -0.576  -0.556  -0.534  -0.524  -0.478  -0.418  -0.418
 -0.409  -0.405  -0.397  -0.376  -0.374  -0.354  -0.347  -0.268
 -0.262  -0.260  -0.222
 -- Virtual --
 -0.049  -0.015  -0.006  -0.003   0.007   0.010   0.017   0.022
  0.029   0.036   0.038   0.041   0.044   0.057   0.058   0.063
  0.070   0.077   0.091   0.094   0.103   0.104   0.105   0.108
  0.120   0.122   0.130   0.131   0.133   0.134   0.136   0.141
  0.147   0.151   0.156   0.164   0.167   0.172   0.177   0.180
  0.186   0.190   0.201   0.206   0.211   0.225   0.227   0.232
  0.237   0.239   0.261   0.266   0.276   0.281   0.283   0.286
  0.312   0.319   0.322   0.338   0.354   0.359   0.377   0.388
  0.435   0.458   0.466   0.513   0.526   0.528   0.534   0.570
  0.581   0.598   0.616   0.630   0.653   0.657   0.673   0.681
  0.697   0.711   0.721   0.726   0.737   0.752   0.764   0.771
  0.780   0.807   0.809   0.830   0.832   0.873   0.915   0.944
  0.946   0.950   0.962   0.966   0.967   0.987   0.999   1.013
  1.016   1.029   1.048   1.068   1.089   1.092   1.102   1.115
  1.149   1.179   1.194   1.217   1.251   1.276   1.317   1.348
  1.350   1.351   1.364   1.382   1.464   1.464   1.492   1.543
  1.546   1.689   1.694   1.754   1.802   1.862   1.873   1.888
  1.918   1.923   1.961   1.990   2.003   2.037   2.083   2.087
  2.119   2.142   2.178   2.181   2.229   2.253   2.266   2.335
  2.366   2.367   2.422   2.442   2.464   2.467   2.494   2.505
  2.526   2.526   2.584   2.587   2.598   2.656   2.695   2.712
  2.745   2.850   2.858   2.902   2.931   3.150   3.192   3.269
  3.273   3.404   3.426   3.721   3.742   3.973   3.975   4.261
  4.304   4.319   4.331   4.423   4.536   4.657   4.712
 --------------------------------------------------------------
 
          Ground-State Mulliken Net Atomic Charges

     Atom                 Charge (a.u.)
  ----------------------------------------
      1 S                     0.022051
      2 C                    -0.041758
      3 H                     0.187619
      4 C                    -0.402859
      5 H                     0.116125
      6 C                     0.254050
      7 H                     0.136649
      8 C                    -0.269823
      9 C                    -0.273570
     10 C                     0.253107
     11 H                     0.136801
     12 C                    -0.401697
     13 H                     0.116021
     14 C                    -0.043163
     15 H                     0.187579
     16 S                     0.022869
  ----------------------------------------
  Sum of atomic charges =     0.000000

 -----------------------------------------------------------------
                    Cartesian Multipole Moments
 -----------------------------------------------------------------
    Charge (ESU x 10^10)
                 0.0000
    Dipole Moment (Debye)
         X       0.1088      Y       0.4244      Z      -0.1851
       Tot       0.4756
    Quadrupole Moments (Debye-Ang)
        XX     -63.4954     XY      -1.8437     YY     -75.4844
        XZ       4.3420     YZ       1.3267     ZZ     -68.3512
    Octopole Moments (Debye-Ang^2)
       XXX     142.9872    XXY      12.8805    XYY      45.2222
       YYY      20.1797    XXZ     117.2246    XYZ      -2.5894
       YYZ     152.4098    XZZ      35.3710    YZZ      -6.8744
       ZZZ     430.9970
    Hexadecapole Moments (Debye-Ang^3)
      XXXX   -1647.4681   XXXY     -45.9179   XXYY    -342.6976
      XYYY     -18.7001   YYYY    -263.8876   XXXZ    -611.8452
      XXYZ     -33.5740   XYYZ    -234.8025   YYYZ    -117.7376
      XXZZ    -625.1037   XYZZ      37.4631   YYZZ    -530.1582
      XZZZ    -629.9542   YZZZ     -38.9189   ZZZZ   -2791.0001
 -----------------------------------------------------------------
 Calculating analytic gradient of the SCF energy
 Gradient of SCF Energy
            1           2           3           4           5           6
    1  -0.0005269   0.0011321  -0.0002609  -0.0003200  -0.0000519   0.0010937
    2  -0.0006486   0.0000824  -0.0000835   0.0000306  -0.0000734   0.0011625
    3   0.0002686  -0.0006182   0.0000094  -0.0001695   0.0000061  -0.0000150
            7           8           9          10          11          12
    1   0.0005758  -0.0046098   0.0042315  -0.0006454  -0.0005013   0.0003991
    2   0.0001401  -0.0006167  -0.0011197   0.0010853   0.0002484   0.0000474
    3   0.0000835  -0.0014169   0.0023508  -0.0009897  -0.0002271   0.0001351
           13          14          15          16
    1   0.0000076  -0.0008067   0.0001919   0.0000914
    2  -0.0000795   0.0009471  -0.0001585  -0.0009637
    3   0.0000640   0.0000905   0.0000907   0.0003376
 Max gradient component =       4.610E-03
 RMS gradient           =       1.115E-03
 Gradient time:  CPU 2.10 s  wall 2.11 s
 Geometry Optimization Parameters
   NAtoms,    NIC,     NZ,  NCons,   NDum,   NFix, NCnnct, MaxDiis
       16     111       0       1       0       0       0       0


** CONSTRAINED OPTIMIZATION IN DELOCALIZED INTERNAL COORDINATES **
   Searching for a Minimum

   Optimization Cycle:   1

                       Coordinates (Angstroms)
     ATOM                X               Y               Z
      1  S         0.0023888700    0.0607727500    0.0018326900
      2  C         1.7370761900    0.0331584900    0.0032322900
      3  H         2.2761273700    0.0528903200    0.9404255700
      4  C         2.2416920400   -0.0154620100   -1.2696579800
      5  H         3.3028578000   -0.0400536500   -1.4897249600
      6  C         1.2247922200   -0.0161296800   -2.2681146400
      7  H         1.4267479000   -0.0265098700   -3.3333450100
      8  C        -0.0539377100    0.0288038800   -1.7517096600
      9  C        -1.3245081500    0.0488998800   -2.4563634200
     10  C        -2.3954480600    0.9032096100   -2.2911937500
     11  H        -2.3915978400    1.7176014800   -1.5752544100
     12  C        -3.4821704600    0.6296968900   -3.1715970400
     13  H        -4.4022988400    1.2025137300   -3.1900158500
     14  C        -3.2372497800   -0.4294269300   -4.0055063800
     15  H        -3.8781597000   -0.8451728900   -4.7709285200
     16  S        -1.6742169000   -1.1236419400   -3.7147676800
   Point Group: c1    Number of degrees of freedom:    42


   Energy is  -1104.839725492

              Constraints and their Current Values
                                        Value     Constraint
   Dihedral:        6   8   9  10     -130.000     -130.000

 Attempting to Generate Delocalized Internal Coordinates

 41 Hessian modes will be used to form the next step
  Hessian Eigenvalues:
     0.045000    0.045000    0.045000    0.045000    0.045000    0.045000
     0.045002    0.045002    0.045003    0.045004    0.045011    0.045012
     0.159943    0.159949    0.159991    0.159992    0.160000    0.160000
     0.221282    0.221282    0.237835    0.237839    0.250000    0.250000
     0.294264    0.294663    0.312518    0.312618    0.354736    0.354850
     0.355125    0.355132    0.358226    0.358329    0.378510    0.404854
     0.404909    0.463547    0.463616    0.497922    0.497945

 Minimum Search - Taking Simple RFO Step
 Searching for Lamda that Minimizes Along All modes
 Value Taken    Lamda =  -0.00010888
 Step Taken.  Stepsize is  0.035460

                             Maximum     Tolerance    Cnvgd?
         Gradient           0.002192      0.000300      NO
         Displacement       0.020251      0.001200      NO
         Energy change     *********      0.000001      NO


 New Cartesian Coordinates Obtained by Inverse Iteration

 Displacement from previous Coordinates is:  0.077581
 ----------------------------------------------------------------
             Standard Nuclear Orientation (Angstroms)
    I     Atom           X                Y                Z
 ----------------------------------------------------------------
    1      S       0.0046693002     0.0677826227     0.0034404846
    2      C       1.7382544360     0.0413471573     0.0042316081
    3      H       2.2794209328     0.0701102151     0.9401833172
    4      C       2.2418887414    -0.0155588015    -1.2692855500
    5      H       3.3029914514    -0.0388249764    -1.4901598388
    6      C       1.2235960640    -0.0246635607    -2.2673322986
    7      H       1.4202045188    -0.0414616391    -3.3334421321
    8      C      -0.0527218068     0.0207384541    -1.7494994753
    9      C      -1.3285620648     0.0423142176    -2.4546781665
   10      C      -2.3965003079     0.8969446748    -2.2864043763
   11      H      -2.3889508172     1.7056806194    -1.5641952785
   12      C      -3.4826048467     0.6295164910    -3.1706489776
   13      H      -4.4019617718     1.2037444753    -3.1877660527
   14      C      -3.2366550193    -0.4245635264    -4.0114580016
   15      H      -3.8767253184    -0.8330402226    -4.7817284023
   16      S      -1.6742485417    -1.1189161407    -3.7239456093
 ----------------------------------------------------------------
 Nuclear Repulsion Energy =   628.3232116893 hartrees
 There are       43 alpha and       43 beta electrons
 Applying Cartesian multipole field
    Component          Value
    ---------          -----
     (2,0,0)        1.00000E-11
     (0,2,0)        2.00000E-11
     (0,0,2)       -3.00000E-11
 Nucleus-field energy     =    -0.0000000449 hartrees
 Requested basis set is 6-31++G(d,p)
 There are 76 shells and 234 basis functions
 A cutoff of  1.0D-12 yielded   2532 shell pairs
 There are     24926 function pairs

 Q-Chem warning in module /project/projectdirs/jcesr/qchem/qc44/cnl_qc441/compile/cori/qc_src/libqints/qchem/aobasis.C, line 68:

 Using reconstructed effective core potential

 Smallest overlap matrix eigenvalue = 1.09E-06
 Guess MOs from SCF MO coefficient file
 Reading MOs from coefficient file
 Reading MOs from coefficient file
 A restricted hybrid HF-DFT SCF calculation will be
 performed using Pulay DIIS extrapolation
 Exchange:     0.2000 Hartree-Fock + 0.0800 Slater + 0.7200 B88
 Correlation:  0.1900 VWN1RPA + 0.8100 LYP
 Using SG-1 standard quadrature grid
 SCF converges when DIIS error is below 1.0E-08
 Geometry optimization detected.  Setting ReadMinima to 0
 Setting SaveMinima to 0
 ---------------------------------------
  Cycle       Energy         DIIS Error
 ---------------------------------------
    1   -1104.8412377205      3.33E-04
    2   -1104.8397868914      4.04E-05
    3   -1104.8397780706      5.50E-05
    4   -1104.8397997053      1.44E-05
    5   -1104.8398011022      4.58E-06
    6   -1104.8398012344      2.00E-06
    7   -1104.8398012606      6.65E-07
    8   -1104.8398012647      1.93E-07
    9   -1104.8398012640      2.72E-08
   10   -1104.8398012627      1.68E-08
   11   -1104.8398012634      5.45E-09 Convergence criterion met
 ---------------------------------------
 SCF time:  CPU 6.04 s  wall 5.64 s
 SCF   energy in the final basis set = -1104.8398012634
 Total energy in the final basis set = -1104.8398012634
 
 --------------------------------------------------------------
 
                    Orbital Energies (a.u.)
 --------------------------------------------------------------
 
 Alpha MOs
 -- Occupied --
-88.920 -88.920 -10.237 -10.237 -10.225 -10.225 -10.204 -10.204
-10.203 -10.203  -7.979  -7.979  -5.943  -5.943  -5.940  -5.939
 -5.936  -5.936  -0.899  -0.878  -0.770  -0.746  -0.738  -0.705
 -0.602  -0.576  -0.556  -0.534  -0.524  -0.478  -0.418  -0.418
 -0.409  -0.405  -0.397  -0.377  -0.374  -0.355  -0.347  -0.268
 -0.262  -0.260  -0.222
 -- Virtual --
 -0.049  -0.014  -0.006  -0.003   0.007   0.010   0.017   0.022
  0.029   0.036   0.038   0.041   0.044   0.057   0.058   0.062
  0.070   0.078   0.091   0.093   0.103   0.105   0.105   0.109
  0.120   0.122   0.130   0.131   0.133   0.134   0.136   0.140
  0.147   0.151   0.157   0.164   0.167   0.172   0.176   0.180
  0.186   0.190   0.201   0.206   0.210   0.225   0.227   0.232
  0.236   0.239   0.261   0.267   0.276   0.281   0.282   0.286
  0.311   0.318   0.322   0.339   0.355   0.359   0.377   0.388
  0.435   0.458   0.466   0.514   0.525   0.529   0.533   0.570
  0.581   0.598   0.615   0.630   0.653   0.656   0.673   0.680
  0.698   0.710   0.721   0.726   0.736   0.752   0.764   0.771
  0.780   0.807   0.809   0.830   0.832   0.873   0.915   0.943
  0.947   0.951   0.963   0.966   0.966   0.987   0.999   1.013
  1.017   1.029   1.048   1.068   1.089   1.092   1.101   1.115
  1.149   1.179   1.195   1.216   1.252   1.275   1.317   1.348
  1.350   1.351   1.364   1.382   1.463   1.464   1.490   1.545
  1.545   1.689   1.694   1.753   1.799   1.865   1.872   1.886
  1.918   1.923   1.960   1.988   2.003   2.037   2.084   2.087
  2.120   2.143   2.179   2.181   2.229   2.252   2.263   2.334
  2.367   2.367   2.422   2.441   2.463   2.467   2.494   2.505
  2.526   2.527   2.584   2.587   2.598   2.655   2.695   2.712
  2.744   2.850   2.857   2.901   2.931   3.150   3.192   3.269
  3.272   3.404   3.425   3.721   3.742   3.973   3.975   4.260
  4.304   4.319   4.331   4.422   4.536   4.656   4.712
 --------------------------------------------------------------
 
          Ground-State Mulliken Net Atomic Charges

     Atom                 Charge (a.u.)
  ----------------------------------------
      1 S                     0.019567
      2 C                    -0.039327
      3 H                     0.187805
      4 C                    -0.406020
      5 H                     0.115908
      6 C                     0.255626
      7 H                     0.136753
      8 C                    -0.270348
      9 C                    -0.269129
     10 C                     0.252182
     11 H                     0.136939
     12 C                    -0.403516
     13 H                     0.115851
     14 C                    -0.041134
     15 H                     0.187765
     16 S                     0.021079
  ----------------------------------------
  Sum of atomic charges =     0.000000

 -----------------------------------------------------------------
                    Cartesian Multipole Moments
 -----------------------------------------------------------------
    Charge (ESU x 10^10)
                 0.0000
    Dipole Moment (Debye)
         X       0.1115      Y       0.4373      Z      -0.1901
       Tot       0.4897
    Quadrupole Moments (Debye-Ang)
        XX     -63.5405     XY      -1.8456     YY     -75.5260
        XZ       4.3539     YZ       1.3487     ZZ     -68.2722
    Octopole Moments (Debye-Ang^2)
       XXX     143.1124    XXY      12.9748    XYY      45.3518
       YYY      19.9902    XXZ     117.3989    XYZ      -2.4260
       YYZ     152.6305    XZZ      35.1397    YZZ      -6.9194
       ZZZ     430.5249
    Hexadecapole Moments (Debye-Ang^3)
      XXXX   -1648.8825   XXXY     -46.0700   XXYY    -342.9947
      XYYY     -18.6110   YYYY    -262.6700   XXXZ    -612.9446
      XXYZ     -34.1065   XYYZ    -235.6509   YYYZ    -118.6665
      XXZZ    -625.6749   XYZZ      37.0208   YYZZ    -531.3622
      XZZZ    -628.7674   YZZZ     -39.3474   ZZZZ   -2791.8808
 -----------------------------------------------------------------
 Calculating analytic gradient of the SCF energy
 Gradient of SCF Energy
            1           2           3           4           5           6
    1   0.0001318   0.0003693  -0.0001069  -0.0002382  -0.0000006   0.0001295
    2  -0.0004070  -0.0000512  -0.0000135  -0.0000073  -0.0000136   0.0013600
    3   0.0001744   0.0000745   0.0000882  -0.0001079  -0.0000092   0.0000521
            7           8           9          10          11          12
    1   0.0001173  -0.0005831   0.0001552   0.0004202  -0.0000605   0.0002408
    2   0.0001426  -0.0011122  -0.0003639   0.0007876   0.0001103  -0.0000110
    3   0.0000098  -0.0006650   0.0014459  -0.0010662  -0.0001132   0.0001032
           13          14          15          16
    1  -0.0000103  -0.0003370   0.0000665  -0.0002941
    2  -0.0000040   0.0000477  -0.0001089  -0.0003557
    3   0.0000215  -0.0000741  -0.0000261   0.0000921
 Max gradient component =       1.446E-03
 RMS gradient           =       4.332E-04
 Gradient time:  CPU 2.09 s  wall 2.11 s
 Geometry Optimization Parameters
   NAtoms,    NIC,     NZ,  NCons,   NDum,   NFix, NCnnct, MaxDiis
       16     111       0       1       0       0       0       0

 Cartesian Hessian Update
 Hessian Updated using BFGS Update


** CONSTRAINED OPTIMIZATION IN DELOCALIZED INTERNAL COORDINATES **
   Searching for a Minimum

   Optimization Cycle:   2

                       Coordinates (Angstroms)
     ATOM                X               Y               Z
      1  S         0.0046693002    0.0677826227    0.0034404846
      2  C         1.7382544360    0.0413471573    0.0042316081
      3  H         2.2794209328    0.0701102151    0.9401833172
      4  C         2.2418887414   -0.0155588015   -1.2692855500
      5  H         3.3029914514   -0.0388249764   -1.4901598388
      6  C         1.2235960640   -0.0246635607   -2.2673322986
      7  H         1.4202045188   -0.0414616391   -3.3334421321
      8  C        -0.0527218068    0.0207384541   -1.7494994753
      9  C        -1.3285620648    0.0423142176   -2.4546781665
     10  C        -2.3965003079    0.8969446748   -2.2864043763
     11  H        -2.3889508172    1.7056806194   -1.5641952785
     12  C        -3.4826048467    0.6295164910   -3.1706489776
     13  H        -4.4019617718    1.2037444753   -3.1877660527
     14  C        -3.2366550193   -0.4245635264   -4.0114580016
     15  H        -3.8767253184   -0.8330402226   -4.7817284023
     16  S        -1.6742485417   -1.1189161407   -3.7239456093
   Point Group: c1    Number of degrees of freedom:    42


   Energy is  -1104.839801263

              Constraints and their Current Values
                                        Value     Constraint
   Dihedral:        6   8   9  10     -130.000     -130.000
 Hessian Updated using BFGS Update

 37 Hessian modes will be used to form the next step
  Hessian Eigenvalues:
     0.023134    0.045000    0.045000    0.045000    0.045002    0.045003
     0.045011    0.045012    0.045692    0.157596    0.159947    0.159991
     0.159992    0.160000    0.161632    0.221281    0.223323    0.234042
     0.237839    0.249580    0.250131    0.291453    0.294544    0.312569
     0.314291    0.354736    0.354848    0.355140    0.358246    0.358363
     0.401828    0.404882    0.414534    0.463574    0.494231    0.497918
     0.507552

 Minimum Search - Taking Simple RFO Step
 Searching for Lamda that Minimizes Along All modes
 Value Taken    Lamda =  -0.00006276
 Step Taken.  Stepsize is  0.050830

                             Maximum     Tolerance    Cnvgd?
         Gradient           0.000894      0.000300      NO
         Displacement       0.036199      0.001200      NO
         Energy change     -0.000076      0.000001      NO


 New Cartesian Coordinates Obtained by Inverse Iteration

 Displacement from previous Coordinates is:  0.125895
 ----------------------------------------------------------------
             Standard Nuclear Orientation (Angstroms)
    I     Atom           X                Y                Z
 ----------------------------------------------------------------
    1      S       0.0051196855     0.0777706706     0.0048969843
    2      C       1.7382323816     0.0555350040     0.0027126244
    3      H       2.2823306375     0.0983478603     0.9364317715
    4      C       2.2410528278    -0.0153603903    -1.2706239893
    5      H       3.3019993085    -0.0370397149    -1.4924896794
    6      C       1.2207978521    -0.0388262831    -2.2669470968
    7      H       1.4125656011    -0.0668157603    -3.3336635562
    8      C      -0.0535362337     0.0072026740    -1.7463981182
    9      C      -1.3330184519     0.0307398610    -2.4497727721
   10      C      -2.3982303040     0.8866095463    -2.2769253281
   11      H      -2.3892405971     1.6868602507    -1.5454020400
   12      C      -3.4816276487     0.6302156739    -3.1683527911
   13      H      -4.3998844530     1.2062426855    -3.1841028085
   14      C      -3.2322916710    -0.4147625099    -4.0197465967
   15      H      -3.8700834560    -0.8117771205    -4.7978739830
   16      S      -1.6720905286    -1.1137923873    -3.7344313707
 ----------------------------------------------------------------
 Nuclear Repulsion Energy =   628.3742372268 hartrees
 There are       43 alpha and       43 beta electrons
 Applying Cartesian multipole field
    Component          Value
    ---------          -----
     (2,0,0)        1.00000E-11
     (0,2,0)        2.00000E-11
     (0,0,2)       -3.00000E-11
 Nucleus-field energy     =    -0.0000000450 hartrees
 Requested basis set is 6-31++G(d,p)
 There are 76 shells and 234 basis functions
 A cutoff of  1.0D-12 yielded   2536 shell pairs
 There are     25022 function pairs

 Q-Chem warning in module /project/projectdirs/jcesr/qchem/qc44/cnl_qc441/compile/cori/qc_src/libqints/qchem/aobasis.C, line 68:

 Using reconstructed effective core potential

 Smallest overlap matrix eigenvalue = 1.08E-06
 Guess MOs from SCF MO coefficient file
 Reading MOs from coefficient file
 Reading MOs from coefficient file
 A restricted hybrid HF-DFT SCF calculation will be
 performed using Pulay DIIS extrapolation
 Exchange:     0.2000 Hartree-Fock + 0.0800 Slater + 0.7200 B88
 Correlation:  0.1900 VWN1RPA + 0.8100 LYP
 Using SG-1 standard quadrature grid
 SCF converges when DIIS error is below 1.0E-08
 Geometry optimization detected.  Setting ReadMinima to 0
 Setting SaveMinima to 0
 ---------------------------------------
  Cycle       Energy         DIIS Error
 ---------------------------------------
    1   -1104.8403449175      4.50E-04
    2   -1104.8398191058      4.82E-05
    3   -1104.8397869946      8.34E-05
    4   -1104.8398406782      1.45E-05
    5   -1104.8398418963      7.20E-06
    6   -1104.8398422407      2.58E-06
    7   -1104.8398422863      7.22E-07
    8   -1104.8398422907      1.61E-07
    9   -1104.8398422918      3.95E-08
   10   -1104.8398422908      2.60E-08
   11   -1104.8398422912      4.79E-09 Convergence criterion met
 ---------------------------------------
 SCF time:  CPU 6.18 s  wall 5.65 s
 SCF   energy in the final basis set = -1104.8398422912
 Total energy in the final basis set = -1104.8398422912
 
 --------------------------------------------------------------
 
                    Orbital Energies (a.u.)
 --------------------------------------------------------------
 
 Alpha MOs
 -- Occupied --
-88.920 -88.920 -10.238 -10.237 -10.224 -10.224 -10.204 -10.204
-10.203 -10.203  -7.979  -7.979  -5.943  -5.943  -5.940  -5.939
 -5.936  -5.936  -0.899  -0.878  -0.770  -0.747  -0.738  -0.705
 -0.602  -0.576  -0.556  -0.534  -0.524  -0.478  -0.418  -0.417
 -0.409  -0.405  -0.397  -0.377  -0.374  -0.355  -0.347  -0.269
 -0.262  -0.260  -0.221
 -- Virtual --
 -0.049  -0.014  -0.006  -0.003   0.007   0.010   0.017   0.022
  0.029   0.036   0.039   0.042   0.045   0.057   0.057   0.062
  0.070   0.078   0.092   0.093   0.102   0.104   0.105   0.109
  0.120   0.122   0.131   0.131   0.132   0.134   0.136   0.140
  0.147   0.150   0.157   0.164   0.167   0.172   0.176   0.180
  0.187   0.190   0.201   0.206   0.210   0.225   0.227   0.231
  0.236   0.240   0.261   0.267   0.276   0.281   0.282   0.285
  0.311   0.318   0.321   0.339   0.355   0.359   0.377   0.388
  0.435   0.458   0.466   0.515   0.524   0.531   0.533   0.569
  0.581   0.598   0.615   0.629   0.653   0.656   0.673   0.679
  0.699   0.708   0.721   0.726   0.736   0.751   0.763   0.772
  0.781   0.808   0.809   0.831   0.832   0.872   0.915   0.942
  0.947   0.952   0.963   0.965   0.966   0.988   0.999   1.014
  1.018   1.029   1.047   1.068   1.089   1.093   1.101   1.114
  1.150   1.179   1.196   1.216   1.252   1.273   1.317   1.347
  1.349   1.352   1.364   1.384   1.462   1.464   1.489   1.542
  1.548   1.688   1.694   1.752   1.796   1.867   1.871   1.886
  1.919   1.923   1.959   1.987   2.004   2.038   2.086   2.087
  2.120   2.143   2.179   2.183   2.229   2.252   2.260   2.334
  2.367   2.368   2.422   2.441   2.461   2.467   2.495   2.505
  2.526   2.527   2.583   2.586   2.598   2.655   2.695   2.712
  2.744   2.850   2.856   2.901   2.930   3.150   3.191   3.269
  3.271   3.404   3.425   3.721   3.742   3.973   3.976   4.259
  4.304   4.318   4.330   4.421   4.536   4.657   4.712
 --------------------------------------------------------------
 
          Ground-State Mulliken Net Atomic Charges

     Atom                 Charge (a.u.)
  ----------------------------------------
      1 S                     0.016659
      2 C                    -0.037633
      3 H                     0.187660
      4 C                    -0.407876
      5 H                     0.115684
      6 C                     0.255867
      7 H                     0.136640
      8 C                    -0.268881
      9 C                    -0.263198
     10 C                     0.249881
     11 H                     0.136872
     12 C                    -0.404107
     13 H                     0.115659
     14 C                    -0.039953
     15 H                     0.187619
     16 S                     0.019105
  ----------------------------------------
  Sum of atomic charges =     0.000000

 -----------------------------------------------------------------
                    Cartesian Multipole Moments
 -----------------------------------------------------------------
    Charge (ESU x 10^10)
                 0.0000
    Dipole Moment (Debye)
         X       0.1153      Y       0.4539      Z      -0.1964
       Tot       0.5078
    Quadrupole Moments (Debye-Ang)
        XX     -63.5958     XY      -1.8662     YY     -75.5785
        XZ       4.3370     YZ       1.3853     ZZ     -68.1790
    Octopole Moments (Debye-Ang^2)
       XXX     143.3824    XXY      13.2449    XYY      45.5554
       YYY      19.7627    XXZ     117.6535    XYZ      -2.0911
       YYZ     152.9160    XZZ      34.9117    YZZ      -6.9291
       ZZZ     429.8250
    Hexadecapole Moments (Debye-Ang^3)
      XXXX   -1648.6608   XXXY     -46.6856   XXYY    -343.0249
      XYYY     -18.4014   YYYY    -261.1007   XXXZ    -614.0541
      XXYZ     -35.3535   XYYZ    -236.5143   YYYZ    -120.1301
      XXZZ    -626.2456   XYZZ      35.9644   YYZZ    -532.7411
      XZZZ    -626.4059   YZZZ     -40.3840   ZZZZ   -2791.1387
 -----------------------------------------------------------------
 Calculating analytic gradient of the SCF energy
 Gradient of SCF Energy
            1           2           3           4           5           6
    1   0.0000889  -0.0003833   0.0000193   0.0001069   0.0000329  -0.0002911
    2  -0.0001767  -0.0001457   0.0000681  -0.0000612   0.0000361   0.0016916
    3   0.0000905   0.0000754  -0.0000014  -0.0000307  -0.0000271   0.0000837
            7           8           9          10          11          12
    1  -0.0001501   0.0018027  -0.0023887   0.0010090   0.0001772  -0.0001537
    2   0.0000969  -0.0017932  -0.0002335   0.0008395   0.0000026   0.0000132
    3  -0.0000254  -0.0001504   0.0010661  -0.0012239  -0.0000137   0.0000312
           13          14          15          16
    1  -0.0000112   0.0002763   0.0000019  -0.0001369
    2   0.0000471  -0.0003202   0.0000468  -0.0001114
    3  -0.0000061   0.0001509  -0.0000440   0.0000249
 Max gradient component =       2.389E-03
 RMS gradient           =       6.476E-04
 Gradient time:  CPU 2.08 s  wall 2.11 s
 Geometry Optimization Parameters
   NAtoms,    NIC,     NZ,  NCons,   NDum,   NFix, NCnnct, MaxDiis
       16     111       0       1       0       0       0       0

 Cartesian Hessian Update
 Hessian Updated using BFGS Update


** CONSTRAINED OPTIMIZATION IN DELOCALIZED INTERNAL COORDINATES **
   Searching for a Minimum

   Optimization Cycle:   3

                       Coordinates (Angstroms)
     ATOM                X               Y               Z
      1  S         0.0051196855    0.0777706706    0.0048969843
      2  C         1.7382323816    0.0555350040    0.0027126244
      3  H         2.2823306375    0.0983478603    0.9364317715
      4  C         2.2410528278   -0.0153603903   -1.2706239893
      5  H         3.3019993085   -0.0370397149   -1.4924896794
      6  C         1.2207978521   -0.0388262831   -2.2669470968
      7  H         1.4125656011   -0.0668157603   -3.3336635562
      8  C        -0.0535362337    0.0072026740   -1.7463981182
      9  C        -1.3330184519    0.0307398610   -2.4497727721
     10  C        -2.3982303040    0.8866095463   -2.2769253281
     11  H        -2.3892405971    1.6868602507   -1.5454020400
     12  C        -3.4816276487    0.6302156739   -3.1683527911
     13  H        -4.3998844530    1.2062426855   -3.1841028085
     14  C        -3.2322916710   -0.4147625099   -4.0197465967
     15  H        -3.8700834560   -0.8117771205   -4.7978739830
     16  S        -1.6720905286   -1.1137923873   -3.7344313707
   Point Group: c1    Number of degrees of freedom:    42


   Energy is  -1104.839842291

              Constraints and their Current Values
                                        Value     Constraint
   Dihedral:        6   8   9  10     -130.000     -130.000
 Hessian Updated using BFGS Update

 39 Hessian modes will be used to form the next step
  Hessian Eigenvalues:
     0.012361    0.045000    0.045000    0.045001    0.045002    0.045003
     0.045011    0.045012    0.045135    0.045799    0.159634    0.159947
     0.159992    0.160000    0.160087    0.164918    0.221287    0.224256
     0.237838    0.248510    0.249804    0.253446    0.294289    0.295242
     0.312569    0.314260    0.354735    0.354849    0.355129    0.355141
     0.358261    0.358510    0.404868    0.405089    0.421692    0.463575
     0.495955    0.497928    0.561580

 Minimum Search - Taking Simple RFO Step
 Searching for Lamda that Minimizes Along All modes
 Value Taken    Lamda =  -0.00002719
 Step Taken.  Stepsize is  0.042506

                             Maximum     Tolerance    Cnvgd?
         Gradient           0.000688      0.000300      NO
         Displacement       0.031137      0.001200      NO
         Energy change     -0.000041      0.000001      NO


 New Cartesian Coordinates Obtained by Inverse Iteration

 Displacement from previous Coordinates is:  0.107431
 ----------------------------------------------------------------
             Standard Nuclear Orientation (Angstroms)
    I     Atom           X                Y                Z
 ----------------------------------------------------------------
    1      S       0.0064585950     0.0861015288     0.0062404750
    2      C       1.7396540010     0.0681634994     0.0015111253
    3      H       2.2859669623     0.1217751608     0.9334091398
    4      C       2.2402168537    -0.0148219704    -1.2718990158
    5      H       3.3008193063    -0.0359494211    -1.4951730492
    6      C       1.2181761392    -0.0508166011    -2.2663482705
    7      H       1.4078861072    -0.0888375001    -3.3331060120
    8      C      -0.0554553560    -0.0042898035    -1.7436945306
    9      C      -1.3359888773     0.0207100662    -2.4445863344
   10      C      -2.4001729392     0.8775963791    -2.2686958575
   11      H      -2.3926639016     1.6709970492    -1.5297632222
   12      C      -3.4804409599     0.6310607407    -3.1670168996
   13      H      -4.3978113432     1.2084192452    -3.1813248001
   14      C      -3.2290368397    -0.4056506282    -4.0277328622
   15      H      -3.8646187275    -0.7939003589    -4.8120978197
   16      S      -1.6708940704    -1.1094073262    -3.7424108163
 ----------------------------------------------------------------
 Nuclear Repulsion Energy =   628.3867103392 hartrees
 There are       43 alpha and       43 beta electrons
 Applying Cartesian multipole field
    Component          Value
    ---------          -----
     (2,0,0)        1.00000E-11
     (0,2,0)        2.00000E-11
     (0,0,2)       -3.00000E-11
 Nucleus-field energy     =    -0.0000000452 hartrees
 Requested basis set is 6-31++G(d,p)
 There are 76 shells and 234 basis functions
 A cutoff of  1.0D-12 yielded   2536 shell pairs
 There are     25022 function pairs

 Q-Chem warning in module /project/projectdirs/jcesr/qchem/qc44/cnl_qc441/compile/cori/qc_src/libqints/qchem/aobasis.C, line 68:

 Using reconstructed effective core potential

 Smallest overlap matrix eigenvalue = 1.07E-06
 Guess MOs from SCF MO coefficient file
 Reading MOs from coefficient file
 Reading MOs from coefficient file
 A restricted hybrid HF-DFT SCF calculation will be
 performed using Pulay DIIS extrapolation
 Exchange:     0.2000 Hartree-Fock + 0.0800 Slater + 0.7200 B88
 Correlation:  0.1900 VWN1RPA + 0.8100 LYP
 Using SG-1 standard quadrature grid
 SCF converges when DIIS error is below 1.0E-08
 Geometry optimization detected.  Setting ReadMinima to 0
 Setting SaveMinima to 0
 ---------------------------------------
  Cycle       Energy         DIIS Error
 ---------------------------------------
    1   -1104.8388102903      3.94E-04
    2   -1104.8398453395      3.89E-05
    3   -1104.8398159769      7.52E-05
    4   -1104.8398601111      9.40E-06
    5   -1104.8398604558      6.60E-06
    6   -1104.8398607611      1.55E-06
    7   -1104.8398607775      5.67E-07
    8   -1104.8398607819      8.73E-08
    9   -1104.8398607820      3.11E-08
   10   -1104.8398607824      1.59E-08
   11   -1104.8398607815      4.48E-09 Convergence criterion met
 ---------------------------------------
 SCF time:  CPU 5.95 s  wall 6.52 s
 SCF   energy in the final basis set = -1104.8398607815
 Total energy in the final basis set = -1104.8398607815
 
 --------------------------------------------------------------
 
                    Orbital Energies (a.u.)
 --------------------------------------------------------------
 
 Alpha MOs
 -- Occupied --
-88.920 -88.920 -10.238 -10.237 -10.224 -10.224 -10.204 -10.204
-10.203 -10.203  -7.979  -7.979  -5.943  -5.943  -5.940  -5.940
 -5.936  -5.936  -0.899  -0.878  -0.770  -0.747  -0.738  -0.705
 -0.602  -0.576  -0.556  -0.534  -0.524  -0.478  -0.418  -0.418
 -0.409  -0.405  -0.397  -0.377  -0.374  -0.355  -0.347  -0.270
 -0.262  -0.260  -0.221
 -- Virtual --
 -0.049  -0.013  -0.006  -0.003   0.007   0.010   0.017   0.022
  0.029   0.036   0.039   0.042   0.045   0.057   0.057   0.062
  0.070   0.078   0.092   0.093   0.102   0.104   0.105   0.109
  0.120   0.122   0.131   0.131   0.132   0.134   0.136   0.139
  0.148   0.150   0.158   0.163   0.167   0.172   0.176   0.179
  0.187   0.190   0.202   0.206   0.210   0.225   0.227   0.231
  0.236   0.241   0.261   0.268   0.276   0.280   0.282   0.285
  0.312   0.318   0.321   0.339   0.355   0.359   0.376   0.388
  0.435   0.458   0.466   0.515   0.524   0.532   0.534   0.569
  0.581   0.597   0.615   0.628   0.654   0.655   0.672   0.679
  0.699   0.707   0.720   0.726   0.736   0.750   0.763   0.773
  0.781   0.809   0.810   0.831   0.832   0.872   0.916   0.941
  0.947   0.953   0.963   0.965   0.966   0.988   1.000   1.013
  1.018   1.029   1.047   1.068   1.089   1.093   1.100   1.114
  1.150   1.179   1.196   1.215   1.252   1.271   1.318   1.347
  1.349   1.353   1.364   1.385   1.460   1.465   1.487   1.540
  1.551   1.687   1.694   1.751   1.795   1.868   1.871   1.885
  1.920   1.923   1.958   1.986   2.004   2.039   2.087   2.088
  2.121   2.144   2.178   2.184   2.229   2.252   2.258   2.334
  2.367   2.368   2.422   2.442   2.460   2.466   2.495   2.505
  2.526   2.527   2.583   2.586   2.599   2.655   2.694   2.712
  2.744   2.849   2.856   2.901   2.930   3.150   3.191   3.269
  3.271   3.404   3.424   3.721   3.742   3.973   3.976   4.259
  4.305   4.317   4.329   4.421   4.536   4.657   4.711
 --------------------------------------------------------------
 
          Ground-State Mulliken Net Atomic Charges

     Atom                 Charge (a.u.)
  ----------------------------------------
      1 S                     0.013850
      2 C                    -0.035108
      3 H                     0.187719
      4 C                    -0.409366
      5 H                     0.115497
      6 C                     0.254165
      7 H                     0.136433
      8 C                    -0.265773
      9 C                    -0.258543
     10 C                     0.247280
     11 H                     0.136683
     12 C                    -0.405149
     13 H                     0.115479
     14 C                    -0.037605
     15 H                     0.187683
     16 S                     0.016753
  ----------------------------------------
  Sum of atomic charges =    -0.000000

 -----------------------------------------------------------------
                    Cartesian Multipole Moments
 -----------------------------------------------------------------
    Charge (ESU x 10^10)
                 0.0000
    Dipole Moment (Debye)
         X       0.1183      Y       0.4660      Z      -0.2012
       Tot       0.5212
    Quadrupole Moments (Debye-Ang)
        XX     -63.6141     XY      -1.8852     YY     -75.6274
        XZ       4.3402     YZ       1.4133     ZZ     -68.1095
    Octopole Moments (Debye-Ang^2)
       XXX     143.5259    XXY      13.4344    XYY      45.7240
       YYY      19.5498    XXZ     117.7821    XYZ      -1.8202
       YYZ     153.1625    XZZ      34.6611    YZZ      -6.9312
       ZZZ     429.2460
    Hexadecapole Moments (Debye-Ang^3)
      XXXX   -1648.5258   XXXY     -47.1403   XXYY    -343.0767
      XYYY     -18.2353   YYYY    -259.8495   XXXZ    -614.7768
      XXYZ     -36.2594   XYYZ    -237.2801   YYYZ    -121.2811
      XXZZ    -626.3510   XYZZ      35.1227   YYZZ    -533.9354
      XZZZ    -624.2372   YZZZ     -41.2432   ZZZZ   -2790.4282
 -----------------------------------------------------------------
 Calculating analytic gradient of the SCF energy
 Gradient of SCF Energy
            1           2           3           4           5           6
    1   0.0001439  -0.0003931   0.0001074   0.0002217  -0.0000013  -0.0003279
    2  -0.0000416  -0.0001513   0.0000966  -0.0000528   0.0000499   0.0019672
    3  -0.0001493   0.0001397  -0.0000227   0.0001560   0.0000203  -0.0000542
            7           8           9          10          11          12
    1  -0.0001891   0.0017412  -0.0024871   0.0011614   0.0001898  -0.0002840
    2   0.0000377  -0.0022947  -0.0005128   0.0011062  -0.0000441  -0.0000718
    3  -0.0000262  -0.0002590   0.0014306  -0.0012689   0.0000281  -0.0001195
           13          14          15          16
    1   0.0000161   0.0002583  -0.0000567  -0.0001006
    2   0.0000060  -0.0003639   0.0001073   0.0001621
    3  -0.0000438   0.0001137  -0.0000654   0.0001205
 Max gradient component =       2.487E-03
 RMS gradient           =       7.335E-04
 Gradient time:  CPU 2.17 s  wall 2.11 s
 Geometry Optimization Parameters
   NAtoms,    NIC,     NZ,  NCons,   NDum,   NFix, NCnnct, MaxDiis
       16     111       0       1       0       0       0       0

 Cartesian Hessian Update
 Hessian Updated using BFGS Update


** CONSTRAINED OPTIMIZATION IN DELOCALIZED INTERNAL COORDINATES **
   Searching for a Minimum

   Optimization Cycle:   4

                       Coordinates (Angstroms)
     ATOM                X               Y               Z
      1  S         0.0064585950    0.0861015288    0.0062404750
      2  C         1.7396540010    0.0681634994    0.0015111253
      3  H         2.2859669623    0.1217751608    0.9334091398
      4  C         2.2402168537   -0.0148219704   -1.2718990158
      5  H         3.3008193063   -0.0359494211   -1.4951730492
      6  C         1.2181761392   -0.0508166011   -2.2663482705
      7  H         1.4078861072   -0.0888375001   -3.3331060120
      8  C        -0.0554553560   -0.0042898035   -1.7436945306
      9  C        -1.3359888773    0.0207100662   -2.4445863344
     10  C        -2.4001729392    0.8775963791   -2.2686958575
     11  H        -2.3926639016    1.6709970492   -1.5297632222
     12  C        -3.4804409599    0.6310607407   -3.1670168996
     13  H        -4.3978113432    1.2084192452   -3.1813248001
     14  C        -3.2290368397   -0.4056506282   -4.0277328622
     15  H        -3.8646187275   -0.7939003589   -4.8120978197
     16  S        -1.6708940704   -1.1094073262   -3.7424108163
   Point Group: c1    Number of degrees of freedom:    42


   Energy is  -1104.839860782

              Constraints and their Current Values
                                        Value     Constraint
   Dihedral:        6   8   9  10     -130.000     -130.000
 Hessian Updated using BFGS Update

 40 Hessian modes will be used to form the next step
  Hessian Eigenvalues:
     0.009059    0.045000    0.045000    0.045001    0.045002    0.045003
     0.045006    0.045012    0.045012    0.045315    0.045422    0.159947
     0.159991    0.159997    0.160055    0.161031    0.163271    0.221283
     0.224400    0.237838    0.247864    0.249953    0.251659    0.294452
     0.296984    0.312569    0.314329    0.354737    0.354850    0.355129
     0.355308    0.358266    0.358548    0.403667    0.404889    0.418323
     0.463587    0.492110    0.497950    0.504556

 Minimum Search - Taking Simple RFO Step
 Searching for Lamda that Minimizes Along All modes
 Value Taken    Lamda =  -0.00001244
 Step Taken.  Stepsize is  0.027607

                             Maximum     Tolerance    Cnvgd?
         Gradient           0.000738      0.000300      NO
         Displacement       0.020079      0.001200      NO
         Energy change     -0.000018      0.000001      NO


 New Cartesian Coordinates Obtained by Inverse Iteration

 Displacement from previous Coordinates is:  0.067727
 ----------------------------------------------------------------
             Standard Nuclear Orientation (Angstroms)
    I     Atom           X                Y                Z
 ----------------------------------------------------------------
    1      S       0.0070211761     0.0913582752     0.0074922277
    2      C       1.7405312324     0.0765408633     0.0002094020
    3      H       2.2877075011     0.1357978575     0.9312018270
    4      C       2.2392065542    -0.0142093699    -1.2733377618
    5      H       3.2995060032    -0.0357129940    -1.4980700325
    6      C       1.2161661452    -0.0582615471    -2.2659725539
    7      H       1.4057481952    -0.1028781792    -3.3325005686
    8      C      -0.0573733629    -0.0114145653    -1.7418116653
    9      C      -1.3374285713     0.0143455526    -2.4407323194
   10      C      -2.4014878887     0.8719270025    -2.2633323664
   11      H      -2.3965236942     1.6612895203    -1.5200649203
   12      C      -3.4790061314     0.6319771167    -3.1661715978
   13      H      -4.3959658607     1.2100432261    -3.1791312825
   14      C      -3.2262460421    -0.3993615735    -4.0328294413
   15      H      -3.8601401974    -0.7833067257    -4.8205944807
   16      S      -1.6696201086    -1.1069843996    -3.7470432160
 ----------------------------------------------------------------
 Nuclear Repulsion Energy =   628.4066261182 hartrees
 There are       43 alpha and       43 beta electrons
 Applying Cartesian multipole field
    Component          Value
    ---------          -----
     (2,0,0)        1.00000E-11
     (0,2,0)        2.00000E-11
     (0,0,2)       -3.00000E-11
 Nucleus-field energy     =    -0.0000000452 hartrees
 Requested basis set is 6-31++G(d,p)
 There are 76 shells and 234 basis functions
 A cutoff of  1.0D-12 yielded   2536 shell pairs
 There are     25022 function pairs

 Q-Chem warning in module /project/projectdirs/jcesr/qchem/qc44/cnl_qc441/compile/cori/qc_src/libqints/qchem/aobasis.C, line 68:

 Using reconstructed effective core potential

 Smallest overlap matrix eigenvalue = 1.06E-06
 Guess MOs from SCF MO coefficient file
 Reading MOs from coefficient file
 Reading MOs from coefficient file
 A restricted hybrid HF-DFT SCF calculation will be
 performed using Pulay DIIS extrapolation
 Exchange:     0.2000 Hartree-Fock + 0.0800 Slater + 0.7200 B88
 Correlation:  0.1900 VWN1RPA + 0.8100 LYP
 Using SG-1 standard quadrature grid
 SCF converges when DIIS error is below 1.0E-08
 Geometry optimization detected.  Setting ReadMinima to 0
 Setting SaveMinima to 0
 ---------------------------------------
  Cycle       Energy         DIIS Error
 ---------------------------------------
    1   -1104.8387695726      2.70E-04
    2   -1104.8398622968      2.37E-05
    3   -1104.8398500776      4.77E-05
    4   -1104.8398678931      5.82E-06
    5   -1104.8398680273      4.08E-06
    6   -1104.8398681433      9.00E-07
    7   -1104.8398681494      3.26E-07
    8   -1104.8398681509      5.11E-08
    9   -1104.8398681507      1.30E-08
   10   -1104.8398681498      6.04E-09 Convergence criterion met
 ---------------------------------------
 SCF time:  CPU 5.53 s  wall 5.14 s
 SCF   energy in the final basis set = -1104.8398681498
 Total energy in the final basis set = -1104.8398681498
 
 --------------------------------------------------------------
 
                    Orbital Energies (a.u.)
 --------------------------------------------------------------
 
 Alpha MOs
 -- Occupied --
-88.920 -88.920 -10.238 -10.237 -10.224 -10.224 -10.204 -10.204
-10.203 -10.203  -7.979  -7.979  -5.943  -5.943  -5.940  -5.940
 -5.936  -5.936  -0.899  -0.878  -0.770  -0.747  -0.738  -0.705
 -0.602  -0.576  -0.556  -0.534  -0.525  -0.478  -0.418  -0.418
 -0.409  -0.405  -0.397  -0.377  -0.374  -0.355  -0.347  -0.270
 -0.262  -0.260  -0.221
 -- Virtual --
 -0.050  -0.013  -0.006  -0.003   0.007   0.010   0.017   0.022
  0.029   0.035   0.039   0.042   0.045   0.057   0.057   0.062
  0.071   0.078   0.092   0.093   0.102   0.104   0.105   0.109
  0.121   0.122   0.131   0.131   0.132   0.134   0.136   0.139
  0.148   0.150   0.158   0.163   0.167   0.172   0.176   0.179
  0.187   0.190   0.202   0.206   0.209   0.226   0.227   0.231
  0.236   0.241   0.261   0.268   0.276   0.279   0.282   0.285
  0.312   0.317   0.321   0.340   0.355   0.359   0.376   0.388
  0.435   0.458   0.466   0.516   0.524   0.532   0.535   0.568
  0.581   0.597   0.614   0.628   0.654   0.655   0.672   0.678
  0.699   0.706   0.720   0.726   0.737   0.749   0.763   0.773
  0.782   0.809   0.810   0.832   0.833   0.872   0.916   0.941
  0.947   0.954   0.963   0.964   0.966   0.989   1.000   1.013
  1.019   1.029   1.046   1.068   1.089   1.093   1.100   1.114
  1.150   1.179   1.197   1.214   1.253   1.271   1.318   1.347
  1.349   1.353   1.363   1.386   1.459   1.465   1.487   1.539
  1.554   1.687   1.694   1.750   1.795   1.867   1.871   1.886
  1.921   1.922   1.957   1.986   2.004   2.039   2.087   2.088
  2.121   2.144   2.177   2.184   2.229   2.252   2.257   2.335
  2.367   2.368   2.422   2.442   2.460   2.467   2.495   2.505
  2.526   2.527   2.584   2.586   2.600   2.655   2.694   2.712
  2.745   2.849   2.855   2.902   2.930   3.150   3.192   3.269
  3.271   3.404   3.425   3.721   3.742   3.973   3.976   4.259
  4.305   4.317   4.329   4.421   4.536   4.657   4.711
 --------------------------------------------------------------
 
          Ground-State Mulliken Net Atomic Charges

     Atom                 Charge (a.u.)
  ----------------------------------------
      1 S                     0.012562
      2 C                    -0.034125
      3 H                     0.187756
      4 C                    -0.409548
      5 H                     0.115393
      6 C                     0.251727
      7 H                     0.136229
      8 C                    -0.262574
      9 C                    -0.255578
     10 C                     0.245118
     11 H                     0.136485
     12 C                    -0.405478
     13 H                     0.115364
     14 C                    -0.036527
     15 H                     0.187730
     16 S                     0.015465
  ----------------------------------------
  Sum of atomic charges =     0.000000

 -----------------------------------------------------------------
                    Cartesian Multipole Moments
 -----------------------------------------------------------------
    Charge (ESU x 10^10)
                 0.0000
    Dipole Moment (Debye)
         X       0.1197      Y       0.4708      Z      -0.2032
       Tot       0.5265
    Quadrupole Moments (Debye-Ang)
        XX     -63.6223     XY      -1.9016     YY     -75.6545
        XZ       4.3312     YZ       1.4353     ZZ     -68.0767
    Octopole Moments (Debye-Ang^2)
       XXX     143.5922    XXY      13.5337    XYY      45.8146
       YYY      19.3950    XXZ     117.8657    XYZ      -1.6586
       YYZ     153.2950    XZZ      34.5616    YZZ      -6.9619
       ZZZ     428.9336
    Hexadecapole Moments (Debye-Ang^3)
      XXXX   -1647.9089   XXXY     -47.4240   XXYY    -342.9657
      XYYY     -18.1035   YYYY    -259.1546   XXXZ    -615.2062
      XXYZ     -36.7769   XYYZ    -237.6426   YYYZ    -121.9513
      XXZZ    -626.4632   XYZZ      34.6472   YYZZ    -534.6033
      XZZZ    -622.9833   YZZZ     -41.6626   ZZZZ   -2790.1530
 -----------------------------------------------------------------
 Calculating analytic gradient of the SCF energy
 Gradient of SCF Energy
            1           2           3           4           5           6
    1   0.0000124  -0.0002150   0.0000652   0.0000884  -0.0000015  -0.0000270
    2   0.0000202  -0.0000914   0.0000756  -0.0000198   0.0000305   0.0021372
    3  -0.0000774   0.0000570  -0.0000330   0.0000492   0.0000118  -0.0001011
            7           8           9          10          11          12
    1  -0.0000657   0.0008531  -0.0017138   0.0009260   0.0000564  -0.0001058
    2  -0.0000114  -0.0025800  -0.0008203   0.0013523  -0.0000307  -0.0000273
    3  -0.0000083  -0.0005592   0.0019725  -0.0013823   0.0000212  -0.0000367
           13          14          15          16
    1   0.0000087   0.0001278  -0.0000214   0.0000121
    2  -0.0000010  -0.0001981   0.0000786   0.0000856
    3  -0.0000277   0.0000838  -0.0000345   0.0000646
 Max gradient component =       2.580E-03
 RMS gradient           =       7.154E-04
 Gradient time:  CPU 2.10 s  wall 2.08 s
 Geometry Optimization Parameters
   NAtoms,    NIC,     NZ,  NCons,   NDum,   NFix, NCnnct, MaxDiis
       16     111       0       1       0       0       0       0

 Cartesian Hessian Update
 Hessian Updated using BFGS Update


** CONSTRAINED OPTIMIZATION IN DELOCALIZED INTERNAL COORDINATES **
   Searching for a Minimum

   Optimization Cycle:   5

                       Coordinates (Angstroms)
     ATOM                X               Y               Z
      1  S         0.0070211761    0.0913582752    0.0074922277
      2  C         1.7405312324    0.0765408633    0.0002094020
      3  H         2.2877075011    0.1357978575    0.9312018270
      4  C         2.2392065542   -0.0142093699   -1.2733377618
      5  H         3.2995060032   -0.0357129940   -1.4980700325
      6  C         1.2161661452   -0.0582615471   -2.2659725539
      7  H         1.4057481952   -0.1028781792   -3.3325005686
      8  C        -0.0573733629   -0.0114145653   -1.7418116653
      9  C        -1.3374285713    0.0143455526   -2.4407323194
     10  C        -2.4014878887    0.8719270025   -2.2633323664
     11  H        -2.3965236942    1.6612895203   -1.5200649203
     12  C        -3.4790061314    0.6319771167   -3.1661715978
     13  H        -4.3959658607    1.2100432261   -3.1791312825
     14  C        -3.2262460421   -0.3993615735   -4.0328294413
     15  H        -3.8601401974   -0.7833067257   -4.8205944807
     16  S        -1.6696201086   -1.1069843996   -3.7470432160
   Point Group: c1    Number of degrees of freedom:    42


   Energy is  -1104.839868150

              Constraints and their Current Values
                                        Value     Constraint
   Dihedral:        6   8   9  10     -130.000     -130.000
 Hessian Updated using BFGS Update

 41 Hessian modes will be used to form the next step
  Hessian Eigenvalues:
     0.009644    0.043380    0.045000    0.045000    0.045000    0.045001
     0.045002    0.045005    0.045009    0.045012    0.045032    0.045426
     0.151471    0.159947    0.159991    0.159998    0.160133    0.161604
     0.221285    0.224482    0.237806    0.242390    0.249768    0.250634
     0.290392    0.294556    0.312568    0.313844    0.354736    0.354851
     0.355129    0.355266    0.358266    0.358533    0.390396    0.404888
     0.411602    0.463551    0.473708    0.497950    0.498511

 Minimum Search - Taking Simple RFO Step
 Searching for Lamda that Minimizes Along All modes
 Value Taken    Lamda =  -0.00000154
 Step Taken.  Stepsize is  0.004761

                             Maximum     Tolerance    Cnvgd?
         Gradient           0.000260      0.000300     YES
         Displacement       0.002174      0.001200      NO
         Energy change     -0.000007      0.000001      NO


 New Cartesian Coordinates Obtained by Inverse Iteration

 Displacement from previous Coordinates is:  0.006035
 ----------------------------------------------------------------
             Standard Nuclear Orientation (Angstroms)
    I     Atom           X                Y                Z
 ----------------------------------------------------------------
    1      S       0.0074156867     0.0919301478     0.0078263990
    2      C       1.7410896946     0.0774702451     0.0001098057
    3      H       2.2880198676     0.1362479870     0.9312619243
    4      C       2.2391807599    -0.0140267918    -1.2735543473
    5      H       3.2993842226    -0.0360999564    -1.4987229208
    6      C       1.2159309749    -0.0587366677    -2.2657778469
    7      H       1.4059583628    -0.1039591535    -3.3322027249
    8      C      -0.0577857978    -0.0118113016    -1.7415803957
    9      C      -1.3374134730     0.0139575138    -2.4401141938
   10      C      -2.4017995908     0.8714653260    -2.2629773011
   11      H      -2.3977573785     1.6606811812    -1.5195407651
   12      C      -3.4788585676     0.6322044335    -3.1663465005
   13      H      -4.3959096258     1.2101518847    -3.1788820020
   14      C      -3.2260394200    -0.3985407046    -4.0336172850
   15      H      -3.8597369365    -0.7830754509    -4.8212330826
   16      S      -1.6695838291    -1.1067086326    -3.7473375133
 ----------------------------------------------------------------
 Nuclear Repulsion Energy =   628.3884009973 hartrees
 There are       43 alpha and       43 beta electrons
 Applying Cartesian multipole field
    Component          Value
    ---------          -----
     (2,0,0)        1.00000E-11
     (0,2,0)        2.00000E-11
     (0,0,2)       -3.00000E-11
 Nucleus-field energy     =    -0.0000000453 hartrees
 Requested basis set is 6-31++G(d,p)
 There are 76 shells and 234 basis functions
 A cutoff of  1.0D-12 yielded   2536 shell pairs
 There are     25022 function pairs

 Q-Chem warning in module /project/projectdirs/jcesr/qchem/qc44/cnl_qc441/compile/cori/qc_src/libqints/qchem/aobasis.C, line 68:

 Using reconstructed effective core potential

 Smallest overlap matrix eigenvalue = 1.05E-06
 Guess MOs from SCF MO coefficient file
 Reading MOs from coefficient file
 Reading MOs from coefficient file
 A restricted hybrid HF-DFT SCF calculation will be
 performed using Pulay DIIS extrapolation
 Exchange:     0.2000 Hartree-Fock + 0.0800 Slater + 0.7200 B88
 Correlation:  0.1900 VWN1RPA + 0.8100 LYP
 Using SG-1 standard quadrature grid
 SCF converges when DIIS error is below 1.0E-08
 Geometry optimization detected.  Setting ReadMinima to 0
 Setting SaveMinima to 0
 ---------------------------------------
  Cycle       Energy         DIIS Error
 ---------------------------------------
    1   -1104.8394512881      4.03E-05
    2   -1104.8398689069      4.04E-06
    3   -1104.8398688546      4.94E-06
    4   -1104.8398690240      1.85E-06
    5   -1104.8398690477      4.20E-07
    6   -1104.8398690487      1.97E-07
    7   -1104.8398690511      6.00E-08
    8   -1104.8398690504      2.04E-08
    9   -1104.8398690506      4.24E-09 Convergence criterion met
 ---------------------------------------
 SCF time:  CPU 4.84 s  wall 4.88 s
 SCF   energy in the final basis set = -1104.8398690506
 Total energy in the final basis set = -1104.8398690506
 
 --------------------------------------------------------------
 
                    Orbital Energies (a.u.)
 --------------------------------------------------------------
 
 Alpha MOs
 -- Occupied --
-88.920 -88.920 -10.238 -10.237 -10.225 -10.224 -10.204 -10.204
-10.203 -10.203  -7.979  -7.979  -5.943  -5.943  -5.940  -5.940
 -5.936  -5.936  -0.899  -0.878  -0.770  -0.747  -0.738  -0.705
 -0.602  -0.576  -0.556  -0.534  -0.525  -0.478  -0.418  -0.418
 -0.409  -0.405  -0.397  -0.377  -0.374  -0.355  -0.347  -0.270
 -0.262  -0.260  -0.221
 -- Virtual --
 -0.050  -0.013  -0.006  -0.003   0.007   0.010   0.017   0.022
  0.029   0.035   0.039   0.042   0.045   0.057   0.057   0.062
  0.071   0.078   0.092   0.092   0.102   0.104   0.105   0.109
  0.121   0.122   0.131   0.131   0.132   0.134   0.136   0.139
  0.148   0.150   0.158   0.163   0.167   0.172   0.176   0.179
  0.187   0.190   0.202   0.206   0.209   0.226   0.227   0.231
  0.236   0.241   0.261   0.268   0.276   0.279   0.282   0.285
  0.312   0.317   0.321   0.340   0.355   0.359   0.376   0.388
  0.435   0.457   0.466   0.516   0.524   0.532   0.535   0.568
  0.581   0.597   0.615   0.627   0.654   0.655   0.672   0.678
  0.699   0.706   0.720   0.726   0.737   0.749   0.763   0.773
  0.782   0.809   0.810   0.832   0.833   0.872   0.916   0.941
  0.947   0.954   0.963   0.964   0.966   0.989   1.000   1.013
  1.019   1.029   1.046   1.068   1.089   1.093   1.100   1.114
  1.150   1.179   1.197   1.214   1.253   1.271   1.318   1.347
  1.349   1.353   1.363   1.386   1.459   1.465   1.487   1.539
  1.554   1.687   1.694   1.750   1.796   1.867   1.871   1.886
  1.920   1.922   1.957   1.986   2.004   2.039   2.087   2.088
  2.121   2.144   2.177   2.184   2.228   2.251   2.257   2.335
  2.367   2.368   2.422   2.442   2.460   2.467   2.495   2.505
  2.526   2.527   2.584   2.586   2.600   2.655   2.695   2.711
  2.745   2.849   2.855   2.902   2.930   3.150   3.192   3.269
  3.271   3.404   3.425   3.721   3.742   3.973   3.976   4.259
  4.305   4.316   4.329   4.421   4.536   4.657   4.711
 --------------------------------------------------------------
 
          Ground-State Mulliken Net Atomic Charges

     Atom                 Charge (a.u.)
  ----------------------------------------
      1 S                     0.012526
      2 C                    -0.034118
      3 H                     0.187805
      4 C                    -0.409204
      5 H                     0.115401
      6 C                     0.250674
      7 H                     0.136178
      8 C                    -0.261504
      9 C                    -0.255329
     10 C                     0.244546
     11 H                     0.136434
     12 C                    -0.405372
     13 H                     0.115361
     14 C                    -0.036455
     15 H                     0.187780
     16 S                     0.015279
  ----------------------------------------
  Sum of atomic charges =     0.000000

 -----------------------------------------------------------------
                    Cartesian Multipole Moments
 -----------------------------------------------------------------
    Charge (ESU x 10^10)
                 0.0000
    Dipole Moment (Debye)
         X       0.1194      Y       0.4694      Z      -0.2027
       Tot       0.5250
    Quadrupole Moments (Debye-Ang)
        XX     -63.6137     XY      -1.9041     YY     -75.6573
        XZ       4.3327     YZ       1.4385     ZZ     -68.0808
    Octopole Moments (Debye-Ang^2)
       XXX     143.5528    XXY      13.5100    XYY      45.8132
       YYY      19.3531    XXZ     117.8516    XYZ      -1.6596
       YYZ     153.3020    XZZ      34.5562    YZZ      -6.9856
       ZZZ     428.9498
    Hexadecapole Moments (Debye-Ang^3)
      XXXX   -1647.8145   XXXY     -47.4060   XXYY    -342.9509
      XYYY     -18.0722   YYYY    -259.0978   XXXZ    -615.2134
      XXYZ     -36.7282   XYYZ    -237.6708   YYYZ    -121.9467
      XXZZ    -626.4571   XYZZ      34.6849   YYZZ    -534.6617
      XZZZ    -622.9777   YZZZ     -41.5855   ZZZZ   -2790.4617
 -----------------------------------------------------------------
 Calculating analytic gradient of the SCF energy
 Gradient of SCF Energy
            1           2           3           4           5           6
    1   0.0000138  -0.0000338   0.0000228   0.0000131   0.0000001   0.0000673
    2   0.0000112  -0.0000397   0.0000447   0.0000026   0.0000141   0.0021435
    3  -0.0000460   0.0000307  -0.0000118   0.0000156   0.0000117  -0.0000589
            7           8           9          10          11          12
    1  -0.0000067   0.0003790  -0.0012548   0.0008185  -0.0000019  -0.0000125
    2  -0.0000164  -0.0025965  -0.0008643   0.0013489  -0.0000165  -0.0000144
    3   0.0000060  -0.0007503   0.0022187  -0.0014384   0.0000031  -0.0000097
           13          14          15          16
    1   0.0000001  -0.0000033   0.0000002  -0.0000018
    2  -0.0000099  -0.0000751   0.0000274   0.0000406
    3  -0.0000170   0.0000237  -0.0000187   0.0000412
 Max gradient component =       2.597E-03
 RMS gradient           =       7.053E-04
 Gradient time:  CPU 2.15 s  wall 2.10 s
 Geometry Optimization Parameters
   NAtoms,    NIC,     NZ,  NCons,   NDum,   NFix, NCnnct, MaxDiis
       16     111       0       1       0       0       0       0

 Cartesian Hessian Update
 Hessian Updated using BFGS Update


** CONSTRAINED OPTIMIZATION IN DELOCALIZED INTERNAL COORDINATES **
   Searching for a Minimum

   Optimization Cycle:   6

                       Coordinates (Angstroms)
     ATOM                X               Y               Z
      1  S         0.0074156867    0.0919301478    0.0078263990
      2  C         1.7410896946    0.0774702451    0.0001098057
      3  H         2.2880198676    0.1362479870    0.9312619243
      4  C         2.2391807599   -0.0140267918   -1.2735543473
      5  H         3.2993842226   -0.0360999564   -1.4987229208
      6  C         1.2159309749   -0.0587366677   -2.2657778469
      7  H         1.4059583628   -0.1039591535   -3.3322027249
      8  C        -0.0577857978   -0.0118113016   -1.7415803957
      9  C        -1.3374134730    0.0139575138   -2.4401141938
     10  C        -2.4017995908    0.8714653260   -2.2629773011
     11  H        -2.3977573785    1.6606811812   -1.5195407651
     12  C        -3.4788585676    0.6322044335   -3.1663465005
     13  H        -4.3959096258    1.2101518847   -3.1788820020
     14  C        -3.2260394200   -0.3985407046   -4.0336172850
     15  H        -3.8597369365   -0.7830754509   -4.8212330826
     16  S        -1.6695838291   -1.1067086326   -3.7473375133
   Point Group: c1    Number of degrees of freedom:    42


   Energy is  -1104.839869051

              Constraints and their Current Values
                                        Value     Constraint
   Dihedral:        6   8   9  10     -130.000     -130.000
 Hessian Updated using BFGS Update

 41 Hessian modes will be used to form the next step
  Hessian Eigenvalues:
     0.010010    0.034810    0.045000    0.045000    0.045000    0.045001
     0.045002    0.045005    0.045009    0.045013    0.045084    0.045507
     0.141472    0.159947    0.159991    0.159999    0.160162    0.162431
     0.221283    0.223921    0.237805    0.246952    0.249785    0.259467
     0.283211    0.294569    0.312568    0.313617    0.354737    0.354858
     0.355129    0.355254    0.358266    0.358589    0.391875    0.404889
     0.410221    0.463521    0.487141    0.497959    0.499641

 Minimum Search - Taking Simple RFO Step
 Searching for Lamda that Minimizes Along All modes
 Value Taken    Lamda =   0.00000000
 Step Taken.  Stepsize is  0.002022

                             Maximum     Tolerance    Cnvgd?
         Gradient           0.000058      0.000300     YES
         Displacement       0.000875      0.001200     YES
         Energy change     -0.000001      0.000001     YES

 Final energy is   -1104.83986905063     


 ******************************
 **  OPTIMIZATION CONVERGED  **
 ******************************

                       Coordinates (Angstroms)
     ATOM                X               Y               Z
      1  S         0.0074156867    0.0919301478    0.0078263990
      2  C         1.7410896946    0.0774702451    0.0001098057
      3  H         2.2880198676    0.1362479870    0.9312619243
      4  C         2.2391807599   -0.0140267918   -1.2735543473
      5  H         3.2993842226   -0.0360999564   -1.4987229208
      6  C         1.2159309749   -0.0587366677   -2.2657778469
      7  H         1.4059583628   -0.1039591535   -3.3322027249
      8  C        -0.0577857978   -0.0118113016   -1.7415803957
      9  C        -1.3374134730    0.0139575138   -2.4401141938
     10  C        -2.4017995908    0.8714653260   -2.2629773011
     11  H        -2.3977573785    1.6606811812   -1.5195407651
     12  C        -3.4788585676    0.6322044335   -3.1663465005
     13  H        -4.3959096258    1.2101518847   -3.1788820020
     14  C        -3.2260394200   -0.3985407046   -4.0336172850
     15  H        -3.8597369365   -0.7830754509   -4.8212330826
     16  S        -1.6695838291   -1.1067086326   -3.7473375133

Z-matrix Print:
$molecule
0 1
S 
C  1 1.733751
H  2 1.081495 1 120.093247
C  2 1.370652 1 111.596858 3 179.951517 0
H  4 1.084075 2 123.350721 1 179.879220 0
C  4 1.426025 2 112.823760 1 0.662324 0
H  6 1.084167 4 124.052265 2 178.274216 0
C  6 1.378165 4 113.418982 2 -0.490552 0
C  8 1.458102 6 129.011019 4 177.472038 0
C  9 1.378265 8 128.841129 6 -130.000000 0
H  10 1.084240 9 122.555567 8 -1.091715 0
C  10 1.425966 9 113.421617 8 177.641574 0
H  12 1.084049 10 123.837064 9 -179.674437 0
C  12 1.370588 10 112.813253 9 -0.483983 0
H  14 1.081563 12 128.323466 10 -179.383552 0
S  14 1.733785 12 111.609956 10 0.632637 0
$end

 
 --------------------------------------------------------------
 
                    Orbital Energies (a.u.)
 --------------------------------------------------------------
 
 Alpha MOs
 -- Occupied --
-88.920 -88.920 -10.238 -10.237 -10.225 -10.224 -10.204 -10.204
-10.203 -10.203  -7.979  -7.979  -5.943  -5.943  -5.940  -5.940
 -5.936  -5.936  -0.899  -0.878  -0.770  -0.747  -0.738  -0.705
 -0.602  -0.576  -0.556  -0.534  -0.525  -0.478  -0.418  -0.418
 -0.409  -0.405  -0.397  -0.377  -0.374  -0.355  -0.347  -0.270
 -0.262  -0.260  -0.221
 -- Virtual --
 -0.050  -0.013  -0.006  -0.003   0.007   0.010   0.017   0.022
  0.029   0.035   0.039   0.042   0.045   0.057   0.057   0.062
  0.071   0.078   0.092   0.092   0.102   0.104   0.105   0.109
  0.121   0.122   0.131   0.131   0.132   0.134   0.136   0.139
  0.148   0.150   0.158   0.163   0.167   0.172   0.176   0.179
  0.187   0.190   0.202   0.206   0.209   0.226   0.227   0.231
  0.236   0.241   0.261   0.268   0.276   0.279   0.282   0.285
  0.312   0.317   0.321   0.340   0.355   0.359   0.376   0.388
  0.435   0.457   0.466   0.516   0.524   0.532   0.535   0.568
  0.581   0.597   0.615   0.627   0.654   0.655   0.672   0.678
  0.699   0.706   0.720   0.726   0.737   0.749   0.763   0.773
  0.782   0.809   0.810   0.832   0.833   0.872   0.916   0.941
  0.947   0.954   0.963   0.964   0.966   0.989   1.000   1.013
  1.019   1.029   1.046   1.068   1.089   1.093   1.100   1.114
  1.150   1.179   1.197   1.214   1.253   1.271   1.318   1.347
  1.349   1.353   1.363   1.386   1.459   1.465   1.487   1.539
  1.554   1.687   1.694   1.750   1.796   1.867   1.871   1.886
  1.920   1.922   1.957   1.986   2.004   2.039   2.087   2.088
  2.121   2.144   2.177   2.184   2.228   2.251   2.257   2.335
  2.367   2.368   2.422   2.442   2.460   2.467   2.495   2.505
  2.526   2.527   2.584   2.586   2.600   2.655   2.695   2.711
  2.745   2.849   2.855   2.902   2.930   3.150   3.192   3.269
  3.271   3.404   3.425   3.721   3.742   3.973   3.976   4.259
  4.305   4.316   4.329   4.421   4.536   4.657   4.711
 --------------------------------------------------------------
 
          Ground-State Mulliken Net Atomic Charges

     Atom                 Charge (a.u.)
  ----------------------------------------
      1 S                     0.012526
      2 C                    -0.034118
      3 H                     0.187805
      4 C                    -0.409204
      5 H                     0.115401
      6 C                     0.250674
      7 H                     0.136178
      8 C                    -0.261504
      9 C                    -0.255329
     10 C                     0.244546
     11 H                     0.136434
     12 C                    -0.405372
     13 H                     0.115361
     14 C                    -0.036455
     15 H                     0.187780
     16 S                     0.015279
  ----------------------------------------
  Sum of atomic charges =     0.000000

 -----------------------------------------------------------------
                    Cartesian Multipole Moments
 -----------------------------------------------------------------
    Charge (ESU x 10^10)
                 0.0000
    Dipole Moment (Debye)
         X       0.1194      Y       0.4694      Z      -0.2027
       Tot       0.5250
    Quadrupole Moments (Debye-Ang)
        XX     -63.6137     XY      -1.9041     YY     -75.6573
        XZ       4.3327     YZ       1.4385     ZZ     -68.0808
    Octopole Moments (Debye-Ang^2)
       XXX     143.5528    XXY      13.5100    XYY      45.8132
       YYY      19.3531    XXZ     117.8516    XYZ      -1.6596
       YYZ     153.3020    XZZ      34.5562    YZZ      -6.9856
       ZZZ     428.9498
    Hexadecapole Moments (Debye-Ang^3)
      XXXX   -1647.8145   XXXY     -47.4060   XXYY    -342.9509
      XYYY     -18.0722   YYYY    -259.0978   XXXZ    -615.2134
      XXYZ     -36.7282   XYYZ    -237.6708   YYYZ    -121.9467
      XXZZ    -626.4571   XYZZ      34.6849   YYZZ    -534.6617
      XZZZ    -622.9777   YZZZ     -41.5855   ZZZZ   -2790.4617
 -----------------------------------------------------------------
Archival summary:
1\1\nid00498\OPT\ProcedureUnspecified\BasisUnspecified\286\bwood\WedMay3102:25:312017WedMay3102:25:312017\0\\#,OPT,ProcedureUnspecified,BasisUnspecified,\\0,1\S\C,1,1.73375\H,2,1.0815,1,120.093\C,2,1.37065,1,111.597,3,179.952,0\H,4,1.08408,2,123.351,1,179.879,0\C,4,1.42602,2,112.824,1,0.662324,0\H,6,1.08417,4,124.052,2,178.274,0\C,6,1.37817,4,113.419,2,-0.490552,0\C,8,1.4581,6,129.011,4,177.472,0\C,9,1.37827,8,128.841,6,-130,0\H,10,1.08424,9,122.556,8,-1.09171,0\C,10,1.42597,9,113.422,8,177.642,0\H,12,1.08405,10,123.837,9,-179.674,0\C,12,1.37059,10,112.813,9,-0.483983,0\H,14,1.08156,12,128.323,10,-179.384,0\S,14,1.73379,12,111.61,10,0.632637,0\\\@

 Total job time:  50.79s(wall), 50.72s(cpu) 
 Wed May 31 02:25:31 2017

        *************************************************************
        *                                                           *
        *  Thank you very much for using Q-Chem.  Have a nice day.  *
        *                                                           *
        *************************************************************


0 sent ACK to 0 
now end server 0 ... 
