srun -N 1 --ntasks-per-node 16 --cpus-per-task 4 --cpu_bind=cores --nodelist nid00480 /global/project/projectdirs/jcesr/qchem/qc44/cnl_qc441/dist/exe/qcprog.cori.haswell.exe .pt_n2_neutral_-50.0.in.48105.qcin.1 /global/cscratch1/sd/bwood/qchem/nx/qchem48105/
Process 0 of 16 is on nid00480 - thread support 0
Process 1 of 16 is on nid00480 - thread support 0
Process 2 of 16 is on nid00480 - thread support 0
Process 3 of 16 is on nid00480 - thread support 0
Process 4 of 16 is on nid00480 - thread support 0
Process 5 of 16 is on nid00480 - thread support 0
Process 6 of 16 is on nid00480 - thread support 0
initial socket setup ...start
Process 15 of 16 is on nid00480 - thread support 0
initial socket setup ...done 
now start server 0 ... 
nid00480 10.128.1
Q-Chem Developer Version! Running on 10.128.1.*
                  Welcome to Q-Chem
     A Quantum Leap Into The Future Of Chemistry


 Q-Chem 4.4, Q-Chem, Inc., Pleasanton, CA (2016)

 Y. Shao,  Z. Gan,  E. Epifanovsky,  A. T. B. Gilbert,  M. Wormit,  
 J. Kussmann,  A. W. Lange,  A. Behn,  J. Deng,  X. Feng,  D. Ghosh,  
 M. Goldey,  P. R. Horn,  L. D. Jacobson,  I. Kaliman,  F. Rob,  
 R. Z. Khaliullin,  T. Kus,  A. Landau,  J. Liu,  E. I. Proynov,  Y. M. Rhee,  
 R. M. Richard,  M. A. Rohrdanz,  R. P. Steele,  E. J. Sundstrom,  
 H. L. Woodcock III,  P. M. Zimmerman,  D. Zuev,  B. Albrecht,  E. Alguire,  
 B. Austin,  S. A. Baeppler,  G. J. O. Beran,  Y. A. Bernard,  
 E. J. Berquist,  K. Brandhorst,  K. B. Bravaya,  S. T. Brown,  D. Casanova,  
 C.-M. Chang,  Y. Chen,  S. H. Chien,  K. D. Closser,  M. P. Coons,  
 D. L. Crittenden,  S. Dasgupta,  M. Diedenhofen,  R. A. DiStasio Jr.,  
 H. Do,  A. D. Dutoi,  R. G. Edgar,  P.-T. Fang,  S. Fatehi,  Q. Feng,  
 L. Fusti-Molnar,  A. Ghysels,  A. Golubeva-Zadorozhnaya,  J. Gomes,  
 A. Gunina,  M. W. D. Hanson-Heine,  P. H. P. Harbach,  A. W. Hauser,  
 J. E. Herr,  E. G. Hohenstein,  Z. C. Holden,  K. Hui,  T.-C. Jagau,  H. Ji,  
 B. Kaduk,  K. Khistyaev,  Jaehoon Kim,  Jihan Kim,  R. A. King,  
 P. Klunzinger,  K. Koh,  D. Kosenkov,  T. Kowalczyk,  C. M. Krauter,  
 A. Kunitsa,  K. U. Lao,  A. Laurent,  K. V. Lawler,  J. Lee,  D. Lefrancois,  
 S. Lehtola,  S. V. Levchenko,  C. Y. Lin,  Y.-S. Lin,  F. Liu,  E. Livshits,  
 R. C. Lochan,  A. Luenser,  P. Manohar,  S. F. Manzer,  S.-P. Mao,  Y. Mao,  
 N. Mardirossian,  A. V. Marenich,  L. A. Martinez-Martinez,  S. A. Maurer,  
 N. J. Mayhall,  J.-M. Mewes,  A. F. Morrison,  K. Nanda,  T. S. Nguyen-Beck,  
 C. M. Oana,  R. Olivares-Amaya,  D. P. O'Neill,  J. A. Parkhill,  
 T. M. Perrine,  R. Peverati,  P. A. Pieniazek,  F. Plasser,  A. Prociuk,  
 D. R. Rehn,  E. Rosta,  N. J. Russ,  N. Sergueev,  S. M. Sharada,  
 S. Sharma,  D. W. Small,  A. Sodt,  T. Stauch,  T. Stein,  D. Stuck,  
 Y.-C. Su,  A. J. W. Thom,  T. Tsuchimochi,  L. Vogt,  O. Vydrov,  T. Wang,  
 M. A. Watson,  J. Wenzel,  A. White,  C. F. Williams,  V. Vanovschi,  
 K. Yao,  S. Yeganeh,  S. R. Yost,  Z.-Q. You,  I. Y. Zhang,  X. Zhang,  
 Y. Zhao,  B. R. Brooks,  G. K. L. Chan,  D. M. Chipman,  C. J. Cramer,  
 W. A. Goddard III,  M. S. Gordon,  W. J. Hehre,  A. Klamt,  
 H. F. Schaefer III,  M. W. Schmidt,  C. D. Sherrill,  D. G. Truhlar,  
 A. Warshel,  X. Xu,  A. Aspuru-Guzik,  R. Baer,  A. T. Bell,  N. A. Besley,  
 J.-D. Chai,  A. Dreuw,  B. D. Dunietz,  T. R. Furlani,  S. R. Gwaltney,  
 C.-P. Hsu,  Y. Jung,  J. Kong,  D. S. Lambrecht,  W. Liang,  C. Ochsenfeld,  
 V. A. Rassolov,  L. V. Slipchenko,  J. E. Subotnik,  T. Van Voorhis,  
 J. M. Herbert,  A. I. Krylov,  P. M. W. Gill,  M. Head-Gordon

 Contributors to earlier versions of Q-Chem not listed above: 
 R. D. Adamson,  J. Baker,  E. F. C. Byrd,  A. K. Chakraborty,  C.-L. Cheng,  
 H. Dachsel,  R. J. Doerksen,  G. Hawkins,  A. Heyden,  S. Hirata,  
 G. Kedziora,  F. J. Keil,  C. Kelley,  P. P. Korambath,  W. Kurlancheek,  
 A. M. Lee,  M. S. Lee,  D. Liotard,  I. Lotan,  P. E. Maslen,  N. Nair,  
 D. Neuhauser,  R. Olson,  B. Peters,  J. Ritchie,  N. E. Schultz,  
 N. Shenvi,  A. C. Simmonett,  K. S. Thanthiriwatte,  Q. Wu,  W. Zhang

 Please cite Q-Chem as follows:
 Y. Shao et al., Mol. Phys. 113, 184-215 (2015)
 DOI: 10.1080/00268976.2014.952696

 Q-Chem 4.4.2 for Intel X86 EM64T Linux

 Parts of Q-Chem use Armadillo 5.200.1 (Boston Tea Smuggler).
 http://arma.sourceforge.net/

 Q-Chem begins on Wed May 31 02:24:46 2017  

Host: nid00447
0

     Scratch files written to /global/cscratch1/sd/bwood/qchem/nx/qchem48105.0//
 Parallel job on  16  processors

Checking the input file for inconsistencies... 	...done.

--------------------------------------------------------------
User input:
--------------------------------------------------------------
$molecule
 0  1
 S           0.00238887        0.06077275        0.00183269
 C           1.73707619        0.03315849        0.00323229
 H           2.27612737        0.05289032        0.94042557
 C           2.24169204       -0.01546201       -1.26965798
 H           3.30285780       -0.04005365       -1.48972496
 C           1.22479222       -0.01612968       -2.26811464
 H           1.42674790       -0.02650987       -3.33334501
 C          -0.05393771        0.02880388       -1.75170966
 C          -1.32450815        0.04889988       -2.45636342
 C          -1.72755017        0.86087436       -3.49669654
 H          -1.08301156        1.61310294       -3.93776367
 C          -3.05130122        0.58992669       -3.94963721
 H          -3.53132316        1.12236427       -4.76276929
 C          -3.65283645       -0.42706936       -3.25608938
 H          -4.64213537       -0.84172984       -3.39329577
 S          -2.61258461       -1.06107750       -2.02100029
$end


$rem
         jobtype = opt
        exchange = b3lyp
           basis = 6-31++g**
  max_scf_cycles = 150
      mem_static = 775
       mem_total = 7750
      sym_ignore = true
        symmetry = false
          thresh = 12
$end


$opt
CONSTRAINT
tors 6 8 9 10 -50.0
ENDCONSTRAINT
$end

--------------------------------------------------------------
 ----------------------------------------------------------------
             Standard Nuclear Orientation (Angstroms)
    I     Atom           X                Y                Z
 ----------------------------------------------------------------
    1      S       0.0023888700     0.0607727500     0.0018326900
    2      C       1.7370761900     0.0331584900     0.0032322900
    3      H       2.2761273700     0.0528903200     0.9404255700
    4      C       2.2416920400    -0.0154620100    -1.2696579800
    5      H       3.3028578000    -0.0400536500    -1.4897249600
    6      C       1.2247922200    -0.0161296800    -2.2681146400
    7      H       1.4267479000    -0.0265098700    -3.3333450100
    8      C      -0.0539377100     0.0288038800    -1.7517096600
    9      C      -1.3245081500     0.0488998800    -2.4563634200
   10      C      -1.7275501700     0.8608743600    -3.4966965400
   11      H      -1.0830115600     1.6131029400    -3.9377636700
   12      C      -3.0513012200     0.5899266900    -3.9496372100
   13      H      -3.5313231600     1.1223642700    -4.7627692900
   14      C      -3.6528364500    -0.4270693600    -3.2560893800
   15      H      -4.6421353700    -0.8417298400    -3.3932957700
   16      S      -2.6125846100    -1.0610775000    -2.0210002900
 ----------------------------------------------------------------
 Nuclear Repulsion Energy =   630.8784151182 hartrees
 There are       43 alpha and       43 beta electrons
 Requested basis set is 6-31++G(d,p)
 There are 76 shells and 234 basis functions

 Total QAlloc Memory Limit   7750 MB
 Mega-Array Size       758 MB
 MEM_STATIC part       775 MB
 A cutoff of  1.0D-12 yielded   2525 shell pairs
 There are     24869 function pairs

 Q-Chem warning in module /project/projectdirs/jcesr/qchem/qc44/cnl_qc441/compile/cori/qc_src/libqints/qchem/aobasis.C, line 68:

 Using reconstructed effective core potential

 
 -------------------------------------------------------
 OpenMP Integral Computing Module                       
 Release: version 1.0, May 2013, Q-Chem Inc. Pittsburgh 
 -------------------------------------------------------
 Integral Job Info:
 Integral job number is                      11
 Integral operator is                         1
 short-range coefficients                     0
 long-range coefficients              100000000
 Omega coefficients                           0
 if combine SR and LR in K                    0
 Integral screening is                        0
 Integral computing path is                   2
 max size of driver memory is            800000
 size of driver memory is                593474
 size of scratch memory is             15166112
 max col of scratch BK array               1296
 max len of scratch array in speh3          155
 max len of scratch index in speh4           18
 max int batch size is                      520
 min int batch size is                       52
 fixed nKL is                                52
 max L of basis functions is                  2
 order of int derivative is                   0
 number of shells is                         76
 number of basis is                         234
 number of cartesian basis is               234
 number of contracted shell pairs          2525
 number of primitive shell pairs           8231
 maxK2 (contraction) of shell pair           36
 max number of K2 of shell pair               1
 max number of CS2 of shell pair            260
 max number of PS2 of shell pair           1500
 mem total for path MDJ                   51992
 -------------------------------------------------------
 Smallest overlap matrix eigenvalue = 1.09E-06

 Scale SEOQF with 1.000000e-01/1.000000e-01/1.000000e-01

 Standard Electronic Orientation quadrupole field applied
 Nucleus-field energy     =    -0.0000000329 hartrees
 Guess from superposition of atomic densities
 Warning:  Energy on first SCF cycle will be non-variational
 A restricted hybrid HF-DFT SCF calculation will be
 performed using Pulay DIIS extrapolation
 Exchange:     0.2000 Hartree-Fock + 0.0800 Slater + 0.7200 B88
 Correlation:  0.1900 VWN1RPA + 0.8100 LYP
 Using SG-1 standard quadrature grid
 SCF converges when DIIS error is below 1.0E-08
 ---------------------------------------
  Cycle       Energy         DIIS Error
 ---------------------------------------
    1   -1107.1958178004      4.41E-02
    2   -1104.6597345778      4.84E-03
    3   -1104.3561153306      7.73E-03
    4   -1104.8264279691      1.22E-03
    5   -1104.8362714956      5.90E-04
    6   -1104.8383133993      2.53E-04
    7   -1104.8387724744      9.07E-05
    8   -1104.8388312925      1.72E-05
    9   -1104.8388334706      2.01E-06
   10   -1104.8388335020      7.53E-07
   11   -1104.8388335069      4.22E-07
   12   -1104.8388335066      9.00E-08
   13   -1104.8388335070      3.67E-08
   14   -1104.8388335066      8.29E-09 Convergence criterion met
 ---------------------------------------
 SCF time:  CPU 7.77 s  wall 7.31 s
 SCF   energy in the final basis set = -1104.8388335066
 Total energy in the final basis set = -1104.8388335066
 
 --------------------------------------------------------------
 
                    Orbital Energies (a.u.)
 --------------------------------------------------------------
 
 Alpha MOs
 -- Occupied --
-88.919 -88.919 -10.237 -10.237 -10.225 -10.225 -10.204 -10.204
-10.204 -10.204  -7.979  -7.979  -5.943  -5.943  -5.939  -5.939
 -5.936  -5.936  -0.899  -0.877  -0.770  -0.746  -0.738  -0.705
 -0.603  -0.575  -0.558  -0.534  -0.525  -0.477  -0.419  -0.416
 -0.411  -0.405  -0.397  -0.375  -0.374  -0.355  -0.347  -0.268
 -0.262  -0.260  -0.221
 -- Virtual --
 -0.048  -0.019  -0.006  -0.001   0.005   0.016   0.017   0.026
  0.029   0.034   0.037   0.044   0.046   0.050   0.058   0.067
  0.071   0.075   0.092   0.096   0.101   0.103   0.106   0.114
  0.115   0.121   0.123   0.132   0.134   0.135   0.140   0.145
  0.147   0.153   0.154   0.161   0.169   0.174   0.175   0.183
  0.185   0.190   0.196   0.202   0.210   0.220   0.227   0.231
  0.239   0.245   0.263   0.263   0.271   0.275   0.299   0.310
  0.313   0.314   0.319   0.331   0.355   0.365   0.372   0.395
  0.434   0.455   0.470   0.503   0.524   0.529   0.552   0.567
  0.568   0.604   0.615   0.632   0.655   0.657   0.671   0.676
  0.699   0.706   0.722   0.727   0.739   0.748   0.749   0.754
  0.789   0.797   0.813   0.827   0.846   0.892   0.905   0.947
  0.950   0.954   0.955   0.968   0.970   0.992   0.994   1.012
  1.016   1.043   1.057   1.065   1.082   1.092   1.101   1.110
  1.127   1.178   1.195   1.223   1.238   1.276   1.333   1.343
  1.352   1.358   1.360   1.389   1.436   1.468   1.502   1.544
  1.584   1.688   1.693   1.765   1.791   1.874   1.889   1.891
  1.909   1.927   1.929   1.967   2.015   2.028   2.067   2.071
  2.138   2.158   2.178   2.213   2.227   2.244   2.257   2.303
  2.365   2.368   2.434   2.448   2.461   2.468   2.493   2.509
  2.516   2.543   2.582   2.590   2.604   2.655   2.695   2.711
  2.769   2.789   2.867   2.897   2.953   3.147   3.197   3.271
  3.272   3.404   3.426   3.717   3.746   3.954   3.992   4.265
  4.312   4.320   4.331   4.418   4.538   4.656   4.720
 --------------------------------------------------------------
 
          Ground-State Mulliken Net Atomic Charges

     Atom                 Charge (a.u.)
  ----------------------------------------
      1 S                    -0.007915
      2 C                    -0.048389
      3 H                     0.188193
      4 C                    -0.409646
      5 H                     0.116098
      6 C                     0.294793
      7 H                     0.142091
      8 C                    -0.275871
      9 C                    -0.277413
     10 C                     0.297565
     11 H                     0.142026
     12 C                    -0.409102
     13 H                     0.116112
     14 C                    -0.049150
     15 H                     0.188219
     16 S                    -0.007612
  ----------------------------------------
  Sum of atomic charges =     0.000000

 -----------------------------------------------------------------
                    Cartesian Multipole Moments
 -----------------------------------------------------------------
    Charge (ESU x 10^10)
                 0.0000
    Dipole Moment (Debye)
         X       0.4321      Y       0.3774      Z      -0.7694
       Tot       0.9597
    Quadrupole Moments (Debye-Ang)
        XX     -63.9481     XY       0.9320     YY     -75.8662
        XZ       3.9712     YZ      -3.0461     ZZ     -65.4565
    Octopole Moments (Debye-Ang^2)
       XXX     159.7944    XXY      -3.8979    XYY      55.7309
       YYY      18.7917    XXZ     105.9081    XYZ       2.1382
       YYZ     136.5155    XZZ      46.6730    YZZ      24.1528
       ZZZ     380.6723
    Hexadecapole Moments (Debye-Ang^3)
      XXXX   -1798.3748   XXXY     -19.7481   XXYY    -383.2722
      XYYY     -74.1857   YYYY    -249.1286   XXXZ    -577.1499
      XXYZ      14.9120   XYYZ    -229.0088   YYYZ      -9.4958
      XXZZ    -607.1920   XYZZ     -54.2479   YYZZ    -434.4647
      XZZZ    -636.7734   YZZZ     -95.2054   ZZZZ   -2300.5899
 -----------------------------------------------------------------
 Calculating analytic gradient of the SCF energy
 Gradient of SCF Energy
            1           2           3           4           5           6
    1  -0.0016238   0.0009848  -0.0002108  -0.0003308  -0.0000616   0.0016661
    2  -0.0008115   0.0015660   0.0007293  -0.0022875   0.0001285  -0.0031954
    3  -0.0005491  -0.0005340  -0.0000073  -0.0004853   0.0000188   0.0009781
            7           8           9          10          11          12
    1   0.0007683  -0.0045359   0.0044724  -0.0029332   0.0001317  -0.0001092
    2   0.0018429   0.0014923  -0.0016984   0.0022286  -0.0009445   0.0017814
    3   0.0000504  -0.0016042   0.0019101   0.0012317  -0.0018064   0.0014313
           13          14          15          16
    1   0.0000581   0.0003540   0.0003682   0.0010017
    2  -0.0001858  -0.0003740  -0.0005622   0.0002903
    3   0.0000194  -0.0018780  -0.0003333   0.0015578
 Max gradient component =       4.536E-03
 RMS gradient           =       1.553E-03
 Gradient time:  CPU 2.11 s  wall 2.11 s
 Geometry Optimization Parameters
   NAtoms,    NIC,     NZ,  NCons,   NDum,   NFix, NCnnct, MaxDiis
       16     111       0       1       0       0       0       0


** CONSTRAINED OPTIMIZATION IN DELOCALIZED INTERNAL COORDINATES **
   Searching for a Minimum

   Optimization Cycle:   1

                       Coordinates (Angstroms)
     ATOM                X               Y               Z
      1  S         0.0023888700    0.0607727500    0.0018326900
      2  C         1.7370761900    0.0331584900    0.0032322900
      3  H         2.2761273700    0.0528903200    0.9404255700
      4  C         2.2416920400   -0.0154620100   -1.2696579800
      5  H         3.3028578000   -0.0400536500   -1.4897249600
      6  C         1.2247922200   -0.0161296800   -2.2681146400
      7  H         1.4267479000   -0.0265098700   -3.3333450100
      8  C        -0.0539377100    0.0288038800   -1.7517096600
      9  C        -1.3245081500    0.0488998800   -2.4563634200
     10  C        -1.7275501700    0.8608743600   -3.4966965400
     11  H        -1.0830115600    1.6131029400   -3.9377636700
     12  C        -3.0513012200    0.5899266900   -3.9496372100
     13  H        -3.5313231600    1.1223642700   -4.7627692900
     14  C        -3.6528364500   -0.4270693600   -3.2560893800
     15  H        -4.6421353700   -0.8417298400   -3.3932957700
     16  S        -2.6125846100   -1.0610775000   -2.0210002900
   Point Group: c1    Number of degrees of freedom:    42


   Energy is  -1104.838833507

              Constraints and their Current Values
                                        Value     Constraint
   Dihedral:        6   8   9  10      -50.000      -50.000

 Attempting to Generate Delocalized Internal Coordinates

 41 Hessian modes will be used to form the next step
  Hessian Eigenvalues:
     0.045000    0.045000    0.045000    0.045000    0.045000    0.045000
     0.045002    0.045002    0.045003    0.045004    0.045011    0.045012
     0.159943    0.159949    0.159991    0.159992    0.160000    0.160000
     0.221282    0.221282    0.237835    0.237839    0.250000    0.250000
     0.294264    0.294663    0.312518    0.312618    0.354736    0.354850
     0.355125    0.355132    0.358226    0.358329    0.378510    0.404854
     0.404909    0.463547    0.463616    0.497922    0.497945

 Minimum Search - Taking Simple RFO Step
 Searching for Lamda that Minimizes Along All modes
 Value Taken    Lamda =  -0.00055880
 Step Taken.  Stepsize is  0.090241

                             Maximum     Tolerance    Cnvgd?
         Gradient           0.005238      0.000300      NO
         Displacement       0.071719      0.001200      NO
         Energy change     *********      0.000001      NO


 New Cartesian Coordinates Obtained by Inverse Iteration

 Displacement from previous Coordinates is:  0.136057
 ----------------------------------------------------------------
             Standard Nuclear Orientation (Angstroms)
    I     Atom           X                Y                Z
 ----------------------------------------------------------------
    1      S       0.0116067700     0.0675250608     0.0146182449
    2      C       1.7449485146     0.0314918264     0.0041970932
    3      H       2.2917914686     0.0370215929     0.9372274192
    4      C       2.2402943493     0.0027406379    -1.2732784880
    5      H       3.2998846334    -0.0227146513    -1.5011752943
    6      C       1.2154747663    -0.0058186296    -2.2650720846
    7      H       1.4043170147    -0.0315392499    -3.3323274031
    8      C      -0.0575902524     0.0310830342    -1.7397101094
    9      C      -1.3301609457     0.0374726126    -2.4523620117
   10      C      -1.7202283314     0.8477146738    -3.4960603043
   11      H      -1.0711912498     1.6067647719    -3.9178498008
   12      C      -3.0417695598     0.5797989174    -3.9607010865
   13      H      -3.5154180746     1.1182628250    -4.7738658296
   14      C      -3.6591965527    -0.4233494543    -3.2602973718
   15      H      -4.6553671562    -0.8224079459    -3.3949376444
   16      S      -2.6249014042    -1.0712843518    -2.0290825986
 ----------------------------------------------------------------
 Nuclear Repulsion Energy =   630.1786725275 hartrees
 There are       43 alpha and       43 beta electrons
 Applying Cartesian multipole field
    Component          Value
    ---------          -----
     (2,0,0)        1.00000E-11
     (0,2,0)        2.00000E-11
     (0,0,2)       -3.00000E-11
 Nucleus-field energy     =    -0.0000000329 hartrees
 Requested basis set is 6-31++G(d,p)
 There are 76 shells and 234 basis functions
 A cutoff of  1.0D-12 yielded   2529 shell pairs
 There are     24907 function pairs

 Q-Chem warning in module /project/projectdirs/jcesr/qchem/qc44/cnl_qc441/compile/cori/qc_src/libqints/qchem/aobasis.C, line 68:

 Using reconstructed effective core potential

 Smallest overlap matrix eigenvalue = 1.15E-06
 Guess MOs from SCF MO coefficient file
 Reading MOs from coefficient file
 Reading MOs from coefficient file
 A restricted hybrid HF-DFT SCF calculation will be
 performed using Pulay DIIS extrapolation
 Exchange:     0.2000 Hartree-Fock + 0.0800 Slater + 0.7200 B88
 Correlation:  0.1900 VWN1RPA + 0.8100 LYP
 Using SG-1 standard quadrature grid
 SCF converges when DIIS error is below 1.0E-08
 Geometry optimization detected.  Setting ReadMinima to 0
 Setting SaveMinima to 0
 ---------------------------------------
  Cycle       Energy         DIIS Error
 ---------------------------------------
    1   -1104.8388031024      7.14E-04
    2   -1104.8390315733      1.35E-04
    3   -1104.8384651992      3.06E-04
    4   -1104.8391806508      2.16E-05
    5   -1104.8391836492      9.13E-06
    6   -1104.8391842519      2.49E-06
    7   -1104.8391842874      1.47E-06
    8   -1104.8391843038      2.05E-07
    9   -1104.8391843064      5.76E-08
   10   -1104.8391843048      1.98E-08
   11   -1104.8391843057      5.72E-09 Convergence criterion met
 ---------------------------------------
 SCF time:  CPU 6.27 s  wall 5.77 s
 SCF   energy in the final basis set = -1104.8391843057
 Total energy in the final basis set = -1104.8391843057
 
 --------------------------------------------------------------
 
                    Orbital Energies (a.u.)
 --------------------------------------------------------------
 
 Alpha MOs
 -- Occupied --
-88.919 -88.919 -10.237 -10.237 -10.225 -10.225 -10.204 -10.204
-10.204 -10.203  -7.979  -7.979  -5.943  -5.943  -5.939  -5.939
 -5.936  -5.936  -0.899  -0.878  -0.770  -0.746  -0.738  -0.705
 -0.602  -0.574  -0.558  -0.534  -0.524  -0.477  -0.420  -0.416
 -0.411  -0.405  -0.397  -0.375  -0.374  -0.354  -0.347  -0.268
 -0.262  -0.260  -0.222
 -- Virtual --
 -0.049  -0.018  -0.006  -0.001   0.004   0.016   0.017   0.026
  0.029   0.034   0.037   0.043   0.047   0.050   0.058   0.067
  0.071   0.075   0.092   0.096   0.101   0.103   0.106   0.114
  0.115   0.121   0.124   0.132   0.134   0.135   0.140   0.144
  0.147   0.152   0.153   0.161   0.169   0.174   0.175   0.183
  0.184   0.189   0.196   0.202   0.211   0.220   0.226   0.231
  0.240   0.245   0.262   0.264   0.271   0.274   0.299   0.310
  0.313   0.315   0.318   0.330   0.355   0.365   0.371   0.394
  0.435   0.455   0.470   0.501   0.525   0.529   0.552   0.568
  0.569   0.605   0.613   0.634   0.655   0.657   0.670   0.674
  0.700   0.704   0.722   0.727   0.738   0.747   0.749   0.753
  0.789   0.797   0.812   0.826   0.846   0.893   0.905   0.948
  0.951   0.954   0.955   0.970   0.970   0.992   0.996   1.012
  1.016   1.043   1.055   1.065   1.081   1.092   1.100   1.110
  1.127   1.178   1.194   1.223   1.238   1.275   1.330   1.347
  1.353   1.359   1.360   1.388   1.441   1.463   1.499   1.543
  1.580   1.687   1.693   1.763   1.786   1.877   1.888   1.890
  1.909   1.926   1.931   1.967   2.015   2.024   2.069   2.069
  2.137   2.159   2.179   2.210   2.227   2.242   2.257   2.304
  2.366   2.369   2.432   2.450   2.460   2.466   2.492   2.511
  2.515   2.542   2.582   2.591   2.603   2.655   2.693   2.712
  2.770   2.789   2.866   2.894   2.949   3.147   3.196   3.270
  3.271   3.404   3.425   3.717   3.746   3.954   3.990   4.265
  4.312   4.322   4.330   4.417   4.537   4.655   4.717
 --------------------------------------------------------------
 
          Ground-State Mulliken Net Atomic Charges

     Atom                 Charge (a.u.)
  ----------------------------------------
      1 S                    -0.000085
      2 C                    -0.048823
      3 H                     0.188239
      4 C                    -0.417865
      5 H                     0.116049
      6 C                     0.295433
      7 H                     0.143566
      8 C                    -0.279206
      9 C                    -0.276930
     10 C                     0.297909
     11 H                     0.143551
     12 C                    -0.416831
     13 H                     0.116099
     14 C                    -0.049477
     15 H                     0.188284
     16 S                     0.000087
  ----------------------------------------
  Sum of atomic charges =     0.000000

 -----------------------------------------------------------------
                    Cartesian Multipole Moments
 -----------------------------------------------------------------
    Charge (ESU x 10^10)
                 0.0000
    Dipole Moment (Debye)
         X       0.4277      Y       0.3746      Z      -0.7611
       Tot       0.9500
    Quadrupole Moments (Debye-Ang)
        XX     -63.9005     XY       0.8290     YY     -75.8776
        XZ       3.9775     YZ      -3.0745     ZZ     -65.5699
    Octopole Moments (Debye-Ang^2)
       XXX     159.3351    XXY      -3.6695    XYY      55.9185
       YYY      18.9589    XXZ     105.9356    XYZ       2.2518
       YYZ     136.5483    XZZ      46.9455    YZZ      24.1513
       ZZZ     381.1419
    Hexadecapole Moments (Debye-Ang^3)
      XXXX   -1798.2458   XXXY     -24.0625   XXYY    -384.7689
      XYYY     -78.1427   YYYY    -249.2793   XXXZ    -578.0975
      XXYZ      13.5202   XYYZ    -230.4648   YYYZ     -11.5162
      XXZZ    -609.2966   XYZZ     -56.0919   YYZZ    -435.8049
      XZZZ    -640.4699   YZZZ     -96.8930   ZZZZ   -2308.0260
 -----------------------------------------------------------------
 Calculating analytic gradient of the SCF energy
 Gradient of SCF Energy
            1           2           3           4           5           6
    1  -0.0000278   0.0004503  -0.0000600  -0.0003952  -0.0000201  -0.0000396
    2   0.0004583  -0.0000136   0.0001745  -0.0001946   0.0000269  -0.0029052
    3   0.0001316   0.0003451   0.0000727  -0.0000552  -0.0000060   0.0005117
            7           8           9          10          11          12
    1   0.0002119  -0.0003756   0.0014734  -0.0013843   0.0003104   0.0002600
    2   0.0011995   0.0021009  -0.0011119   0.0016693  -0.0007368   0.0000437
    3  -0.0000355  -0.0006759  -0.0012392   0.0020392  -0.0009089   0.0003756
           13          14          15          16
    1   0.0000166  -0.0005679   0.0000520   0.0000957
    2  -0.0000213  -0.0000859  -0.0001867  -0.0004173
    3  -0.0000175  -0.0002477  -0.0000564  -0.0002337
 Max gradient component =       2.905E-03
 RMS gradient           =       8.183E-04
 Gradient time:  CPU 2.08 s  wall 2.10 s
 Geometry Optimization Parameters
   NAtoms,    NIC,     NZ,  NCons,   NDum,   NFix, NCnnct, MaxDiis
       16     111       0       1       0       0       0       0

 Cartesian Hessian Update
 Hessian Updated using BFGS Update


** CONSTRAINED OPTIMIZATION IN DELOCALIZED INTERNAL COORDINATES **
   Searching for a Minimum

   Optimization Cycle:   2

                       Coordinates (Angstroms)
     ATOM                X               Y               Z
      1  S         0.0116067700    0.0675250608    0.0146182449
      2  C         1.7449485146    0.0314918264    0.0041970932
      3  H         2.2917914686    0.0370215929    0.9372274192
      4  C         2.2402943493    0.0027406379   -1.2732784880
      5  H         3.2998846334   -0.0227146513   -1.5011752943
      6  C         1.2154747663   -0.0058186296   -2.2650720846
      7  H         1.4043170147   -0.0315392499   -3.3323274031
      8  C        -0.0575902524    0.0310830342   -1.7397101094
      9  C        -1.3301609457    0.0374726126   -2.4523620117
     10  C        -1.7202283314    0.8477146738   -3.4960603043
     11  H        -1.0711912498    1.6067647719   -3.9178498008
     12  C        -3.0417695598    0.5797989174   -3.9607010865
     13  H        -3.5154180746    1.1182628250   -4.7738658296
     14  C        -3.6591965527   -0.4233494543   -3.2602973718
     15  H        -4.6553671562   -0.8224079459   -3.3949376444
     16  S        -2.6249014042   -1.0712843518   -2.0290825986
   Point Group: c1    Number of degrees of freedom:    42


   Energy is  -1104.839184306

              Constraints and their Current Values
                                        Value     Constraint
   Dihedral:        6   8   9  10      -50.000      -50.000
 Hessian Updated using BFGS Update

 35 Hessian modes will be used to form the next step
  Hessian Eigenvalues:
     0.030672    0.045000    0.045001    0.045004    0.045006    0.045012
     0.051883    0.158173    0.159949    0.159991    0.160000    0.160062
     0.217299    0.221284    0.226107    0.237837    0.243716    0.250005
     0.294439    0.297800    0.312567    0.313320    0.354737    0.354843
     0.355124    0.355139    0.358235    0.358345    0.386955    0.404879
     0.406855    0.463583    0.470520    0.497933    0.499022

 Minimum Search - Taking Simple RFO Step
 Searching for Lamda that Minimizes Along All modes
 Value Taken    Lamda =  -0.00013360
 Step Taken.  Stepsize is  0.059681

                             Maximum     Tolerance    Cnvgd?
         Gradient           0.001947      0.000300      NO
         Displacement       0.036211      0.001200      NO
         Energy change     -0.000351      0.000001      NO


 New Cartesian Coordinates Obtained by Inverse Iteration

 Displacement from previous Coordinates is:  0.086189
 ----------------------------------------------------------------
             Standard Nuclear Orientation (Angstroms)
    I     Atom           X                Y                Z
 ----------------------------------------------------------------
    1      S       0.0141815110     0.0653816971     0.0218184082
    2      C       1.7473726416     0.0355149280     0.0013705687
    3      H       2.2992925011     0.0361517663     0.9313737885
    4      C       2.2383174126     0.0123964176    -1.2779561213
    5      H       3.2969436740    -0.0143559596    -1.5103723093
    6      C       1.2081259306    -0.0014915341    -2.2642202853
    7      H       1.3883613492    -0.0438896198    -3.3323212874
    8      C      -0.0617299225     0.0307970512    -1.7315381346
    9      C      -1.3335079780     0.0295327285    -2.4476413960
   10      C      -1.7145551085     0.8407512029    -3.4935752315
   11      H      -1.0653625823     1.6086946279    -3.8984835014
   12      C      -3.0339685774     0.5759529400    -3.9662481147
   13      H      -3.5042891616     1.1188403627    -4.7784572674
   14      C      -3.6575202459    -0.4229261357    -3.2651710805
   15      H      -4.6566156857    -0.8141277195    -3.4008787337
   16      S      -2.6325517684    -1.0744610835    -2.0283765724
 ----------------------------------------------------------------
 Nuclear Repulsion Energy =   630.0692114878 hartrees
 There are       43 alpha and       43 beta electrons
 Applying Cartesian multipole field
    Component          Value
    ---------          -----
     (2,0,0)        1.00000E-11
     (0,2,0)        2.00000E-11
     (0,0,2)       -3.00000E-11
 Nucleus-field energy     =    -0.0000000329 hartrees
 Requested basis set is 6-31++G(d,p)
 There are 76 shells and 234 basis functions
 A cutoff of  1.0D-12 yielded   2529 shell pairs
 There are     24907 function pairs

 Q-Chem warning in module /project/projectdirs/jcesr/qchem/qc44/cnl_qc441/compile/cori/qc_src/libqints/qchem/aobasis.C, line 68:

 Using reconstructed effective core potential

 Smallest overlap matrix eigenvalue = 1.16E-06
 Guess MOs from SCF MO coefficient file
 Reading MOs from coefficient file
 Reading MOs from coefficient file
 A restricted hybrid HF-DFT SCF calculation will be
 performed using Pulay DIIS extrapolation
 Exchange:     0.2000 Hartree-Fock + 0.0800 Slater + 0.7200 B88
 Correlation:  0.1900 VWN1RPA + 0.8100 LYP
 Using SG-1 standard quadrature grid
 SCF converges when DIIS error is below 1.0E-08
 Geometry optimization detected.  Setting ReadMinima to 0
 Setting SaveMinima to 0
 ---------------------------------------
  Cycle       Energy         DIIS Error
 ---------------------------------------
    1   -1104.8384097968      3.95E-04
    2   -1104.8392018850      8.76E-05
    3   -1104.8389649375      1.98E-04
    4   -1104.8392632794      9.94E-06
    5   -1104.8392638494      4.59E-06
    6   -1104.8392639916      1.07E-06
    7   -1104.8392639960      7.28E-07
    8   -1104.8392639999      1.18E-07
    9   -1104.8392640028      3.73E-08
   10   -1104.8392640026      1.22E-08
   11   -1104.8392640023      3.32E-09 Convergence criterion met
 ---------------------------------------
 SCF time:  CPU 6.10 s  wall 6.80 s
 SCF   energy in the final basis set = -1104.8392640023
 Total energy in the final basis set = -1104.8392640023
 
 --------------------------------------------------------------
 
                    Orbital Energies (a.u.)
 --------------------------------------------------------------
 
 Alpha MOs
 -- Occupied --
-88.920 -88.920 -10.237 -10.237 -10.225 -10.225 -10.204 -10.204
-10.203 -10.203  -7.979  -7.979  -5.943  -5.943  -5.939  -5.939
 -5.936  -5.936  -0.899  -0.878  -0.770  -0.746  -0.738  -0.705
 -0.602  -0.574  -0.558  -0.534  -0.524  -0.477  -0.419  -0.416
 -0.411  -0.404  -0.397  -0.376  -0.374  -0.355  -0.348  -0.268
 -0.262  -0.260  -0.222
 -- Virtual --
 -0.049  -0.017  -0.006  -0.001   0.004   0.016   0.017   0.026
  0.029   0.034   0.037   0.043   0.047   0.050   0.058   0.067
  0.071   0.075   0.092   0.095   0.101   0.103   0.106   0.114
  0.114   0.121   0.124   0.132   0.134   0.135   0.140   0.144
  0.147   0.152   0.153   0.161   0.169   0.174   0.175   0.183
  0.184   0.189   0.196   0.202   0.211   0.220   0.225   0.231
  0.240   0.245   0.262   0.264   0.271   0.273   0.299   0.309
  0.313   0.315   0.318   0.330   0.355   0.365   0.371   0.394
  0.436   0.455   0.471   0.501   0.525   0.529   0.552   0.568
  0.569   0.605   0.612   0.634   0.655   0.656   0.670   0.673
  0.700   0.703   0.722   0.727   0.738   0.746   0.749   0.752
  0.790   0.797   0.812   0.826   0.846   0.893   0.905   0.948
  0.952   0.953   0.955   0.970   0.971   0.992   0.998   1.011
  1.017   1.043   1.054   1.064   1.081   1.092   1.100   1.109
  1.127   1.179   1.194   1.223   1.238   1.276   1.327   1.347
  1.354   1.361   1.362   1.389   1.446   1.461   1.494   1.544
  1.577   1.687   1.693   1.762   1.785   1.878   1.888   1.891
  1.909   1.927   1.933   1.968   2.017   2.023   2.068   2.072
  2.136   2.162   2.180   2.210   2.226   2.242   2.258   2.307
  2.366   2.369   2.431   2.450   2.456   2.470   2.492   2.514
  2.514   2.540   2.581   2.591   2.603   2.654   2.692   2.713
  2.771   2.790   2.867   2.894   2.947   3.147   3.196   3.269
  3.271   3.404   3.425   3.717   3.746   3.954   3.989   4.266
  4.312   4.322   4.330   4.416   4.537   4.655   4.717
 --------------------------------------------------------------
 
          Ground-State Mulliken Net Atomic Charges

     Atom                 Charge (a.u.)
  ----------------------------------------
      1 S                     0.005344
      2 C                    -0.054363
      3 H                     0.187738
      4 C                    -0.416534
      5 H                     0.116269
      6 C                     0.287559
      7 H                     0.144457
      8 C                    -0.275064
      9 C                    -0.268893
     10 C                     0.289230
     11 H                     0.144484
     12 C                    -0.415039
     13 H                     0.116321
     14 C                    -0.054921
     15 H                     0.187781
     16 S                     0.005632
  ----------------------------------------
  Sum of atomic charges =     0.000000

 -----------------------------------------------------------------
                    Cartesian Multipole Moments
 -----------------------------------------------------------------
    Charge (ESU x 10^10)
                 0.0000
    Dipole Moment (Debye)
         X       0.4198      Y       0.3694      Z      -0.7474
       Tot       0.9334
    Quadrupole Moments (Debye-Ang)
        XX     -63.8982     XY       0.7520     YY     -75.8569
        XZ       3.9582     YZ      -3.0804     ZZ     -65.6901
    Octopole Moments (Debye-Ang^2)
       XXX     159.4815    XXY      -3.4519    XYY      56.0015
       YYY      19.2372    XXZ     105.9417    XYZ       2.4708
       YYZ     136.4300    XZZ      47.0925    YZZ      24.1387
       ZZZ     381.4870
    Hexadecapole Moments (Debye-Ang^3)
      XXXX   -1797.6294   XXXY     -26.7284   XXYY    -384.9644
      XYYY     -80.4295   YYYY    -249.0800   XXXZ    -578.5767
      XXYZ      12.6435   XYYZ    -230.7008   YYYZ     -12.7259
      XXZZ    -609.7795   XYZZ     -57.5110   YYZZ    -435.8559
      XZZZ    -641.2577   YZZZ     -97.3481   ZZZZ   -2311.4031
 -----------------------------------------------------------------
 Calculating analytic gradient of the SCF energy
 Gradient of SCF Energy
            1           2           3           4           5           6
    1  -0.0000269  -0.0002179  -0.0000147   0.0000231   0.0000344  -0.0003078
    2   0.0003246  -0.0001286  -0.0000561   0.0004585  -0.0001424  -0.0022545
    3   0.0004322  -0.0000556  -0.0000291  -0.0000433  -0.0000578   0.0002527
            7           8           9          10          11          12
    1   0.0000220   0.0006038   0.0003598  -0.0007961   0.0001870   0.0001660
    2   0.0004867   0.0027306  -0.0018119   0.0012682  -0.0003140  -0.0002735
    3  -0.0000233   0.0003016  -0.0020560   0.0016752  -0.0002947  -0.0003040
           13          14          15          16
    1  -0.0000232   0.0001368   0.0000189  -0.0001651
    2   0.0001641   0.0000221   0.0000495  -0.0005234
    3   0.0000374   0.0002037   0.0000333  -0.0000722
 Max gradient component =       2.731E-03
 RMS gradient           =       7.569E-04
 Gradient time:  CPU 2.13 s  wall 2.09 s
 Geometry Optimization Parameters
   NAtoms,    NIC,     NZ,  NCons,   NDum,   NFix, NCnnct, MaxDiis
       16     111       0       1       0       0       0       0

 Cartesian Hessian Update
 Hessian Updated using BFGS Update


** CONSTRAINED OPTIMIZATION IN DELOCALIZED INTERNAL COORDINATES **
   Searching for a Minimum

   Optimization Cycle:   3

                       Coordinates (Angstroms)
     ATOM                X               Y               Z
      1  S         0.0141815110    0.0653816971    0.0218184082
      2  C         1.7473726416    0.0355149280    0.0013705687
      3  H         2.2992925011    0.0361517663    0.9313737885
      4  C         2.2383174126    0.0123964176   -1.2779561213
      5  H         3.2969436740   -0.0143559596   -1.5103723093
      6  C         1.2081259306   -0.0014915341   -2.2642202853
      7  H         1.3883613492   -0.0438896198   -3.3323212874
      8  C        -0.0617299225    0.0307970512   -1.7315381346
      9  C        -1.3335079780    0.0295327285   -2.4476413960
     10  C        -1.7145551085    0.8407512029   -3.4935752315
     11  H        -1.0653625823    1.6086946279   -3.8984835014
     12  C        -3.0339685774    0.5759529400   -3.9662481147
     13  H        -3.5042891616    1.1188403627   -4.7784572674
     14  C        -3.6575202459   -0.4229261357   -3.2651710805
     15  H        -4.6566156857   -0.8141277195   -3.4008787337
     16  S        -2.6325517684   -1.0744610835   -2.0283765724
   Point Group: c1    Number of degrees of freedom:    42


   Energy is  -1104.839264002

              Constraints and their Current Values
                                        Value     Constraint
   Dihedral:        6   8   9  10      -50.000      -50.000
 Hessian Updated using BFGS Update

 36 Hessian modes will be used to form the next step
  Hessian Eigenvalues:
     0.022724    0.045000    0.045000    0.045005    0.045012    0.045700
     0.051425    0.158691    0.159950    0.159992    0.160000    0.160053
     0.160354    0.221283    0.224426    0.226589    0.237837    0.250004
     0.250973    0.294426    0.296701    0.312567    0.313304    0.354737
     0.354842    0.355130    0.355219    0.358260    0.358427    0.388941
     0.404880    0.407663    0.463585    0.472472    0.497932    0.499396

 Minimum Search - Taking Simple RFO Step
 Searching for Lamda that Minimizes Along All modes
 Value Taken    Lamda =  -0.00002021
 Step Taken.  Stepsize is  0.026172

                             Maximum     Tolerance    Cnvgd?
         Gradient           0.000480      0.000300      NO
         Displacement       0.015653      0.001200      NO
         Energy change     -0.000080      0.000001      NO


 New Cartesian Coordinates Obtained by Inverse Iteration

 Displacement from previous Coordinates is:  0.024322
 ----------------------------------------------------------------
             Standard Nuclear Orientation (Angstroms)
    I     Atom           X                Y                Z
 ----------------------------------------------------------------
    1      S       0.0153683878     0.0629118296     0.0225001745
    2      C       1.7486897394     0.0370891561     0.0010190425
    3      H       2.3015168378     0.0378747034     0.9305593566
    4      C       2.2382150155     0.0139838406    -1.2787808786
    5      H       3.2966397100    -0.0122208331    -1.5117845053
    6      C       1.2068721336    -0.0003342197    -2.2642119193
    7      H       1.3853024804    -0.0501064063    -3.3322617612
    8      C      -0.0627796877     0.0306106416    -1.7300962529
    9      C      -1.3337612812     0.0274736645    -2.4467525769
   10      C      -1.7131960965     0.8391103989    -3.4934138699
   11      H      -1.0655730830     1.6114717349    -3.8923348855
   12      C      -3.0327551120     0.5755736691    -3.9671699992
   13      H      -3.5023949461     1.1188285055    -4.7793911170
   14      C      -3.6577297987    -0.4229943136    -3.2670893905
   15      H      -4.6571718116    -0.8132424991    -3.4035832656
   16      S      -2.6347484976    -1.0732682021    -2.0278854217
 ----------------------------------------------------------------
 Nuclear Repulsion Energy =   630.0682047629 hartrees
 There are       43 alpha and       43 beta electrons
 Applying Cartesian multipole field
    Component          Value
    ---------          -----
     (2,0,0)        1.00000E-11
     (0,2,0)        2.00000E-11
     (0,0,2)       -3.00000E-11
 Nucleus-field energy     =    -0.0000000329 hartrees
 Requested basis set is 6-31++G(d,p)
 There are 76 shells and 234 basis functions
 A cutoff of  1.0D-12 yielded   2529 shell pairs
 There are     24907 function pairs

 Q-Chem warning in module /project/projectdirs/jcesr/qchem/qc44/cnl_qc441/compile/cori/qc_src/libqints/qchem/aobasis.C, line 68:

 Using reconstructed effective core potential

 Smallest overlap matrix eigenvalue = 1.16E-06
 Guess MOs from SCF MO coefficient file
 Reading MOs from coefficient file
 Reading MOs from coefficient file
 A restricted hybrid HF-DFT SCF calculation will be
 performed using Pulay DIIS extrapolation
 Exchange:     0.2000 Hartree-Fock + 0.0800 Slater + 0.7200 B88
 Correlation:  0.1900 VWN1RPA + 0.8100 LYP
 Using SG-1 standard quadrature grid
 SCF converges when DIIS error is below 1.0E-08
 Geometry optimization detected.  Setting ReadMinima to 0
 Setting SaveMinima to 0
 ---------------------------------------
  Cycle       Energy         DIIS Error
 ---------------------------------------
    1   -1104.8382639760      1.10E-04
    2   -1104.8392729905      1.86E-05
    3   -1104.8392627545      4.12E-05
    4   -1104.8392759117      3.66E-06
    5   -1104.8392760005      1.17E-06
    6   -1104.8392760068      4.13E-07
    7   -1104.8392760107      1.54E-07
    8   -1104.8392760088      6.28E-08
    9   -1104.8392760076      1.11E-08
   10   -1104.8392760077      4.28E-09 Convergence criterion met
 ---------------------------------------
 SCF time:  CPU 5.53 s  wall 5.20 s
 SCF   energy in the final basis set = -1104.8392760077
 Total energy in the final basis set = -1104.8392760077
 
 --------------------------------------------------------------
 
                    Orbital Energies (a.u.)
 --------------------------------------------------------------
 
 Alpha MOs
 -- Occupied --
-88.920 -88.920 -10.237 -10.237 -10.225 -10.225 -10.204 -10.204
-10.203 -10.203  -7.979  -7.979  -5.943  -5.943  -5.939  -5.939
 -5.936  -5.936  -0.899  -0.878  -0.770  -0.746  -0.738  -0.705
 -0.602  -0.574  -0.558  -0.534  -0.524  -0.477  -0.419  -0.416
 -0.411  -0.404  -0.397  -0.376  -0.374  -0.355  -0.348  -0.268
 -0.262  -0.260  -0.222
 -- Virtual --
 -0.049  -0.017  -0.006  -0.001   0.004   0.016   0.017   0.026
  0.029   0.034   0.037   0.043   0.047   0.050   0.058   0.067
  0.070   0.075   0.092   0.095   0.101   0.103   0.106   0.114
  0.114   0.121   0.124   0.132   0.134   0.135   0.140   0.144
  0.147   0.152   0.152   0.161   0.169   0.174   0.175   0.183
  0.184   0.189   0.196   0.202   0.211   0.220   0.225   0.231
  0.241   0.245   0.262   0.265   0.271   0.273   0.299   0.309
  0.313   0.315   0.319   0.330   0.355   0.365   0.371   0.394
  0.436   0.455   0.470   0.501   0.525   0.529   0.552   0.568
  0.569   0.605   0.612   0.634   0.654   0.657   0.670   0.673
  0.700   0.703   0.722   0.727   0.738   0.745   0.749   0.752
  0.790   0.797   0.812   0.826   0.846   0.893   0.905   0.948
  0.952   0.953   0.956   0.969   0.971   0.992   0.998   1.012
  1.017   1.044   1.054   1.064   1.081   1.092   1.100   1.109
  1.127   1.179   1.194   1.223   1.238   1.276   1.326   1.346
  1.354   1.362   1.363   1.390   1.448   1.460   1.491   1.545
  1.576   1.687   1.693   1.761   1.785   1.878   1.887   1.891
  1.909   1.927   1.934   1.967   2.017   2.022   2.067   2.072
  2.136   2.162   2.179   2.210   2.226   2.241   2.258   2.307
  2.366   2.369   2.431   2.449   2.455   2.471   2.493   2.513
  2.514   2.539   2.581   2.591   2.604   2.654   2.692   2.713
  2.772   2.790   2.866   2.894   2.946   3.146   3.196   3.270
  3.271   3.404   3.425   3.717   3.746   3.954   3.989   4.266
  4.312   4.322   4.330   4.416   4.537   4.655   4.716
 --------------------------------------------------------------
 
          Ground-State Mulliken Net Atomic Charges

     Atom                 Charge (a.u.)
  ----------------------------------------
      1 S                     0.005597
      2 C                    -0.055035
      3 H                     0.187728
      4 C                    -0.416164
      5 H                     0.116365
      6 C                     0.284141
      7 H                     0.144649
      8 C                    -0.272630
      9 C                    -0.264704
     10 C                     0.285197
     11 H                     0.144671
     12 C                    -0.414431
     13 H                     0.116409
     14 C                    -0.055535
     15 H                     0.187773
     16 S                     0.005967
  ----------------------------------------
  Sum of atomic charges =     0.000000

 -----------------------------------------------------------------
                    Cartesian Multipole Moments
 -----------------------------------------------------------------
    Charge (ESU x 10^10)
                 0.0000
    Dipole Moment (Debye)
         X       0.4169      Y       0.3678      Z      -0.7424
       Tot       0.9275
    Quadrupole Moments (Debye-Ang)
        XX     -63.8810     XY       0.7346     YY     -75.8523
        XZ       3.9755     YZ      -3.0693     ZZ     -65.7312
    Octopole Moments (Debye-Ang^2)
       XXX     159.4375    XXY      -3.4127    XYY      56.0173
       YYY      19.3341    XXZ     105.8970    XYZ       2.5290
       YYZ     136.4059    XZZ      47.0447    YZZ      24.0631
       ZZZ     381.6967
    Hexadecapole Moments (Debye-Ang^3)
      XXXX   -1797.7132   XXXY     -26.9850   XXYY    -385.0799
      XYYY     -80.8316   YYYY    -248.7656   XXXZ    -578.3717
      XXYZ      12.6309   XYYZ    -230.7696   YYYZ     -12.9275
      XXZZ    -609.6635   XYZZ     -57.7244   YYZZ    -435.8020
      XZZZ    -641.2405   YZZZ     -96.9477   ZZZZ   -2312.8424
 -----------------------------------------------------------------
 Calculating analytic gradient of the SCF energy
 Gradient of SCF Energy
            1           2           3           4           5           6
    1   0.0001286  -0.0000849   0.0000406   0.0001409  -0.0000134  -0.0002704
    2   0.0000439   0.0000417  -0.0000649   0.0003360  -0.0001572  -0.0017933
    3   0.0000431   0.0000054   0.0000066   0.0001431   0.0000149   0.0000268
            7           8           9          10          11          12
    1  -0.0000421   0.0000274   0.0006715  -0.0004920   0.0000900  -0.0000864
    2   0.0001502   0.0029454  -0.0023005   0.0011069  -0.0001022  -0.0002746
    3  -0.0000070   0.0004761  -0.0017190   0.0013091  -0.0000431  -0.0002651
           13          14          15          16
    1  -0.0000521   0.0000788  -0.0000501  -0.0000865
    2   0.0001038  -0.0000675   0.0000543  -0.0000221
    3   0.0001135   0.0000170   0.0000050  -0.0001264
 Max gradient component =       2.945E-03
 RMS gradient           =       7.152E-04
 Gradient time:  CPU 2.12 s  wall 2.09 s
 Geometry Optimization Parameters
   NAtoms,    NIC,     NZ,  NCons,   NDum,   NFix, NCnnct, MaxDiis
       16     111       0       1       0       0       0       0

 Cartesian Hessian Update
 Hessian Updated using BFGS Update


** CONSTRAINED OPTIMIZATION IN DELOCALIZED INTERNAL COORDINATES **
   Searching for a Minimum

   Optimization Cycle:   4

                       Coordinates (Angstroms)
     ATOM                X               Y               Z
      1  S         0.0153683878    0.0629118296    0.0225001745
      2  C         1.7486897394    0.0370891561    0.0010190425
      3  H         2.3015168378    0.0378747034    0.9305593566
      4  C         2.2382150155    0.0139838406   -1.2787808786
      5  H         3.2966397100   -0.0122208331   -1.5117845053
      6  C         1.2068721336   -0.0003342197   -2.2642119193
      7  H         1.3853024804   -0.0501064063   -3.3322617612
      8  C        -0.0627796877    0.0306106416   -1.7300962529
      9  C        -1.3337612812    0.0274736645   -2.4467525769
     10  C        -1.7131960965    0.8391103989   -3.4934138699
     11  H        -1.0655730830    1.6114717349   -3.8923348855
     12  C        -3.0327551120    0.5755736691   -3.9671699992
     13  H        -3.5023949461    1.1188285055   -4.7793911170
     14  C        -3.6577297987   -0.4229943136   -3.2670893905
     15  H        -4.6571718116   -0.8132424991   -3.4035832656
     16  S        -2.6347484976   -1.0732682021   -2.0278854217
   Point Group: c1    Number of degrees of freedom:    42


   Energy is  -1104.839276008

              Constraints and their Current Values
                                        Value     Constraint
   Dihedral:        6   8   9  10      -50.000      -50.000
 Hessian Updated using BFGS Update

 40 Hessian modes will be used to form the next step
  Hessian Eigenvalues:
     0.018313    0.044024    0.045000    0.045000    0.045000    0.045000
     0.045002    0.045004    0.045012    0.045036    0.051450    0.159554
     0.159895    0.159986    0.159992    0.160001    0.160576    0.221282
     0.224335    0.231290    0.237837    0.250002    0.260588    0.293646
     0.294548    0.312567    0.313663    0.354737    0.354847    0.355130
     0.355403    0.358275    0.358740    0.380616    0.404882    0.419059
     0.463556    0.463977    0.497926    0.498494

 Minimum Search - Taking Simple RFO Step
 Searching for Lamda that Minimizes Along All modes
 Value Taken    Lamda =  -0.00000397
 Step Taken.  Stepsize is  0.011335

                             Maximum     Tolerance    Cnvgd?
         Gradient           0.000272      0.000300     YES
         Displacement       0.008071      0.001200      NO
         Energy change     -0.000012      0.000001      NO


 New Cartesian Coordinates Obtained by Inverse Iteration

 Displacement from previous Coordinates is:  0.008052
 ----------------------------------------------------------------
             Standard Nuclear Orientation (Angstroms)
    I     Atom           X                Y                Z
 ----------------------------------------------------------------
    1      S       0.0146508152     0.0617841630     0.0218327764
    2      C       1.7480757354     0.0365323217     0.0007574574
    3      H       2.3004138277     0.0380767795     0.9305476070
    4      C       2.2379865164     0.0135930298    -1.2789390636
    5      H       3.2965330052    -0.0110549530    -1.5115996062
    6      C       1.2071682176     0.0001432899    -2.2645990703
    7      H       1.3860242860    -0.0517775545    -3.3324771579
    8      C      -0.0627960193     0.0307275738    -1.7305409778
    9      C      -1.3332747878     0.0272659111    -2.4471345268
   10      C      -1.7128426362     0.8390007783    -3.4940182841
   11      H      -1.0663770426     1.6128619641    -3.8919092056
   12      C      -3.0326328308     0.5759738772    -3.9666962923
   13      H      -3.5020732149     1.1181443262    -4.7797680861
   14      C      -3.6574753234    -0.4225160776    -3.2662984092
   15      H      -4.6565919648    -0.8134791318    -3.4028514339
   16      S      -2.6342945937    -1.0725146278    -2.0269829971
 ----------------------------------------------------------------
 Nuclear Repulsion Energy =   630.1341833605 hartrees
 There are       43 alpha and       43 beta electrons
 Applying Cartesian multipole field
    Component          Value
    ---------          -----
     (2,0,0)        1.00000E-11
     (0,2,0)        2.00000E-11
     (0,0,2)       -3.00000E-11
 Nucleus-field energy     =    -0.0000000329 hartrees
 Requested basis set is 6-31++G(d,p)
 There are 76 shells and 234 basis functions
 A cutoff of  1.0D-12 yielded   2529 shell pairs
 There are     24907 function pairs

 Q-Chem warning in module /project/projectdirs/jcesr/qchem/qc44/cnl_qc441/compile/cori/qc_src/libqints/qchem/aobasis.C, line 68:

 Using reconstructed effective core potential

 Smallest overlap matrix eigenvalue = 1.16E-06
 Guess MOs from SCF MO coefficient file
 Reading MOs from coefficient file
 Reading MOs from coefficient file
 A restricted hybrid HF-DFT SCF calculation will be
 performed using Pulay DIIS extrapolation
 Exchange:     0.2000 Hartree-Fock + 0.0800 Slater + 0.7200 B88
 Correlation:  0.1900 VWN1RPA + 0.8100 LYP
 Using SG-1 standard quadrature grid
 SCF converges when DIIS error is below 1.0E-08
 Geometry optimization detected.  Setting ReadMinima to 0
 Setting SaveMinima to 0
 ---------------------------------------
  Cycle       Energy         DIIS Error
 ---------------------------------------
    1   -1104.8389045007      3.62E-05
    2   -1104.8392782868      5.26E-06
    3   -1104.8392779862      8.45E-06
    4   -1104.8392785113      1.51E-06
    5   -1104.8392785250      5.69E-07
    6   -1104.8392785279      2.47E-07
    7   -1104.8392785299      7.96E-08
    8   -1104.8392785292      3.14E-08
    9   -1104.8392785288      3.60E-09 Convergence criterion met
 ---------------------------------------
 SCF time:  CPU 5.04 s  wall 4.76 s
 SCF   energy in the final basis set = -1104.8392785288
 Total energy in the final basis set = -1104.8392785288
 
 --------------------------------------------------------------
 
                    Orbital Energies (a.u.)
 --------------------------------------------------------------
 
 Alpha MOs
 -- Occupied --
-88.920 -88.920 -10.237 -10.237 -10.225 -10.225 -10.204 -10.204
-10.203 -10.203  -7.979  -7.979  -5.943  -5.943  -5.939  -5.939
 -5.936  -5.936  -0.899  -0.878  -0.770  -0.746  -0.738  -0.705
 -0.602  -0.574  -0.558  -0.534  -0.524  -0.477  -0.419  -0.416
 -0.411  -0.404  -0.397  -0.376  -0.374  -0.355  -0.348  -0.268
 -0.262  -0.260  -0.222
 -- Virtual --
 -0.049  -0.017  -0.006  -0.001   0.004   0.016   0.017   0.026
  0.029   0.034   0.037   0.043   0.047   0.050   0.058   0.067
  0.070   0.075   0.092   0.095   0.101   0.103   0.106   0.114
  0.115   0.121   0.124   0.132   0.134   0.135   0.140   0.144
  0.147   0.152   0.152   0.161   0.169   0.174   0.175   0.183
  0.184   0.189   0.196   0.202   0.211   0.220   0.225   0.231
  0.241   0.245   0.262   0.265   0.271   0.273   0.299   0.309
  0.313   0.315   0.319   0.330   0.355   0.365   0.371   0.394
  0.436   0.455   0.470   0.501   0.525   0.530   0.552   0.568
  0.569   0.605   0.612   0.634   0.654   0.657   0.670   0.673
  0.700   0.703   0.722   0.727   0.738   0.745   0.749   0.752
  0.790   0.797   0.812   0.826   0.846   0.893   0.905   0.948
  0.952   0.953   0.956   0.969   0.971   0.992   0.998   1.012
  1.017   1.044   1.054   1.064   1.081   1.092   1.100   1.109
  1.127   1.179   1.194   1.223   1.237   1.277   1.326   1.346
  1.354   1.361   1.364   1.391   1.449   1.460   1.491   1.545
  1.575   1.687   1.693   1.761   1.785   1.878   1.887   1.891
  1.909   1.927   1.934   1.967   2.017   2.022   2.067   2.072
  2.136   2.162   2.180   2.210   2.226   2.241   2.259   2.307
  2.366   2.369   2.431   2.449   2.455   2.472   2.493   2.514
  2.515   2.539   2.581   2.591   2.604   2.654   2.692   2.713
  2.772   2.790   2.866   2.894   2.946   3.146   3.196   3.270
  3.271   3.404   3.425   3.717   3.746   3.954   3.989   4.267
  4.312   4.322   4.330   4.416   4.537   4.655   4.716
 --------------------------------------------------------------
 
          Ground-State Mulliken Net Atomic Charges

     Atom                 Charge (a.u.)
  ----------------------------------------
      1 S                     0.005077
      2 C                    -0.055404
      3 H                     0.187696
      4 C                    -0.416160
      5 H                     0.116385
      6 C                     0.284453
      7 H                     0.144642
      8 C                    -0.272349
      9 C                    -0.263659
     10 C                     0.285188
     11 H                     0.144655
     12 C                    -0.414286
     13 H                     0.116428
     14 C                    -0.055905
     15 H                     0.187740
     16 S                     0.005500
  ----------------------------------------
  Sum of atomic charges =     0.000000

 -----------------------------------------------------------------
                    Cartesian Multipole Moments
 -----------------------------------------------------------------
    Charge (ESU x 10^10)
                 0.0000
    Dipole Moment (Debye)
         X       0.4160      Y       0.3674      Z      -0.7409
       Tot       0.9257
    Quadrupole Moments (Debye-Ang)
        XX     -63.8890     XY       0.7411     YY     -75.8478
        XZ       3.9721     YZ      -3.0641     ZZ     -65.7345
    Octopole Moments (Debye-Ang^2)
       XXX     159.4799    XXY      -3.4110    XYY      56.0146
       YYY      19.3562    XXZ     105.9182    XYZ       2.5271
       YYZ     136.3963    XZZ      47.0391    YZZ      24.0396
       ZZZ     381.7023
    Hexadecapole Moments (Debye-Ang^3)
      XXXX   -1797.5932   XXXY     -26.6941   XXYY    -384.9903
      XYYY     -80.6809   YYYY    -248.6103   XXXZ    -578.3388
      XXYZ      12.7194   XYYZ    -230.6787   YYYZ     -12.7962
      XXZZ    -609.5992   XYZZ     -57.6710   YYZZ    -435.7007
      XZZZ    -640.8742   YZZZ     -96.6767   ZZZZ   -2312.4707
 -----------------------------------------------------------------
 Calculating analytic gradient of the SCF energy
 Gradient of SCF Energy
            1           2           3           4           5           6
    1   0.0000025  -0.0000548   0.0000070   0.0000451  -0.0000096  -0.0000290
    2  -0.0000217   0.0000632  -0.0000361   0.0001589  -0.0000962  -0.0015880
    3  -0.0000026  -0.0000271  -0.0000004   0.0000218   0.0000075  -0.0000119
            7           8           9          10          11          12
    1  -0.0000076  -0.0003002   0.0008188  -0.0005345   0.0000168   0.0000110
    2   0.0000325   0.0029622  -0.0024997   0.0010855  -0.0000082  -0.0001038
    3  -0.0000038   0.0005619  -0.0014815   0.0010143  -0.0000037  -0.0001270
           13          14          15          16
    1  -0.0000300   0.0000837  -0.0000146  -0.0000046
    2   0.0000647  -0.0000500   0.0000274   0.0000094
    3   0.0000710  -0.0000220   0.0000066  -0.0000030
 Max gradient component =       2.962E-03
 RMS gradient           =       6.983E-04
 Gradient time:  CPU 2.08 s  wall 2.08 s
 Geometry Optimization Parameters
   NAtoms,    NIC,     NZ,  NCons,   NDum,   NFix, NCnnct, MaxDiis
       16     111       0       1       0       0       0       0

 Cartesian Hessian Update
 Hessian Updated using BFGS Update


** CONSTRAINED OPTIMIZATION IN DELOCALIZED INTERNAL COORDINATES **
   Searching for a Minimum

   Optimization Cycle:   5

                       Coordinates (Angstroms)
     ATOM                X               Y               Z
      1  S         0.0146508152    0.0617841630    0.0218327764
      2  C         1.7480757354    0.0365323217    0.0007574574
      3  H         2.3004138277    0.0380767795    0.9305476070
      4  C         2.2379865164    0.0135930298   -1.2789390636
      5  H         3.2965330052   -0.0110549530   -1.5115996062
      6  C         1.2071682176    0.0001432899   -2.2645990703
      7  H         1.3860242860   -0.0517775545   -3.3324771579
      8  C        -0.0627960193    0.0307275738   -1.7305409778
      9  C        -1.3332747878    0.0272659111   -2.4471345268
     10  C        -1.7128426362    0.8390007783   -3.4940182841
     11  H        -1.0663770426    1.6128619641   -3.8919092056
     12  C        -3.0326328308    0.5759738772   -3.9666962923
     13  H        -3.5020732149    1.1181443262   -4.7797680861
     14  C        -3.6574753234   -0.4225160776   -3.2662984092
     15  H        -4.6565919648   -0.8134791318   -3.4028514339
     16  S        -2.6342945937   -1.0725146278   -2.0269829971
   Point Group: c1    Number of degrees of freedom:    42


   Energy is  -1104.839278529

              Constraints and their Current Values
                                        Value     Constraint
   Dihedral:        6   8   9  10      -50.000      -50.000
 Hessian Updated using BFGS Update

 41 Hessian modes will be used to form the next step
  Hessian Eigenvalues:
     0.015419    0.034921    0.045000    0.045000    0.045000    0.045000
     0.045002    0.045003    0.045005    0.045012    0.045208    0.052814
     0.157953    0.159894    0.159991    0.159995    0.160009    0.160364
     0.219485    0.221284    0.226087    0.237843    0.250007    0.266300
     0.294437    0.297462    0.312567    0.314019    0.354740    0.354855
     0.355130    0.355381    0.358275    0.358735    0.392370    0.404882
     0.428261    0.463580    0.471705    0.497934    0.505204

 Minimum Search - Taking Simple RFO Step
 Searching for Lamda that Minimizes Along All modes
 Value Taken    Lamda =  -0.00000118
 Step Taken.  Stepsize is  0.006913

                             Maximum     Tolerance    Cnvgd?
         Gradient           0.000135      0.000300     YES
         Displacement       0.004281      0.001200      NO
         Energy change     -0.000003      0.000001      NO


 New Cartesian Coordinates Obtained by Inverse Iteration

 Displacement from previous Coordinates is:  0.007358
 ----------------------------------------------------------------
             Standard Nuclear Orientation (Angstroms)
    I     Atom           X                Y                Z
 ----------------------------------------------------------------
    1      S       0.0143960804     0.0610874904     0.0211846581
    2      C       1.7478749726     0.0354967308     0.0009451070
    3      H       2.2997179064     0.0376298782     0.9310161500
    4      C       2.2381637910     0.0130401219    -1.2786202886
    5      H       3.2968396334    -0.0100123293    -1.5109172016
    6      C       1.2078075088     0.0004608247    -2.2646853240
    7      H       1.3872589711    -0.0517282640    -3.3324438236
    8      C      -0.0624651215     0.0309387804    -1.7312017928
    9      C      -1.3328635018     0.0274745015    -2.4477984135
   10      C      -1.7130150911     0.8390139528    -3.4946982044
   11      H      -1.0670611004     1.6131473619    -3.8928644561
   12      C      -3.0331708007     0.5762859688    -3.9663257308
   13      H      -3.5024029083     1.1172493544    -4.7803418634
   14      C      -3.6579098642    -0.4219164626    -3.2654060695
   15      H      -4.6567326622    -0.8136130851    -3.4019149515
   16      S      -2.6339438237    -1.0717931550    -2.0266050652
 ----------------------------------------------------------------
 Nuclear Repulsion Energy =   630.1511744860 hartrees
 There are       43 alpha and       43 beta electrons
 Applying Cartesian multipole field
    Component          Value
    ---------          -----
     (2,0,0)        1.00000E-11
     (0,2,0)        2.00000E-11
     (0,0,2)       -3.00000E-11
 Nucleus-field energy     =    -0.0000000329 hartrees
 Requested basis set is 6-31++G(d,p)
 There are 76 shells and 234 basis functions
 A cutoff of  1.0D-12 yielded   2529 shell pairs
 There are     24907 function pairs

 Q-Chem warning in module /project/projectdirs/jcesr/qchem/qc44/cnl_qc441/compile/cori/qc_src/libqints/qchem/aobasis.C, line 68:

 Using reconstructed effective core potential

 Smallest overlap matrix eigenvalue = 1.16E-06
 Guess MOs from SCF MO coefficient file
 Reading MOs from coefficient file
 Reading MOs from coefficient file
 A restricted hybrid HF-DFT SCF calculation will be
 performed using Pulay DIIS extrapolation
 Exchange:     0.2000 Hartree-Fock + 0.0800 Slater + 0.7200 B88
 Correlation:  0.1900 VWN1RPA + 0.8100 LYP
 Using SG-1 standard quadrature grid
 SCF converges when DIIS error is below 1.0E-08
 Geometry optimization detected.  Setting ReadMinima to 0
 Setting SaveMinima to 0
 ---------------------------------------
  Cycle       Energy         DIIS Error
 ---------------------------------------
    1   -1104.8390716335      2.82E-05
    2   -1104.8392788625      6.87E-06
    3   -1104.8392777415      1.40E-05
    4   -1104.8392792346      1.49E-06
    5   -1104.8392792503      4.51E-07
    6   -1104.8392792502      2.09E-07
    7   -1104.8392792529      6.13E-08
    8   -1104.8392792514      1.87E-08
    9   -1104.8392792512      3.02E-09 Convergence criterion met
 ---------------------------------------
 SCF time:  CPU 5.05 s  wall 4.65 s
 SCF   energy in the final basis set = -1104.8392792512
 Total energy in the final basis set = -1104.8392792512
 
 --------------------------------------------------------------
 
                    Orbital Energies (a.u.)
 --------------------------------------------------------------
 
 Alpha MOs
 -- Occupied --
-88.920 -88.920 -10.237 -10.237 -10.225 -10.225 -10.204 -10.204
-10.203 -10.203  -7.979  -7.979  -5.943  -5.943  -5.939  -5.939
 -5.936  -5.936  -0.899  -0.878  -0.770  -0.746  -0.738  -0.705
 -0.602  -0.574  -0.558  -0.534  -0.524  -0.477  -0.419  -0.416
 -0.411  -0.404  -0.397  -0.376  -0.374  -0.355  -0.348  -0.268
 -0.262  -0.260  -0.222
 -- Virtual --
 -0.049  -0.017  -0.006  -0.001   0.004   0.016   0.017   0.026
  0.029   0.034   0.037   0.043   0.047   0.050   0.058   0.067
  0.070   0.075   0.092   0.095   0.101   0.103   0.106   0.114
  0.115   0.121   0.124   0.132   0.134   0.135   0.140   0.144
  0.147   0.152   0.152   0.161   0.169   0.174   0.175   0.183
  0.184   0.189   0.196   0.202   0.211   0.220   0.225   0.231
  0.241   0.245   0.262   0.265   0.271   0.273   0.299   0.309
  0.313   0.315   0.319   0.330   0.355   0.365   0.371   0.394
  0.436   0.455   0.470   0.501   0.525   0.529   0.553   0.568
  0.569   0.605   0.612   0.634   0.654   0.657   0.670   0.673
  0.700   0.703   0.722   0.727   0.738   0.746   0.749   0.752
  0.790   0.797   0.812   0.826   0.846   0.893   0.905   0.948
  0.953   0.953   0.956   0.969   0.971   0.992   0.998   1.012
  1.017   1.044   1.054   1.064   1.081   1.092   1.100   1.109
  1.127   1.179   1.194   1.223   1.237   1.277   1.326   1.346
  1.354   1.361   1.364   1.391   1.449   1.460   1.491   1.545
  1.576   1.687   1.693   1.761   1.786   1.878   1.888   1.891
  1.909   1.927   1.934   1.967   2.017   2.022   2.068   2.072
  2.136   2.161   2.179   2.210   2.226   2.241   2.259   2.307
  2.366   2.369   2.432   2.449   2.455   2.472   2.493   2.514
  2.514   2.539   2.581   2.591   2.604   2.654   2.692   2.713
  2.772   2.790   2.866   2.894   2.946   3.146   3.196   3.270
  3.271   3.404   3.425   3.717   3.746   3.954   3.990   4.266
  4.312   4.322   4.330   4.417   4.537   4.655   4.716
 --------------------------------------------------------------
 
          Ground-State Mulliken Net Atomic Charges

     Atom                 Charge (a.u.)
  ----------------------------------------
      1 S                     0.004377
      2 C                    -0.055200
      3 H                     0.187734
      4 C                    -0.416313
      5 H                     0.116394
      6 C                     0.285028
      7 H                     0.144580
      8 C                    -0.272422
      9 C                    -0.263334
     10 C                     0.285592
     11 H                     0.144584
     12 C                    -0.414353
     13 H                     0.116438
     14 C                    -0.055702
     15 H                     0.187778
     16 S                     0.004818
  ----------------------------------------
  Sum of atomic charges =     0.000000

 -----------------------------------------------------------------
                    Cartesian Multipole Moments
 -----------------------------------------------------------------
    Charge (ESU x 10^10)
                 0.0000
    Dipole Moment (Debye)
         X       0.4163      Y       0.3678      Z      -0.7415
       Tot       0.9265
    Quadrupole Moments (Debye-Ang)
        XX     -63.8905     XY       0.7513     YY     -75.8492
        XZ       3.9748     YZ      -3.0612     ZZ     -65.7257
    Octopole Moments (Debye-Ang^2)
       XXX     159.4854    XXY      -3.4171    XYY      56.0183
       YYY      19.3551    XXZ     105.9207    XYZ       2.5037
       YYZ     136.4057    XZZ      47.0131    YZZ      24.0238
       ZZZ     381.6560
    Hexadecapole Moments (Debye-Ang^3)
      XXXX   -1797.7872   XXXY     -26.3348   XXYY    -385.0186
      XYYY     -80.4689   YYYY    -248.4761   XXXZ    -578.3131
      XXYZ      12.8272   XYYZ    -230.6787   YYYZ     -12.6178
      XXZZ    -609.5605   XYZZ     -57.5383   YYZZ    -435.6813
      XZZZ    -640.6117   YZZZ     -96.4670   ZZZZ   -2311.9802
 -----------------------------------------------------------------
 Calculating analytic gradient of the SCF energy
 Gradient of SCF Energy
            1           2           3           4           5           6
    1  -0.0000062   0.0000163  -0.0000050  -0.0000163  -0.0000006   0.0000345
    2  -0.0000191   0.0000311  -0.0000097   0.0000346  -0.0000290  -0.0015090
    3  -0.0000508   0.0000085   0.0000029  -0.0000083   0.0000103   0.0000208
            7           8           9          10          11          12
    1   0.0000020  -0.0003911   0.0008945  -0.0005689  -0.0000119   0.0000327
    2  -0.0000034   0.0029575  -0.0025176   0.0010378   0.0000117  -0.0000171
    3   0.0000065   0.0005385  -0.0014339   0.0009397   0.0000096  -0.0000147
           13          14          15          16
    1  -0.0000150  -0.0000017   0.0000008   0.0000357
    2   0.0000190  -0.0000244   0.0000015   0.0000362
    3   0.0000219  -0.0000400  -0.0000020  -0.0000093
 Max gradient component =       2.957E-03
 RMS gradient           =       6.916E-04
 Gradient time:  CPU 2.12 s  wall 2.07 s
 Geometry Optimization Parameters
   NAtoms,    NIC,     NZ,  NCons,   NDum,   NFix, NCnnct, MaxDiis
       16     111       0       1       0       0       0       0

 Cartesian Hessian Update
 Hessian Updated using BFGS Update


** CONSTRAINED OPTIMIZATION IN DELOCALIZED INTERNAL COORDINATES **
   Searching for a Minimum

   Optimization Cycle:   6

                       Coordinates (Angstroms)
     ATOM                X               Y               Z
      1  S         0.0143960804    0.0610874904    0.0211846581
      2  C         1.7478749726    0.0354967308    0.0009451070
      3  H         2.2997179064    0.0376298782    0.9310161500
      4  C         2.2381637910    0.0130401219   -1.2786202886
      5  H         3.2968396334   -0.0100123293   -1.5109172016
      6  C         1.2078075088    0.0004608247   -2.2646853240
      7  H         1.3872589711   -0.0517282640   -3.3324438236
      8  C        -0.0624651215    0.0309387804   -1.7312017928
      9  C        -1.3328635018    0.0274745015   -2.4477984135
     10  C        -1.7130150911    0.8390139528   -3.4946982044
     11  H        -1.0670611004    1.6131473619   -3.8928644561
     12  C        -3.0331708007    0.5762859688   -3.9663257308
     13  H        -3.5024029083    1.1172493544   -4.7803418634
     14  C        -3.6579098642   -0.4219164626   -3.2654060695
     15  H        -4.6567326622   -0.8136130851   -3.4019149515
     16  S        -2.6339438237   -1.0717931550   -2.0266050652
   Point Group: c1    Number of degrees of freedom:    42


   Energy is  -1104.839279251

              Constraints and their Current Values
                                        Value     Constraint
   Dihedral:        6   8   9  10      -50.000      -50.000
 Hessian Updated using BFGS Update

 41 Hessian modes will be used to form the next step
  Hessian Eigenvalues:
     0.014226    0.028377    0.045000    0.045000    0.045000    0.045000
     0.045002    0.045004    0.045012    0.045028    0.045734    0.051315
     0.159095    0.159977    0.159991    0.159995    0.160010    0.160435
     0.221178    0.221286    0.225115    0.237842    0.250007    0.274567
     0.294438    0.297664    0.312568    0.314017    0.354781    0.354960
     0.355130    0.355375    0.358275    0.358729    0.390786    0.404883
     0.428048    0.463589    0.474521    0.497933    0.506618

 Minimum Search - Taking Simple RFO Step
 Searching for Lamda that Minimizes Along All modes
 Value Taken    Lamda =   0.00000000
 Step Taken.  Stepsize is  0.002800

                             Maximum     Tolerance    Cnvgd?
         Gradient           0.000063      0.000300     YES
         Displacement       0.001527      0.001200      NO
         Energy change     -0.000001      0.000001     YES

 Final energy is   -1104.83927925123     


 ******************************
 **  OPTIMIZATION CONVERGED  **
 ******************************

                       Coordinates (Angstroms)
     ATOM                X               Y               Z
      1  S         0.0143960804    0.0610874904    0.0211846581
      2  C         1.7478749726    0.0354967308    0.0009451070
      3  H         2.2997179064    0.0376298782    0.9310161500
      4  C         2.2381637910    0.0130401219   -1.2786202886
      5  H         3.2968396334   -0.0100123293   -1.5109172016
      6  C         1.2078075088    0.0004608247   -2.2646853240
      7  H         1.3872589711   -0.0517282640   -3.3324438236
      8  C        -0.0624651215    0.0309387804   -1.7312017928
      9  C        -1.3328635018    0.0274745015   -2.4477984135
     10  C        -1.7130150911    0.8390139528   -3.4946982044
     11  H        -1.0670611004    1.6131473619   -3.8928644561
     12  C        -3.0331708007    0.5762859688   -3.9663257308
     13  H        -3.5024029083    1.1172493544   -4.7803418634
     14  C        -3.6579098642   -0.4219164626   -3.2654060695
     15  H        -4.6567326622   -0.8136130851   -3.4019149515
     16  S        -2.6339438237   -1.0717931550   -2.0266050652

Z-matrix Print:
$molecule
0 1
S 
C  1 1.733786
H  2 1.081465 1 120.007571
C  2 1.370465 1 111.643564 3 179.944411 0
H  4 1.084107 2 123.351394 1 -179.696608 0
C  4 1.426225 2 112.781255 1 -0.691200 0
H  6 1.083990 4 124.184247 2 -177.813237 0
C  6 1.378088 4 113.457859 2 0.794767 0
C  8 1.458573 6 127.777838 4 -179.946424 0
C  9 1.378082 8 127.741358 6 -49.999999 0
H  10 1.084009 9 122.357890 8 -1.168287 0
C  10 1.426278 9 113.456751 8 -179.784862 0
H  12 1.084178 10 123.845653 9 179.791284 0
C  12 1.370400 10 112.768482 9 0.786442 0
H  14 1.081530 12 128.335573 10 179.294718 0
S  14 1.733630 12 111.670541 10 -0.677180 0
$end

 
 --------------------------------------------------------------
 
                    Orbital Energies (a.u.)
 --------------------------------------------------------------
 
 Alpha MOs
 -- Occupied --
-88.920 -88.920 -10.237 -10.237 -10.225 -10.225 -10.204 -10.204
-10.203 -10.203  -7.979  -7.979  -5.943  -5.943  -5.939  -5.939
 -5.936  -5.936  -0.899  -0.878  -0.770  -0.746  -0.738  -0.705
 -0.602  -0.574  -0.558  -0.534  -0.524  -0.477  -0.419  -0.416
 -0.411  -0.404  -0.397  -0.376  -0.374  -0.355  -0.348  -0.268
 -0.262  -0.260  -0.222
 -- Virtual --
 -0.049  -0.017  -0.006  -0.001   0.004   0.016   0.017   0.026
  0.029   0.034   0.037   0.043   0.047   0.050   0.058   0.067
  0.070   0.075   0.092   0.095   0.101   0.103   0.106   0.114
  0.115   0.121   0.124   0.132   0.134   0.135   0.140   0.144
  0.147   0.152   0.152   0.161   0.169   0.174   0.175   0.183
  0.184   0.189   0.196   0.202   0.211   0.220   0.225   0.231
  0.241   0.245   0.262   0.265   0.271   0.273   0.299   0.309
  0.313   0.315   0.319   0.330   0.355   0.365   0.371   0.394
  0.436   0.455   0.470   0.501   0.525   0.529   0.553   0.568
  0.569   0.605   0.612   0.634   0.654   0.657   0.670   0.673
  0.700   0.703   0.722   0.727   0.738   0.746   0.749   0.752
  0.790   0.797   0.812   0.826   0.846   0.893   0.905   0.948
  0.953   0.953   0.956   0.969   0.971   0.992   0.998   1.012
  1.017   1.044   1.054   1.064   1.081   1.092   1.100   1.109
  1.127   1.179   1.194   1.223   1.237   1.277   1.326   1.346
  1.354   1.361   1.364   1.391   1.449   1.460   1.491   1.545
  1.576   1.687   1.693   1.761   1.786   1.878   1.888   1.891
  1.909   1.927   1.934   1.967   2.017   2.022   2.068   2.072
  2.136   2.161   2.179   2.210   2.226   2.241   2.259   2.307
  2.366   2.369   2.432   2.449   2.455   2.472   2.493   2.514
  2.514   2.539   2.581   2.591   2.604   2.654   2.692   2.713
  2.772   2.790   2.866   2.894   2.946   3.146   3.196   3.270
  3.271   3.404   3.425   3.717   3.746   3.954   3.990   4.266
  4.312   4.322   4.330   4.417   4.537   4.655   4.716
 --------------------------------------------------------------
 
          Ground-State Mulliken Net Atomic Charges

     Atom                 Charge (a.u.)
  ----------------------------------------
      1 S                     0.004377
      2 C                    -0.055200
      3 H                     0.187734
      4 C                    -0.416313
      5 H                     0.116394
      6 C                     0.285028
      7 H                     0.144580
      8 C                    -0.272422
      9 C                    -0.263334
     10 C                     0.285592
     11 H                     0.144584
     12 C                    -0.414353
     13 H                     0.116438
     14 C                    -0.055702
     15 H                     0.187778
     16 S                     0.004818
  ----------------------------------------
  Sum of atomic charges =     0.000000

 -----------------------------------------------------------------
                    Cartesian Multipole Moments
 -----------------------------------------------------------------
    Charge (ESU x 10^10)
                 0.0000
    Dipole Moment (Debye)
         X       0.4163      Y       0.3678      Z      -0.7415
       Tot       0.9265
    Quadrupole Moments (Debye-Ang)
        XX     -63.8905     XY       0.7513     YY     -75.8492
        XZ       3.9748     YZ      -3.0612     ZZ     -65.7257
    Octopole Moments (Debye-Ang^2)
       XXX     159.4854    XXY      -3.4171    XYY      56.0183
       YYY      19.3551    XXZ     105.9207    XYZ       2.5037
       YYZ     136.4057    XZZ      47.0131    YZZ      24.0238
       ZZZ     381.6560
    Hexadecapole Moments (Debye-Ang^3)
      XXXX   -1797.7872   XXXY     -26.3348   XXYY    -385.0186
      XYYY     -80.4689   YYYY    -248.4761   XXXZ    -578.3131
      XXYZ      12.8272   XYYZ    -230.6787   YYYZ     -12.6178
      XXZZ    -609.5605   XYZZ     -57.5383   YYZZ    -435.6813
      XZZZ    -640.6117   YZZZ     -96.4670   ZZZZ   -2311.9802
 -----------------------------------------------------------------
Archival summary:
1\1\nid00480\OPT\ProcedureUnspecified\BasisUnspecified\286\bwood\WedMay3102:25:362017WedMay3102:25:362017\0\\#,OPT,ProcedureUnspecified,BasisUnspecified,\\0,1\S\C,1,1.73379\H,2,1.08147,1,120.008\C,2,1.37047,1,111.644,3,179.944,0\H,4,1.08411,2,123.351,1,-179.697,0\C,4,1.42622,2,112.781,1,-0.6912,0\H,6,1.08399,4,124.184,2,-177.813,0\C,6,1.37809,4,113.458,2,0.794767,0\C,8,1.45857,6,127.778,4,-179.946,0\C,9,1.37808,8,127.741,6,-50,0\H,10,1.08401,9,122.358,8,-1.16829,0\C,10,1.42628,9,113.457,8,-179.785,0\H,12,1.08418,10,123.846,9,179.791,0\C,12,1.3704,10,112.768,9,0.786442,0\H,14,1.08153,12,128.336,10,179.295,0\S,14,1.73363,12,111.671,10,-0.67718,0\\\@

 Total job time:  49.69s(wall), 49.70s(cpu) 
 Wed May 31 02:25:36 2017

        *************************************************************
        *                                                           *
        *  Thank you very much for using Q-Chem.  Have a nice day.  *
        *                                                           *
        *************************************************************


0 sent ACK to 0 
now end server 0 ... 
