srun -N 1 --ntasks-per-node 16 --cpus-per-task 4 --cpu_bind=cores --nodelist nid00486 /global/project/projectdirs/jcesr/qchem/qc44/cnl_qc441/dist/exe/qcprog.cori.haswell.exe .pt_n2_neutral_-30.0.in.48447.qcin.1 /global/cscratch1/sd/bwood/qchem/nx/qchem48447/
Process 1 of 16 is on nid00486 - thread support 0
Process 2 of 16 is on nid00486 - thread support 0
Process 3 of 16 is on nid00486 - thread support 0
Process 4 of 16 is on nid00486 - thread support 0
Process 5 of 16 is on nid00486 - thread support 0
Process 0 of 16 is on nid00486 - thread support 0
Process 6 of 16 is on nid00486 - thread support 0
Process 15 of 16 is on nid00486 - thread support 0
initial socket setup ...start
initial socket setup ...done 
now start server 0 ... 
nid00486 10.128.1
Q-Chem Developer Version! Running on 10.128.1.*
                  Welcome to Q-Chem
     A Quantum Leap Into The Future Of Chemistry


 Q-Chem 4.4, Q-Chem, Inc., Pleasanton, CA (2016)

 Y. Shao,  Z. Gan,  E. Epifanovsky,  A. T. B. Gilbert,  M. Wormit,  
 J. Kussmann,  A. W. Lange,  A. Behn,  J. Deng,  X. Feng,  D. Ghosh,  
 M. Goldey,  P. R. Horn,  L. D. Jacobson,  I. Kaliman,  F. Rob,  
 R. Z. Khaliullin,  T. Kus,  A. Landau,  J. Liu,  E. I. Proynov,  Y. M. Rhee,  
 R. M. Richard,  M. A. Rohrdanz,  R. P. Steele,  E. J. Sundstrom,  
 H. L. Woodcock III,  P. M. Zimmerman,  D. Zuev,  B. Albrecht,  E. Alguire,  
 B. Austin,  S. A. Baeppler,  G. J. O. Beran,  Y. A. Bernard,  
 E. J. Berquist,  K. Brandhorst,  K. B. Bravaya,  S. T. Brown,  D. Casanova,  
 C.-M. Chang,  Y. Chen,  S. H. Chien,  K. D. Closser,  M. P. Coons,  
 D. L. Crittenden,  S. Dasgupta,  M. Diedenhofen,  R. A. DiStasio Jr.,  
 H. Do,  A. D. Dutoi,  R. G. Edgar,  P.-T. Fang,  S. Fatehi,  Q. Feng,  
 L. Fusti-Molnar,  A. Ghysels,  A. Golubeva-Zadorozhnaya,  J. Gomes,  
 A. Gunina,  M. W. D. Hanson-Heine,  P. H. P. Harbach,  A. W. Hauser,  
 J. E. Herr,  E. G. Hohenstein,  Z. C. Holden,  K. Hui,  T.-C. Jagau,  H. Ji,  
 B. Kaduk,  K. Khistyaev,  Jaehoon Kim,  Jihan Kim,  R. A. King,  
 P. Klunzinger,  K. Koh,  D. Kosenkov,  T. Kowalczyk,  C. M. Krauter,  
 A. Kunitsa,  K. U. Lao,  A. Laurent,  K. V. Lawler,  J. Lee,  D. Lefrancois,  
 S. Lehtola,  S. V. Levchenko,  C. Y. Lin,  Y.-S. Lin,  F. Liu,  E. Livshits,  
 R. C. Lochan,  A. Luenser,  P. Manohar,  S. F. Manzer,  S.-P. Mao,  Y. Mao,  
 N. Mardirossian,  A. V. Marenich,  L. A. Martinez-Martinez,  S. A. Maurer,  
 N. J. Mayhall,  J.-M. Mewes,  A. F. Morrison,  K. Nanda,  T. S. Nguyen-Beck,  
 C. M. Oana,  R. Olivares-Amaya,  D. P. O'Neill,  J. A. Parkhill,  
 T. M. Perrine,  R. Peverati,  P. A. Pieniazek,  F. Plasser,  A. Prociuk,  
 D. R. Rehn,  E. Rosta,  N. J. Russ,  N. Sergueev,  S. M. Sharada,  
 S. Sharma,  D. W. Small,  A. Sodt,  T. Stauch,  T. Stein,  D. Stuck,  
 Y.-C. Su,  A. J. W. Thom,  T. Tsuchimochi,  L. Vogt,  O. Vydrov,  T. Wang,  
 M. A. Watson,  J. Wenzel,  A. White,  C. F. Williams,  V. Vanovschi,  
 K. Yao,  S. Yeganeh,  S. R. Yost,  Z.-Q. You,  I. Y. Zhang,  X. Zhang,  
 Y. Zhao,  B. R. Brooks,  G. K. L. Chan,  D. M. Chipman,  C. J. Cramer,  
 W. A. Goddard III,  M. S. Gordon,  W. J. Hehre,  A. Klamt,  
 H. F. Schaefer III,  M. W. Schmidt,  C. D. Sherrill,  D. G. Truhlar,  
 A. Warshel,  X. Xu,  A. Aspuru-Guzik,  R. Baer,  A. T. Bell,  N. A. Besley,  
 J.-D. Chai,  A. Dreuw,  B. D. Dunietz,  T. R. Furlani,  S. R. Gwaltney,  
 C.-P. Hsu,  Y. Jung,  J. Kong,  D. S. Lambrecht,  W. Liang,  C. Ochsenfeld,  
 V. A. Rassolov,  L. V. Slipchenko,  J. E. Subotnik,  T. Van Voorhis,  
 J. M. Herbert,  A. I. Krylov,  P. M. W. Gill,  M. Head-Gordon

 Contributors to earlier versions of Q-Chem not listed above: 
 R. D. Adamson,  J. Baker,  E. F. C. Byrd,  A. K. Chakraborty,  C.-L. Cheng,  
 H. Dachsel,  R. J. Doerksen,  G. Hawkins,  A. Heyden,  S. Hirata,  
 G. Kedziora,  F. J. Keil,  C. Kelley,  P. P. Korambath,  W. Kurlancheek,  
 A. M. Lee,  M. S. Lee,  D. Liotard,  I. Lotan,  P. E. Maslen,  N. Nair,  
 D. Neuhauser,  R. Olson,  B. Peters,  J. Ritchie,  N. E. Schultz,  
 N. Shenvi,  A. C. Simmonett,  K. S. Thanthiriwatte,  Q. Wu,  W. Zhang

 Please cite Q-Chem as follows:
 Y. Shao et al., Mol. Phys. 113, 184-215 (2015)
 DOI: 10.1080/00268976.2014.952696

 Q-Chem 4.4.2 for Intel X86 EM64T Linux

 Parts of Q-Chem use Armadillo 5.200.1 (Boston Tea Smuggler).
 http://arma.sourceforge.net/

 Q-Chem begins on Wed May 31 02:24:46 2017  

Host: nid00447
0

     Scratch files written to /global/cscratch1/sd/bwood/qchem/nx/qchem48447.0//
 Parallel job on  16  processors

Checking the input file for inconsistencies... 	...done.

--------------------------------------------------------------
User input:
--------------------------------------------------------------
$molecule
 0  1
 S           0.00238887        0.06077275        0.00183269
 C           1.73707619        0.03315849        0.00323229
 H           2.27612737        0.05289032        0.94042557
 C           2.24169204       -0.01546201       -1.26965798
 H           3.30285780       -0.04005365       -1.48972496
 C           1.22479222       -0.01612968       -2.26811464
 H           1.42674790       -0.02650987       -3.33334501
 C          -0.05393771        0.02880388       -1.75170966
 C          -1.32450815        0.04889988       -2.45636342
 C          -1.61927000        0.56834578       -3.70028056
 H          -0.87302722        1.03610928       -4.33284446
 C          -2.98269975        0.39898504       -4.07877888
 H          -3.39262504        0.73643102       -5.02386412
 C          -3.72262077       -0.24933774       -3.12519163
 H          -4.77050983       -0.51516394       -3.15250879
 S          -2.76440370       -0.64953580       -1.73551655
$end


$rem
         jobtype = opt
        exchange = b3lyp
           basis = 6-31++g**
  max_scf_cycles = 150
      mem_static = 775
       mem_total = 7750
      sym_ignore = true
        symmetry = false
          thresh = 12
$end


$opt
CONSTRAINT
tors 6 8 9 10 -30.0
ENDCONSTRAINT
$end

--------------------------------------------------------------
 ----------------------------------------------------------------
             Standard Nuclear Orientation (Angstroms)
    I     Atom           X                Y                Z
 ----------------------------------------------------------------
    1      S       0.0023888700     0.0607727500     0.0018326900
    2      C       1.7370761900     0.0331584900     0.0032322900
    3      H       2.2761273700     0.0528903200     0.9404255700
    4      C       2.2416920400    -0.0154620100    -1.2696579800
    5      H       3.3028578000    -0.0400536500    -1.4897249600
    6      C       1.2247922200    -0.0161296800    -2.2681146400
    7      H       1.4267479000    -0.0265098700    -3.3333450100
    8      C      -0.0539377100     0.0288038800    -1.7517096600
    9      C      -1.3245081500     0.0488998800    -2.4563634200
   10      C      -1.6192700000     0.5683457800    -3.7002805600
   11      H      -0.8730272200     1.0361092800    -4.3328444600
   12      C      -2.9826997500     0.3989850400    -4.0787788800
   13      H      -3.3926250400     0.7364310200    -5.0238641200
   14      C      -3.7226207700    -0.2493377400    -3.1251916300
   15      H      -4.7705098300    -0.5151639400    -3.1525087900
   16      S      -2.7644037000    -0.6495358000    -1.7355165500
 ----------------------------------------------------------------
 Nuclear Repulsion Energy =   632.2055938993 hartrees
 There are       43 alpha and       43 beta electrons
 Requested basis set is 6-31++G(d,p)
 There are 76 shells and 234 basis functions

 Total QAlloc Memory Limit   7750 MB
 Mega-Array Size       758 MB
 MEM_STATIC part       775 MB
 A cutoff of  1.0D-12 yielded   2527 shell pairs
 There are     24871 function pairs

 Q-Chem warning in module /project/projectdirs/jcesr/qchem/qc44/cnl_qc441/compile/cori/qc_src/libqints/qchem/aobasis.C, line 68:

 Using reconstructed effective core potential

 
 -------------------------------------------------------
 OpenMP Integral Computing Module                       
 Release: version 1.0, May 2013, Q-Chem Inc. Pittsburgh 
 -------------------------------------------------------
 Integral Job Info:
 Integral job number is                      11
 Integral operator is                         1
 short-range coefficients                     0
 long-range coefficients              100000000
 Omega coefficients                           0
 if combine SR and LR in K                    0
 Integral screening is                        0
 Integral computing path is                   2
 max size of driver memory is            800000
 size of driver memory is                593474
 size of scratch memory is             15166112
 max col of scratch BK array               1296
 max len of scratch array in speh3          155
 max len of scratch index in speh4           18
 max int batch size is                      520
 min int batch size is                       52
 fixed nKL is                                52
 max L of basis functions is                  2
 order of int derivative is                   0
 number of shells is                         76
 number of basis is                         234
 number of cartesian basis is               234
 number of contracted shell pairs          2527
 number of primitive shell pairs           8239
 maxK2 (contraction) of shell pair           36
 max number of K2 of shell pair               1
 max number of CS2 of shell pair            260
 max number of PS2 of shell pair           1500
 mem total for path MDJ                   51992
 -------------------------------------------------------
 Smallest overlap matrix eigenvalue = 9.87E-07
 Linear dependence detected in AO basis
 Number of orthogonalized atomic orbitals = 233
 Maximum deviation from orthogonality = 8.285E-11

 Scale SEOQF with 1.000000e-01/1.000000e-01/1.000000e-01

 Standard Electronic Orientation quadrupole field applied
 Nucleus-field energy     =    -0.0000000335 hartrees
 Guess from superposition of atomic densities
 Warning:  Energy on first SCF cycle will be non-variational
 A restricted hybrid HF-DFT SCF calculation will be
 performed using Pulay DIIS extrapolation
 Exchange:     0.2000 Hartree-Fock + 0.0800 Slater + 0.7200 B88
 Correlation:  0.1900 VWN1RPA + 0.8100 LYP
 Using SG-1 standard quadrature grid
 SCF converges when DIIS error is below 1.0E-08
 ---------------------------------------
  Cycle       Energy         DIIS Error
 ---------------------------------------
    1   -1107.1965512443      4.43E-02
    2   -1104.6615745516      4.84E-03
    3   -1104.3625003332      7.72E-03
    4   -1104.8280770323      1.14E-03
    5   -1104.8370757731      5.37E-04
    6   -1104.8388184348      2.12E-04
    7   -1104.8391172419      8.93E-05
    8   -1104.8391738468      1.81E-05
    9   -1104.8391763000      2.07E-06
   10   -1104.8391763338      6.02E-07
   11   -1104.8391763356      3.58E-07
   12   -1104.8391763367      7.81E-08
   13   -1104.8391763361      3.94E-08
   14   -1104.8391763360      6.62E-09 Convergence criterion met
 ---------------------------------------
 SCF time:  CPU 7.84 s  wall 7.33 s
 SCF   energy in the final basis set = -1104.8391763360
 Total energy in the final basis set = -1104.8391763360
 
 --------------------------------------------------------------
 
                    Orbital Energies (a.u.)
 --------------------------------------------------------------
 
 Alpha MOs
 -- Occupied --
-88.919 -88.919 -10.239 -10.238 -10.225 -10.225 -10.205 -10.205
-10.204 -10.204  -7.979  -7.979  -5.943  -5.943  -5.939  -5.939
 -5.936  -5.936  -0.900  -0.878  -0.771  -0.749  -0.737  -0.705
 -0.604  -0.578  -0.555  -0.534  -0.526  -0.477  -0.420  -0.418
 -0.409  -0.404  -0.400  -0.375  -0.374  -0.358  -0.344  -0.278
 -0.263  -0.259  -0.215
 -- Virtual --
 -0.055  -0.015  -0.005  -0.000   0.004   0.015   0.018   0.027
  0.028   0.037   0.037   0.046   0.047   0.058   0.059   0.070
  0.072   0.080   0.090   0.095   0.103   0.104   0.107   0.112
  0.117   0.123   0.125   0.131   0.135   0.139   0.140   0.143
  0.147   0.151   0.161   0.165   0.167   0.176   0.181   0.184
  0.185   0.193   0.196   0.208   0.215   0.216   0.226   0.232
  0.252   0.255   0.265   0.265   0.267   0.271   0.306   0.307
  0.313   0.319   0.322   0.352   0.358   0.371   0.386   0.416
  0.449   0.467   0.497   0.530   0.534   0.552   0.563   0.566
  0.604   0.619   0.621   0.653   0.662   0.669   0.676   0.691
  0.708   0.716   0.722   0.725   0.738   0.746   0.751   0.793
  0.796   0.817   0.829   0.849   0.887   0.914   0.939   0.949
  0.952   0.956   0.963   0.969   0.980   0.990   1.002   1.012
  1.043   1.054   1.068   1.085   1.093   1.109   1.124   1.138
  1.172   1.173   1.187   1.245   1.258   1.338   1.340   1.350
  1.356   1.365   1.382   1.435   1.490   1.498   1.552   1.590
  1.669   1.693   1.724   1.784   1.867   1.877   1.885   1.910
  1.925   1.953   1.983   2.010   2.026   2.067   2.078   2.134
  2.141   2.178   2.188   2.234   2.244   2.275   2.292   2.365
  2.366   2.423   2.451   2.466   2.473   2.500   2.502   2.516
  2.543   2.577   2.582   2.591   2.674   2.692   2.718   2.770
  2.781   2.858   2.924   2.967   3.141   3.208   3.270   3.271
  3.398   3.428   3.712   3.751   3.945   4.008   4.242   4.299
  4.304   4.324   4.406   4.539   4.649   4.728
 --------------------------------------------------------------
 
          Ground-State Mulliken Net Atomic Charges

     Atom                 Charge (a.u.)
  ----------------------------------------
      1 S                    -0.091122
      2 C                    -0.001149
      3 H                     0.194931
      4 C                    -0.335977
      5 H                     0.120589
      6 C                     0.317335
      7 H                     0.128188
      8 C                    -0.335495
      9 C                    -0.327180
     10 C                     0.316096
     11 H                     0.128060
     12 C                    -0.335026
     13 H                     0.120598
     14 C                    -0.001756
     15 H                     0.194927
     16 S                    -0.093017
  ----------------------------------------
  Sum of atomic charges =     0.000000

 -----------------------------------------------------------------
                    Cartesian Multipole Moments
 -----------------------------------------------------------------
    Charge (ESU x 10^10)
                 0.0000
    Dipole Moment (Debye)
         X       0.4770      Y       0.2291      Z      -0.8547
       Tot       1.0052
    Quadrupole Moments (Debye-Ang)
        XX     -63.5470     XY       0.8658     YY     -77.7244
        XZ       3.2063     YZ      -2.3416     ZZ     -63.7470
    Octopole Moments (Debye-Ang^2)
       XXX     158.6580    XXY      -5.1080    XYY      62.1926
       YYY       7.3920    XXZ     106.8168    XYZ       1.7586
       YYZ     141.2972    XZZ      49.8545    YZZ      17.9161
       ZZZ     358.0108
    Hexadecapole Moments (Debye-Ang^3)
      XXXX   -1814.2184   XXXY      -3.9203   XXYY    -397.5551
      XYYY     -47.3062   YYYY    -164.1203   XXXZ    -563.1702
      XXYZ      15.4144   XYYZ    -240.9133   YYYZ      18.9743
      XXZZ    -630.8951   XYZZ     -39.6292   YYZZ    -446.0966
      XZZZ    -604.4663   YZZZ     -67.1739   ZZZZ   -2174.5790
 -----------------------------------------------------------------
 Calculating analytic gradient of the SCF energy
 Gradient of SCF Energy
            1           2           3           4           5           6
    1  -0.0018680   0.0002433  -0.0000293   0.0002485  -0.0000224   0.0005647
    2  -0.0015824   0.0017117   0.0007042  -0.0021903   0.0000926  -0.0025068
    3  -0.0004434  -0.0005583   0.0000153   0.0000274   0.0000300   0.0013635
            7           8           9          10          11          12
    1   0.0002920  -0.0008797   0.0017296  -0.0019874   0.0003567  -0.0005469
    2   0.0019230   0.0013232  -0.0009990   0.0019188  -0.0015592   0.0019366
    3  -0.0001051  -0.0012191  -0.0005104   0.0011966  -0.0010791   0.0005875
           13          14          15          16
    1   0.0000020   0.0007428   0.0001619   0.0009921
    2  -0.0000654  -0.0012590  -0.0006665   0.0012185
    3   0.0000399  -0.0011002  -0.0002719   0.0020273
 Max gradient component =       2.507E-03
 RMS gradient           =       1.146E-03
 Gradient time:  CPU 2.09 s  wall 2.12 s
 Geometry Optimization Parameters
   NAtoms,    NIC,     NZ,  NCons,   NDum,   NFix, NCnnct, MaxDiis
       16     111       0       1       0       0       0       0


** CONSTRAINED OPTIMIZATION IN DELOCALIZED INTERNAL COORDINATES **
   Searching for a Minimum

   Optimization Cycle:   1

                       Coordinates (Angstroms)
     ATOM                X               Y               Z
      1  S         0.0023888700    0.0607727500    0.0018326900
      2  C         1.7370761900    0.0331584900    0.0032322900
      3  H         2.2761273700    0.0528903200    0.9404255700
      4  C         2.2416920400   -0.0154620100   -1.2696579800
      5  H         3.3028578000   -0.0400536500   -1.4897249600
      6  C         1.2247922200   -0.0161296800   -2.2681146400
      7  H         1.4267479000   -0.0265098700   -3.3333450100
      8  C        -0.0539377100    0.0288038800   -1.7517096600
      9  C        -1.3245081500    0.0488998800   -2.4563634200
     10  C        -1.6192700000    0.5683457800   -3.7002805600
     11  H        -0.8730272200    1.0361092800   -4.3328444600
     12  C        -2.9826997500    0.3989850400   -4.0787788800
     13  H        -3.3926250400    0.7364310200   -5.0238641200
     14  C        -3.7226207700   -0.2493377400   -3.1251916300
     15  H        -4.7705098300   -0.5151639400   -3.1525087900
     16  S        -2.7644037000   -0.6495358000   -1.7355165500
   Point Group: c1    Number of degrees of freedom:    42


   Energy is  -1104.839176336

              Constraints and their Current Values
                                        Value     Constraint
   Dihedral:        6   8   9  10      -30.000      -30.000

 Attempting to Generate Delocalized Internal Coordinates

 41 Hessian modes will be used to form the next step
  Hessian Eigenvalues:
     0.045000    0.045000    0.045000    0.045000    0.045000    0.045000
     0.045002    0.045002    0.045003    0.045004    0.045011    0.045012
     0.159943    0.159949    0.159991    0.159992    0.160000    0.160000
     0.221282    0.221282    0.237835    0.237839    0.250000    0.250000
     0.294264    0.294663    0.312518    0.312618    0.354736    0.354850
     0.355125    0.355132    0.358226    0.358329    0.378510    0.404854
     0.404909    0.463547    0.463616    0.497922    0.497945

 Minimum Search - Taking Simple RFO Step
 Searching for Lamda that Minimizes Along All modes
 Value Taken    Lamda =  -0.00065351
 Step Taken.  Stepsize is  0.096662

                             Maximum     Tolerance    Cnvgd?
         Gradient           0.007297      0.000300      NO
         Displacement       0.083375      0.001200      NO
         Energy change     *********      0.000001      NO


 New Cartesian Coordinates Obtained by Inverse Iteration

 Displacement from previous Coordinates is:  0.200409
 ----------------------------------------------------------------
             Standard Nuclear Orientation (Angstroms)
    I     Atom           X                Y                Z
 ----------------------------------------------------------------
    1      S       0.0182611423     0.0773853332     0.0227467282
    2      C       1.7518645072     0.0350259873     0.0009726271
    3      H       2.3042592057     0.0441693485     0.9305101967
    4      C       2.2378401329    -0.0001970352    -1.2797595841
    5      H       3.2957118318    -0.0282338470    -1.5149588945
    6      C       1.2071590302    -0.0100467414    -2.2642083398
    7      H       1.3926428259    -0.0401069418    -3.3318435706
    8      C      -0.0641588478     0.0289527823    -1.7307102855
    9      C      -1.3357074190     0.0383585823    -2.4386919528
   10      C      -1.6113910329     0.5572331211    -3.6866329312
   11      H      -0.8582600764     1.0396618353    -4.2991906180
   12      C      -2.9692827742     0.3887775228    -4.0859169183
   13      H      -3.3657549554     0.7345313947    -5.0338329332
   14      C      -3.7287505403    -0.2466386184    -3.1388243713
   15      H      -4.7801448000    -0.4968764206    -3.1760500633
   16      S      -2.7862080101    -0.6697925532    -1.7460191996
 ----------------------------------------------------------------
 Nuclear Repulsion Energy =   631.2076625737 hartrees
 There are       43 alpha and       43 beta electrons
 Applying Cartesian multipole field
    Component          Value
    ---------          -----
     (2,0,0)        1.00000E-11
     (0,2,0)        2.00000E-11
     (0,0,2)       -3.00000E-11
 Nucleus-field energy     =    -0.0000000334 hartrees
 Requested basis set is 6-31++G(d,p)
 There are 76 shells and 234 basis functions
 A cutoff of  1.0D-12 yielded   2527 shell pairs
 There are     24871 function pairs

 Q-Chem warning in module /project/projectdirs/jcesr/qchem/qc44/cnl_qc441/compile/cori/qc_src/libqints/qchem/aobasis.C, line 68:

 Using reconstructed effective core potential

 Smallest overlap matrix eigenvalue = 1.03E-06
 No. of orbitals has changed due to linear dependencies.  Generating new SCF guess.
 Guess from superposition of atomic densities
 Warning:  Energy on first SCF cycle will be non-variational
 A restricted hybrid HF-DFT SCF calculation will be
 performed using Pulay DIIS extrapolation
 Exchange:     0.2000 Hartree-Fock + 0.0800 Slater + 0.7200 B88
 Correlation:  0.1900 VWN1RPA + 0.8100 LYP
 Using SG-1 standard quadrature grid
 SCF converges when DIIS error is below 1.0E-08
 Geometry optimization detected.  Setting ReadMinima to 0
 Setting SaveMinima to 0
 ---------------------------------------
  Cycle       Energy         DIIS Error
 ---------------------------------------
    1   -1107.1910195080      4.40E-02
    2   -1104.6619475110      4.82E-03
    3   -1104.3636831866      7.68E-03
    4   -1104.8285053499      1.14E-03
    5   -1104.8375354097      5.34E-04
    6   -1104.8392751590      2.10E-04
    7   -1104.8395711445      8.95E-05
    8   -1104.8396285324      1.79E-05
    9   -1104.8396309448      2.05E-06
   10   -1104.8396309789      5.96E-07
   11   -1104.8396309811      3.57E-07
   12   -1104.8396309820      7.84E-08
   13   -1104.8396309811      3.89E-08
   14   -1104.8396309813      6.79E-09 Convergence criterion met
 ---------------------------------------
 SCF time:  CPU 7.71 s  wall 7.19 s
 SCF   energy in the final basis set = -1104.8396309813
 Total energy in the final basis set = -1104.8396309813
 
 --------------------------------------------------------------
 
                    Orbital Energies (a.u.)
 --------------------------------------------------------------
 
 Alpha MOs
 -- Occupied --
-88.920 -88.920 -10.239 -10.239 -10.225 -10.225 -10.205 -10.205
-10.203 -10.203  -7.979  -7.979  -5.943  -5.943  -5.940  -5.940
 -5.936  -5.936  -0.900  -0.878  -0.771  -0.748  -0.737  -0.705
 -0.603  -0.578  -0.555  -0.534  -0.526  -0.477  -0.421  -0.418
 -0.409  -0.404  -0.400  -0.376  -0.374  -0.357  -0.345  -0.278
 -0.263  -0.260  -0.215
 -- Virtual --
 -0.055  -0.014  -0.004  -0.001   0.004   0.015   0.018   0.026
  0.028   0.037   0.038   0.046   0.047   0.057   0.058   0.068
  0.072   0.079   0.090   0.095   0.100   0.104   0.107   0.112
  0.112   0.124   0.124   0.131   0.135   0.138   0.140   0.143
  0.147   0.151   0.160   0.165   0.166   0.174   0.181   0.183
  0.184   0.191   0.194   0.206   0.214   0.216   0.225   0.227
  0.242   0.254   0.261   0.265   0.265   0.271   0.302   0.307
  0.312   0.318   0.321   0.326   0.352   0.367   0.373   0.386
  0.437   0.448   0.467   0.498   0.529   0.539   0.552   0.565
  0.568   0.605   0.623   0.624   0.653   0.663   0.669   0.673
  0.691   0.708   0.714   0.722   0.726   0.738   0.747   0.751
  0.793   0.803   0.817   0.829   0.848   0.887   0.914   0.941
  0.951   0.952   0.957   0.963   0.982   0.990   1.000   1.010
  1.016   1.042   1.056   1.067   1.084   1.095   1.108   1.126
  1.141   1.173   1.187   1.230   1.245   1.256   1.333   1.344
  1.354   1.357   1.365   1.381   1.439   1.487   1.495   1.550
  1.586   1.669   1.693   1.725   1.782   1.871   1.876   1.894
  1.910   1.924   1.954   1.981   2.012   2.022   2.068   2.077
  2.135   2.144   2.179   2.187   2.239   2.242   2.277   2.295
  2.365   2.366   2.423   2.453   2.465   2.470   2.501   2.507
  2.518   2.541   2.576   2.582   2.596   2.677   2.691   2.718
  2.769   2.785   2.859   2.921   2.965   3.141   3.208   3.270
  3.272   3.399   3.429   3.712   3.752   3.946   4.005   4.244
  4.304   4.322   4.334   4.405   4.543   4.649   4.726
 --------------------------------------------------------------
 
          Ground-State Mulliken Net Atomic Charges

     Atom                 Charge (a.u.)
  ----------------------------------------
      1 S                    -0.061671
      2 C                    -0.054893
      3 H                     0.187808
      4 C                    -0.368391
      5 H                     0.116177
      6 C                     0.270010
      7 H                     0.129909
      8 C                    -0.220635
      9 C                    -0.214645
     10 C                     0.269112
     11 H                     0.129720
     12 C                    -0.367734
     13 H                     0.116205
     14 C                    -0.055260
     15 H                     0.187851
     16 S                    -0.063562
  ----------------------------------------
  Sum of atomic charges =     0.000000

 -----------------------------------------------------------------
                    Cartesian Multipole Moments
 -----------------------------------------------------------------
    Charge (ESU x 10^10)
                -0.0000
    Dipole Moment (Debye)
         X       0.4810      Y       0.2302      Z      -0.8604
       Tot       1.0123
    Quadrupole Moments (Debye-Ang)
        XX     -63.5457     XY       0.7532     YY     -77.7033
        XZ       3.2426     YZ      -2.3681     ZZ     -63.8267
    Octopole Moments (Debye-Ang^2)
       XXX     158.8044    XXY      -4.8266    XYY      62.3558
       YYY       7.6182    XXZ     106.5684    XYZ       1.9341
       YYZ     141.0258    XZZ      50.0540    YZZ      18.0104
       ZZZ     357.8770
    Hexadecapole Moments (Debye-Ang^3)
      XXXX   -1819.1563   XXXY      -9.9114   XXYY    -399.4321
      XYYY     -52.1634   YYYY    -165.4279   XXXZ    -564.2593
      XXYZ      13.7598   XYYZ    -242.2294   YYYZ      15.7093
      XXZZ    -631.9850   XYZZ     -41.8491   YYZZ    -446.2411
      XZZZ    -608.1541   YZZZ     -70.0219   ZZZZ   -2177.9485
 -----------------------------------------------------------------
 Calculating analytic gradient of the SCF energy
 Gradient of SCF Energy
            1           2           3           4           5           6
    1   0.0000029   0.0002503   0.0000309  -0.0000918  -0.0000339  -0.0002855
    2   0.0000908  -0.0000682   0.0002046  -0.0002562   0.0000394  -0.0018702
    3   0.0003678   0.0001713   0.0000286   0.0002291   0.0000146   0.0005717
            7           8           9          10          11          12
    1   0.0000956   0.0003255   0.0008203  -0.0006672   0.0003044  -0.0002012
    2   0.0013509   0.0011615  -0.0006093   0.0014113  -0.0011583   0.0000779
    3  -0.0000894  -0.0009155  -0.0011936   0.0012516  -0.0006139   0.0002394
           13          14          15          16
    1   0.0000089  -0.0003609   0.0000122  -0.0002106
    2  -0.0000235   0.0000684  -0.0002038  -0.0002153
    3   0.0000219  -0.0001107  -0.0001178   0.0001449
 Max gradient component =       1.870E-03
 RMS gradient           =       5.979E-04
 Gradient time:  CPU 2.08 s  wall 2.07 s
 Geometry Optimization Parameters
   NAtoms,    NIC,     NZ,  NCons,   NDum,   NFix, NCnnct, MaxDiis
       16     111       0       1       0       0       0       0

 Cartesian Hessian Update
 Hessian Updated using BFGS Update


** CONSTRAINED OPTIMIZATION IN DELOCALIZED INTERNAL COORDINATES **
   Searching for a Minimum

   Optimization Cycle:   2

                       Coordinates (Angstroms)
     ATOM                X               Y               Z
      1  S         0.0182611423    0.0773853332    0.0227467282
      2  C         1.7518645072    0.0350259873    0.0009726271
      3  H         2.3042592057    0.0441693485    0.9305101967
      4  C         2.2378401329   -0.0001970352   -1.2797595841
      5  H         3.2957118318   -0.0282338470   -1.5149588945
      6  C         1.2071590302   -0.0100467414   -2.2642083398
      7  H         1.3926428259   -0.0401069418   -3.3318435706
      8  C        -0.0641588478    0.0289527823   -1.7307102855
      9  C        -1.3357074190    0.0383585823   -2.4386919528
     10  C        -1.6113910329    0.5572331211   -3.6866329312
     11  H        -0.8582600764    1.0396618353   -4.2991906180
     12  C        -2.9692827742    0.3887775228   -4.0859169183
     13  H        -3.3657549554    0.7345313947   -5.0338329332
     14  C        -3.7287505403   -0.2466386184   -3.1388243713
     15  H        -4.7801448000   -0.4968764206   -3.1760500633
     16  S        -2.7862080101   -0.6697925532   -1.7460191996
   Point Group: c1    Number of degrees of freedom:    42


   Energy is  -1104.839630981

              Constraints and their Current Values
                                        Value     Constraint
   Dihedral:        6   8   9  10      -30.000      -30.000
 Hessian Updated using BFGS Update

 37 Hessian modes will be used to form the next step
  Hessian Eigenvalues:
     0.030353    0.045000    0.045000    0.045000    0.045001    0.045006
     0.045012    0.052444    0.159843    0.159949    0.159991    0.159992
     0.160000    0.160020    0.218441    0.221283    0.224814    0.237838
     0.246955    0.250008    0.294447    0.301286    0.312574    0.313031
     0.354726    0.354838    0.355125    0.355130    0.358228    0.358332
     0.383860    0.404875    0.406477    0.463583    0.465157    0.497932
     0.498672

 Minimum Search - Taking Simple RFO Step
 Searching for Lamda that Minimizes Along All modes
 Value Taken    Lamda =  -0.00015658
 Step Taken.  Stepsize is  0.065969

                             Maximum     Tolerance    Cnvgd?
         Gradient           0.001951      0.000300      NO
         Displacement       0.045672      0.001200      NO
         Energy change     -0.000455      0.000001      NO


 New Cartesian Coordinates Obtained by Inverse Iteration

 Displacement from previous Coordinates is:  0.124815
 ----------------------------------------------------------------
             Standard Nuclear Orientation (Angstroms)
    I     Atom           X                Y                Z
 ----------------------------------------------------------------
    1      S       0.0233344244     0.0843642598     0.0321180309
    2      C       1.7566660566     0.0426988522    -0.0035291745
    3      H       2.3156946369     0.0499673265     0.9219524754
    4      C       2.2342791264     0.0057269415    -1.2875635417
    5      H       3.2904075406    -0.0274147844    -1.5301760372
    6      C       1.1962988330    -0.0116064011    -2.2635729375
    7      H       1.3720279797    -0.0643408507    -3.3318086545
    8      C      -0.0707951130     0.0266430557    -1.7193005396
    9      C      -1.3418211233     0.0343953774    -2.4273330479
   10      C      -1.6062812084     0.5558781156    -3.6770174642
   11      H      -0.8522171966     1.0566768729    -4.2732372950
   12      C      -2.9597450105     0.3859533881    -4.0887071921
   13      H      -3.3503222716     0.7387789181    -5.0365501245
   14      C      -3.7260377892    -0.2506371938    -3.1476730663
   15      H      -4.7782707847    -0.4959353385    -3.1911788157
   16      S      -2.7951378802    -0.6789447893    -1.7488327255
 ----------------------------------------------------------------
 Nuclear Repulsion Energy =   631.0599455349 hartrees
 There are       43 alpha and       43 beta electrons
 Applying Cartesian multipole field
    Component          Value
    ---------          -----
     (2,0,0)        1.00000E-11
     (0,2,0)        2.00000E-11
     (0,0,2)       -3.00000E-11
 Nucleus-field energy     =    -0.0000000333 hartrees
 Requested basis set is 6-31++G(d,p)
 There are 76 shells and 234 basis functions
 A cutoff of  1.0D-12 yielded   2529 shell pairs
 There are     24877 function pairs

 Q-Chem warning in module /project/projectdirs/jcesr/qchem/qc44/cnl_qc441/compile/cori/qc_src/libqints/qchem/aobasis.C, line 68:

 Using reconstructed effective core potential

 Smallest overlap matrix eigenvalue = 1.02E-06
 Guess MOs from SCF MO coefficient file
 Reading MOs from coefficient file
 Reading MOs from coefficient file
 A restricted hybrid HF-DFT SCF calculation will be
 performed using Pulay DIIS extrapolation
 Exchange:     0.2000 Hartree-Fock + 0.0800 Slater + 0.7200 B88
 Correlation:  0.1900 VWN1RPA + 0.8100 LYP
 Using SG-1 standard quadrature grid
 SCF converges when DIIS error is below 1.0E-08
 Geometry optimization detected.  Setting ReadMinima to 0
 Setting SaveMinima to 0
 ---------------------------------------
  Cycle       Energy         DIIS Error
 ---------------------------------------
    1   -1104.8406799618      4.34E-04
    2   -1104.8396122887      1.21E-04
    3   -1104.8392930201      2.38E-04
    4   -1104.8397255273      2.44E-05
    5   -1104.8397297535      6.85E-06
    6   -1104.8397300224      2.96E-06
    7   -1104.8397300822      1.04E-06
    8   -1104.8397300907      2.75E-07
    9   -1104.8397300900      4.90E-08
   10   -1104.8397300901      1.61E-08
   11   -1104.8397300900      7.01E-09 Convergence criterion met
 ---------------------------------------
 SCF time:  CPU 6.04 s  wall 6.63 s
 SCF   energy in the final basis set = -1104.8397300900
 Total energy in the final basis set = -1104.8397300900
 
 --------------------------------------------------------------
 
                    Orbital Energies (a.u.)
 --------------------------------------------------------------
 
 Alpha MOs
 -- Occupied --
-88.920 -88.920 -10.239 -10.238 -10.225 -10.225 -10.204 -10.204
-10.203 -10.203  -7.979  -7.979  -5.944  -5.943  -5.940  -5.940
 -5.937  -5.936  -0.900  -0.878  -0.771  -0.748  -0.738  -0.705
 -0.603  -0.578  -0.555  -0.534  -0.526  -0.477  -0.421  -0.417
 -0.409  -0.403  -0.400  -0.376  -0.374  -0.358  -0.345  -0.277
 -0.263  -0.260  -0.215
 -- Virtual --
 -0.055  -0.014  -0.004  -0.001   0.004   0.015   0.018   0.026
  0.028   0.036   0.038   0.046   0.047   0.057   0.057   0.068
  0.072   0.079   0.090   0.095   0.100   0.104   0.107   0.112
  0.112   0.124   0.124   0.131   0.136   0.138   0.140   0.143
  0.147   0.150   0.159   0.165   0.165   0.175   0.181   0.183
  0.184   0.191   0.194   0.206   0.214   0.216   0.225   0.226
  0.242   0.254   0.261   0.265   0.265   0.271   0.303   0.307
  0.312   0.318   0.321   0.325   0.353   0.367   0.373   0.386
  0.437   0.448   0.467   0.498   0.528   0.539   0.552   0.564
  0.569   0.606   0.624   0.625   0.653   0.663   0.669   0.673
  0.691   0.709   0.712   0.722   0.727   0.739   0.747   0.751
  0.793   0.801   0.817   0.829   0.848   0.887   0.914   0.941
  0.951   0.952   0.956   0.964   0.982   0.991   1.003   1.010
  1.016   1.042   1.058   1.068   1.084   1.095   1.107   1.127
  1.140   1.173   1.188   1.231   1.243   1.257   1.329   1.342
  1.356   1.358   1.366   1.384   1.444   1.487   1.491   1.551
  1.582   1.671   1.693   1.726   1.783   1.873   1.877   1.894
  1.910   1.925   1.955   1.980   2.014   2.021   2.070   2.075
  2.135   2.146   2.180   2.189   2.238   2.241   2.277   2.298
  2.366   2.366   2.423   2.454   2.460   2.472   2.502   2.511
  2.517   2.540   2.576   2.583   2.596   2.677   2.691   2.719
  2.770   2.786   2.859   2.920   2.962   3.142   3.207   3.270
  3.272   3.400   3.428   3.712   3.752   3.947   4.003   4.246
  4.305   4.322   4.334   4.405   4.542   4.649   4.725
 --------------------------------------------------------------
 
          Ground-State Mulliken Net Atomic Charges

     Atom                 Charge (a.u.)
  ----------------------------------------
      1 S                    -0.052221
      2 C                    -0.060539
      3 H                     0.187272
      4 C                    -0.365026
      5 H                     0.116361
      6 C                     0.260116
      7 H                     0.131427
      8 C                    -0.219005
      9 C                    -0.213346
     10 C                     0.259146
     11 H                     0.131220
     12 C                    -0.364361
     13 H                     0.116398
     14 C                    -0.060898
     15 H                     0.187331
     16 S                    -0.053873
  ----------------------------------------
  Sum of atomic charges =     0.000000

 -----------------------------------------------------------------
                    Cartesian Multipole Moments
 -----------------------------------------------------------------
    Charge (ESU x 10^10)
                -0.0000
    Dipole Moment (Debye)
         X       0.4773      Y       0.2285      Z      -0.8542
       Tot       1.0049
    Quadrupole Moments (Debye-Ang)
        XX     -63.5858     XY       0.6802     YY     -77.6504
        XZ       3.2354     YZ      -2.3749     ZZ     -63.9238
    Octopole Moments (Debye-Ang^2)
       XXX     159.2166    XXY      -4.7548    XYY      62.3771
       YYY       7.7891    XXZ     106.5234    XYZ       2.1755
       YYZ     140.7177    XZZ      50.1384    YZZ      18.1116
       ZZZ     358.0960
    Hexadecapole Moments (Debye-Ang^3)
      XXXX   -1820.2403   XXXY     -12.7212   XXYY    -399.4888
      XYYY     -54.6357   YYYY    -166.4797   XXXZ    -564.9001
      XXYZ      13.1745   XYYZ    -242.2121   YYYZ      13.7628
      XXZZ    -631.8763   XYZZ     -43.4552   YYZZ    -445.4261
      XZZZ    -608.8717   YZZZ     -71.8223   ZZZZ   -2180.1221
 -----------------------------------------------------------------
 Calculating analytic gradient of the SCF energy
 Gradient of SCF Energy
            1           2           3           4           5           6
    1   0.0000349  -0.0001743  -0.0000175  -0.0000168   0.0000142  -0.0001938
    2   0.0001776  -0.0002994   0.0000045   0.0003883  -0.0001140  -0.0009717
    3   0.0004930  -0.0000919  -0.0000372  -0.0000726  -0.0000584   0.0001142
            7           8           9          10          11          12
    1   0.0000756   0.0002494   0.0001454  -0.0001813   0.0001255   0.0001395
    2   0.0006410   0.0009278  -0.0007113   0.0007784  -0.0005436  -0.0003376
    3  -0.0000313  -0.0001101  -0.0006207   0.0005658  -0.0003149  -0.0001636
           13          14          15          16
    1   0.0000178   0.0000888   0.0000495  -0.0003568
    2   0.0001434   0.0002876  -0.0000059  -0.0003652
    3   0.0000017   0.0002084  -0.0000142   0.0001318
 Max gradient component =       9.717E-04
 RMS gradient           =       3.477E-04
 Gradient time:  CPU 2.09 s  wall 2.08 s
 Geometry Optimization Parameters
   NAtoms,    NIC,     NZ,  NCons,   NDum,   NFix, NCnnct, MaxDiis
       16     111       0       1       0       0       0       0

 Cartesian Hessian Update
 Hessian Updated using BFGS Update


** CONSTRAINED OPTIMIZATION IN DELOCALIZED INTERNAL COORDINATES **
   Searching for a Minimum

   Optimization Cycle:   3

                       Coordinates (Angstroms)
     ATOM                X               Y               Z
      1  S         0.0233344244    0.0843642598    0.0321180309
      2  C         1.7566660566    0.0426988522   -0.0035291745
      3  H         2.3156946369    0.0499673265    0.9219524754
      4  C         2.2342791264    0.0057269415   -1.2875635417
      5  H         3.2904075406   -0.0274147844   -1.5301760372
      6  C         1.1962988330   -0.0116064011   -2.2635729375
      7  H         1.3720279797   -0.0643408507   -3.3318086545
      8  C        -0.0707951130    0.0266430557   -1.7193005396
      9  C        -1.3418211233    0.0343953774   -2.4273330479
     10  C        -1.6062812084    0.5558781156   -3.6770174642
     11  H        -0.8522171966    1.0566768729   -4.2732372950
     12  C        -2.9597450105    0.3859533881   -4.0887071921
     13  H        -3.3503222716    0.7387789181   -5.0365501245
     14  C        -3.7260377892   -0.2506371938   -3.1476730663
     15  H        -4.7782707847   -0.4959353385   -3.1911788157
     16  S        -2.7951378802   -0.6789447893   -1.7488327255
   Point Group: c1    Number of degrees of freedom:    42


   Energy is  -1104.839730090

              Constraints and their Current Values
                                        Value     Constraint
   Dihedral:        6   8   9  10      -30.000      -30.000
 Hessian Updated using BFGS Update

 37 Hessian modes will be used to form the next step
  Hessian Eigenvalues:
     0.019103    0.045000    0.045001    0.045004    0.045006    0.045012
     0.045751    0.051981    0.159721    0.159949    0.159991    0.160000
     0.160020    0.160086    0.221281    0.223074    0.237838    0.245016
     0.250006    0.255252    0.294452    0.300296    0.312570    0.313010
     0.354725    0.354835    0.355129    0.355196    0.358260    0.358410
     0.383440    0.404883    0.410316    0.463585    0.464742    0.497932
     0.498513

 Minimum Search - Taking Simple RFO Step
 Searching for Lamda that Minimizes Along All modes
 Value Taken    Lamda =  -0.00004401
 Step Taken.  Stepsize is  0.044332

                             Maximum     Tolerance    Cnvgd?
         Gradient           0.000806      0.000300      NO
         Displacement       0.027657      0.001200      NO
         Energy change     -0.000099      0.000001      NO


 New Cartesian Coordinates Obtained by Inverse Iteration

 Displacement from previous Coordinates is:  0.069357
 ----------------------------------------------------------------
             Standard Nuclear Orientation (Angstroms)
    I     Atom           X                Y                Z
 ----------------------------------------------------------------
    1      S       0.0260141816     0.0884954563     0.0335783184
    2      C       1.7593806424     0.0488838370    -0.0046778559
    3      H       2.3201596275     0.0582517406     0.9198028784
    4      C       2.2340359653     0.0054973428    -1.2896123428
    5      H       3.2896453346    -0.0307823582    -1.5338271133
    6      C       1.1937298602    -0.0156881888    -2.2634787913
    7      H       1.3659906726    -0.0843491054    -3.3312984025
    8      C      -0.0724347449     0.0242296270    -1.7163699994
    9      C      -1.3437910424     0.0348992733    -2.4237383992
   10      C      -1.6058432382     0.5588907008    -3.6732420227
   11      H      -0.8536839240     1.0730509068    -4.2603024826
   12      C      -2.9579934707     0.3869611862    -4.0892859044
   13      H      -3.3476562418     0.7430730984    -5.0362110833
   14      C      -3.7252565207    -0.2551485507    -3.1528076456
   15      H      -4.7772441297    -0.5013561522    -3.1989191639
   16      S      -2.7969727518    -0.6827050639    -1.7520200998
 ----------------------------------------------------------------
 Nuclear Repulsion Energy =   630.9962657098 hartrees
 There are       43 alpha and       43 beta electrons
 Applying Cartesian multipole field
    Component          Value
    ---------          -----
     (2,0,0)        1.00000E-11
     (0,2,0)        2.00000E-11
     (0,0,2)       -3.00000E-11
 Nucleus-field energy     =    -0.0000000333 hartrees
 Requested basis set is 6-31++G(d,p)
 There are 76 shells and 234 basis functions
 A cutoff of  1.0D-12 yielded   2529 shell pairs
 There are     24877 function pairs

 Q-Chem warning in module /project/projectdirs/jcesr/qchem/qc44/cnl_qc441/compile/cori/qc_src/libqints/qchem/aobasis.C, line 68:

 Using reconstructed effective core potential

 Smallest overlap matrix eigenvalue = 1.01E-06
 Guess MOs from SCF MO coefficient file
 Reading MOs from coefficient file
 Reading MOs from coefficient file
 A restricted hybrid HF-DFT SCF calculation will be
 performed using Pulay DIIS extrapolation
 Exchange:     0.2000 Hartree-Fock + 0.0800 Slater + 0.7200 B88
 Correlation:  0.1900 VWN1RPA + 0.8100 LYP
 Using SG-1 standard quadrature grid
 SCF converges when DIIS error is below 1.0E-08
 Geometry optimization detected.  Setting ReadMinima to 0
 Setting SaveMinima to 0
 ---------------------------------------
  Cycle       Energy         DIIS Error
 ---------------------------------------
    1   -1104.8411551731      2.07E-04
    2   -1104.8397360968      4.82E-05
    3   -1104.8396892126      9.16E-05
    4   -1104.8397558746      1.15E-05
    5   -1104.8397567629      4.44E-06
    6   -1104.8397568832      1.79E-06
    7   -1104.8397569064      5.00E-07
    8   -1104.8397569091      1.39E-07
    9   -1104.8397569114      2.31E-08
   10   -1104.8397569113      6.20E-09 Convergence criterion met
 ---------------------------------------
 SCF time:  CPU 5.64 s  wall 5.67 s
 SCF   energy in the final basis set = -1104.8397569113
 Total energy in the final basis set = -1104.8397569113
 
 --------------------------------------------------------------
 
                    Orbital Energies (a.u.)
 --------------------------------------------------------------
 
 Alpha MOs
 -- Occupied --
-88.920 -88.920 -10.239 -10.238 -10.225 -10.225 -10.205 -10.204
-10.203 -10.203  -7.979  -7.979  -5.944  -5.943  -5.940  -5.940
 -5.937  -5.936  -0.900  -0.878  -0.771  -0.748  -0.738  -0.705
 -0.603  -0.578  -0.555  -0.533  -0.526  -0.477  -0.421  -0.417
 -0.409  -0.403  -0.400  -0.376  -0.374  -0.357  -0.345  -0.277
 -0.263  -0.260  -0.215
 -- Virtual --
 -0.055  -0.014  -0.004  -0.001   0.004   0.015   0.018   0.026
  0.028   0.036   0.038   0.046   0.048   0.056   0.057   0.068
  0.072   0.079   0.090   0.095   0.100   0.104   0.107   0.112
  0.112   0.124   0.125   0.131   0.136   0.138   0.140   0.143
  0.147   0.150   0.159   0.165   0.165   0.175   0.181   0.183
  0.184   0.191   0.194   0.206   0.214   0.216   0.225   0.226
  0.242   0.255   0.261   0.264   0.265   0.271   0.303   0.307
  0.312   0.318   0.321   0.324   0.353   0.366   0.373   0.386
  0.437   0.447   0.467   0.498   0.528   0.538   0.552   0.564
  0.569   0.607   0.624   0.626   0.653   0.663   0.668   0.673
  0.691   0.709   0.712   0.722   0.728   0.740   0.747   0.751
  0.793   0.801   0.817   0.829   0.848   0.887   0.914   0.942
  0.951   0.952   0.956   0.965   0.981   0.991   1.004   1.010
  1.016   1.042   1.059   1.067   1.084   1.095   1.107   1.126
  1.140   1.173   1.188   1.230   1.240   1.257   1.328   1.340
  1.356   1.358   1.367   1.386   1.446   1.488   1.488   1.552
  1.578   1.673   1.693   1.727   1.783   1.873   1.877   1.893
  1.909   1.925   1.955   1.979   2.015   2.021   2.070   2.074
  2.135   2.147   2.180   2.191   2.236   2.240   2.277   2.299
  2.366   2.366   2.423   2.454   2.457   2.472   2.502   2.512
  2.517   2.539   2.576   2.584   2.596   2.677   2.691   2.719
  2.770   2.787   2.859   2.919   2.961   3.141   3.207   3.270
  3.272   3.400   3.428   3.712   3.751   3.947   4.003   4.246
  4.305   4.322   4.333   4.405   4.542   4.649   4.725
 --------------------------------------------------------------
 
          Ground-State Mulliken Net Atomic Charges

     Atom                 Charge (a.u.)
  ----------------------------------------
      1 S                    -0.049534
      2 C                    -0.060479
      3 H                     0.187292
      4 C                    -0.362488
      5 H                     0.116481
      6 C                     0.255043
      7 H                     0.132651
      8 C                    -0.220358
      9 C                    -0.215195
     10 C                     0.254044
     11 H                     0.132419
     12 C                    -0.361902
     13 H                     0.116521
     14 C                    -0.060766
     15 H                     0.187368
     16 S                    -0.051098
  ----------------------------------------
  Sum of atomic charges =     0.000000

 -----------------------------------------------------------------
                    Cartesian Multipole Moments
 -----------------------------------------------------------------
    Charge (ESU x 10^10)
                -0.0000
    Dipole Moment (Debye)
         X       0.4747      Y       0.2275      Z      -0.8498
       Tot       0.9997
    Quadrupole Moments (Debye-Ang)
        XX     -63.5796     XY       0.6521     YY     -77.6121
        XZ       3.2687     YZ      -2.3599     ZZ     -63.9889
    Octopole Moments (Debye-Ang^2)
       XXX     159.2076    XXY      -4.8244    XYY      62.3193
       YYY       7.8344    XXZ     106.4635    XYZ       2.3094
       YYZ     140.5766    XZZ      50.0221    YZZ      18.1083
       ZZZ     358.6059
    Hexadecapole Moments (Debye-Ang^3)
      XXXX   -1820.6436   XXXY     -13.2692   XXYY    -399.5073
      XYYY     -55.4346   YYYY    -167.3130   XXXZ    -564.9086
      XXYZ      13.2984   XYYZ    -242.1928   YYYZ      12.8276
      XXZZ    -631.5136   XYZZ     -44.1233   YYZZ    -444.9602
      XZZZ    -609.2574   YZZZ     -72.4900   ZZZZ   -2183.4660
 -----------------------------------------------------------------
 Calculating analytic gradient of the SCF energy
 Gradient of SCF Energy
            1           2           3           4           5           6
    1   0.0002272  -0.0000071   0.0000207   0.0000706  -0.0000083  -0.0001352
    2  -0.0000931  -0.0001095  -0.0000250   0.0003636  -0.0001582  -0.0002177
    3  -0.0000582   0.0000427   0.0000095   0.0000636   0.0000150  -0.0001275
            7           8           9          10          11          12
    1  -0.0000053  -0.0000977   0.0000200   0.0001312   0.0000211  -0.0000213
    2   0.0001485   0.0005083  -0.0005365   0.0002009  -0.0001362  -0.0003389
    3   0.0000235   0.0001864  -0.0000247   0.0001280  -0.0000434  -0.0001599
           13          14          15          16
    1  -0.0000395  -0.0000462  -0.0000233  -0.0001069
    2   0.0001405   0.0000913   0.0000154   0.0001464
    3   0.0000739   0.0000620  -0.0000071  -0.0001840
 Max gradient component =       5.365E-04
 RMS gradient           =       1.637E-04
 Gradient time:  CPU 2.08 s  wall 2.07 s
 Geometry Optimization Parameters
   NAtoms,    NIC,     NZ,  NCons,   NDum,   NFix, NCnnct, MaxDiis
       16     111       0       1       0       0       0       0

 Cartesian Hessian Update
 Hessian Updated using BFGS Update


** CONSTRAINED OPTIMIZATION IN DELOCALIZED INTERNAL COORDINATES **
   Searching for a Minimum

   Optimization Cycle:   4

                       Coordinates (Angstroms)
     ATOM                X               Y               Z
      1  S         0.0260141816    0.0884954563    0.0335783184
      2  C         1.7593806424    0.0488838370   -0.0046778559
      3  H         2.3201596275    0.0582517406    0.9198028784
      4  C         2.2340359653    0.0054973428   -1.2896123428
      5  H         3.2896453346   -0.0307823582   -1.5338271133
      6  C         1.1937298602   -0.0156881888   -2.2634787913
      7  H         1.3659906726   -0.0843491054   -3.3312984025
      8  C        -0.0724347449    0.0242296270   -1.7163699994
      9  C        -1.3437910424    0.0348992733   -2.4237383992
     10  C        -1.6058432382    0.5588907008   -3.6732420227
     11  H        -0.8536839240    1.0730509068   -4.2603024826
     12  C        -2.9579934707    0.3869611862   -4.0892859044
     13  H        -3.3476562418    0.7430730984   -5.0362110833
     14  C        -3.7252565207   -0.2551485507   -3.1528076456
     15  H        -4.7772441297   -0.5013561522   -3.1989191639
     16  S        -2.7969727518   -0.6827050639   -1.7520200998
   Point Group: c1    Number of degrees of freedom:    42


   Energy is  -1104.839756911

              Constraints and their Current Values
                                        Value     Constraint
   Dihedral:        6   8   9  10      -30.000      -30.000
 Hessian Updated using BFGS Update

 41 Hessian modes will be used to form the next step
  Hessian Eigenvalues:
     0.014388    0.045000    0.045000    0.045000    0.045000    0.045001
     0.045002    0.045004    0.045012    0.045014    0.045881    0.051231
     0.159820    0.159949    0.159992    0.160000    0.160009    0.160349
     0.221282    0.223010    0.237839    0.247623    0.250005    0.262607
     0.294432    0.297759    0.312569    0.313386    0.354751    0.354881
     0.355129    0.355229    0.358271    0.358532    0.383099    0.404887
     0.415850    0.463586    0.465420    0.497932    0.498444

 Minimum Search - Taking Simple RFO Step
 Searching for Lamda that Minimizes Along All modes
 Value Taken    Lamda =  -0.00001108
 Step Taken.  Stepsize is  0.021493

                             Maximum     Tolerance    Cnvgd?
         Gradient           0.000652      0.000300      NO
         Displacement       0.016984      0.001200      NO
         Energy change     -0.000027      0.000001      NO


 New Cartesian Coordinates Obtained by Inverse Iteration

 Displacement from previous Coordinates is:  0.035497
 ----------------------------------------------------------------
             Standard Nuclear Orientation (Angstroms)
    I     Atom           X                Y                Z
 ----------------------------------------------------------------
    1      S       0.0252104443     0.0918731478     0.0324082585
    2      C       1.7586225451     0.0514676356    -0.0052245418
    3      H       2.3189082286     0.0632455523     0.9194987548
    4      C       2.2339113943     0.0032878078    -1.2898098023
    5      H       3.2896547229    -0.0335793485    -1.5333798234
    6      C       1.1941998125    -0.0190696790    -2.2640675484
    7      H       1.3664845189    -0.0943610145    -3.3314759379
    8      C      -0.0720923452     0.0226871862    -1.7172019111
    9      C      -1.3436473586     0.0366374272    -2.4237816007
   10      C      -1.6063816029     0.5622852150    -3.6725264892
   11      H      -0.8560168542     1.0822268723    -4.2568370551
   12      C      -2.9582339979     0.3889795064    -4.0884225049
   13      H      -3.3486122576     0.7453381456    -5.0349631544
   14      C      -3.7238291226    -0.2574462902    -3.1534551825
   15      H      -4.7752370010    -0.5059292412    -3.1999788926
   16      S      -2.7948609065    -0.6854391727    -1.7531926791
 ----------------------------------------------------------------
 Nuclear Repulsion Energy =   631.0578515824 hartrees
 There are       43 alpha and       43 beta electrons
 Applying Cartesian multipole field
    Component          Value
    ---------          -----
     (2,0,0)        1.00000E-11
     (0,2,0)        2.00000E-11
     (0,0,2)       -3.00000E-11
 Nucleus-field energy     =    -0.0000000333 hartrees
 Requested basis set is 6-31++G(d,p)
 There are 76 shells and 234 basis functions
 A cutoff of  1.0D-12 yielded   2529 shell pairs
 There are     24877 function pairs

 Q-Chem warning in module /project/projectdirs/jcesr/qchem/qc44/cnl_qc441/compile/cori/qc_src/libqints/qchem/aobasis.C, line 68:

 Using reconstructed effective core potential

 Smallest overlap matrix eigenvalue = 9.99E-07
 Linear dependence detected in AO basis
 Number of orthogonalized atomic orbitals = 233
 Maximum deviation from orthogonality = 3.235E-11
 No. of orbitals has changed due to linear dependencies.  Generating new SCF guess.
 Guess from superposition of atomic densities
 Warning:  Energy on first SCF cycle will be non-variational
 A restricted hybrid HF-DFT SCF calculation will be
 performed using Pulay DIIS extrapolation
 Exchange:     0.2000 Hartree-Fock + 0.0800 Slater + 0.7200 B88
 Correlation:  0.1900 VWN1RPA + 0.8100 LYP
 Using SG-1 standard quadrature grid
 SCF converges when DIIS error is below 1.0E-08
 Geometry optimization detected.  Setting ReadMinima to 0
 Setting SaveMinima to 0
 ---------------------------------------
  Cycle       Energy         DIIS Error
 ---------------------------------------
    1   -1107.1958063280      4.43E-02
    2   -1104.6616087590      4.85E-03
    3   -1104.3617644927      7.73E-03
    4   -1104.8285187016      1.15E-03
    5   -1104.8375954228      5.40E-04
    6   -1104.8393591263      2.12E-04
    7   -1104.8396573112      9.04E-05
    8   -1104.8397154199      1.78E-05
    9   -1104.8397177960      2.06E-06
   10   -1104.8397178297      6.15E-07
   11   -1104.8397178317      3.65E-07
   12   -1104.8397178324      8.08E-08
   13   -1104.8397178322      3.93E-08
   14   -1104.8397178320      6.88E-09 Convergence criterion met
 ---------------------------------------
 SCF time:  CPU 7.70 s  wall 7.49 s
 SCF   energy in the final basis set = -1104.8397178320
 Total energy in the final basis set = -1104.8397178320
 
 --------------------------------------------------------------
 
                    Orbital Energies (a.u.)
 --------------------------------------------------------------
 
 Alpha MOs
 -- Occupied --
-88.920 -88.920 -10.238 -10.238 -10.225 -10.225 -10.205 -10.205
-10.203 -10.203  -7.979  -7.979  -5.944  -5.943  -5.940  -5.940
 -5.937  -5.936  -0.900  -0.878  -0.771  -0.748  -0.738  -0.705
 -0.603  -0.578  -0.555  -0.533  -0.526  -0.477  -0.421  -0.417
 -0.409  -0.403  -0.400  -0.376  -0.374  -0.357  -0.346  -0.277
 -0.263  -0.260  -0.215
 -- Virtual --
 -0.055  -0.014  -0.004  -0.000   0.004   0.015   0.018   0.026
  0.028   0.036   0.038   0.046   0.048   0.057   0.057   0.070
  0.072   0.079   0.091   0.095   0.102   0.104   0.107   0.112
  0.116   0.124   0.125   0.131   0.136   0.138   0.140   0.143
  0.147   0.150   0.159   0.165   0.166   0.178   0.181   0.184
  0.184   0.194   0.196   0.208   0.215   0.216   0.225   0.230
  0.251   0.255   0.263   0.265   0.267   0.271   0.307   0.307
  0.312   0.318   0.321   0.353   0.356   0.371   0.386   0.416
  0.447   0.467   0.497   0.528   0.534   0.551   0.561   0.569
  0.607   0.618   0.626   0.653   0.663   0.668   0.673   0.691
  0.709   0.711   0.722   0.727   0.740   0.744   0.751   0.793
  0.793   0.817   0.829   0.847   0.887   0.914   0.942   0.950
  0.951   0.953   0.965   0.972   0.981   0.991   1.008   1.010
  1.042   1.060   1.067   1.084   1.093   1.107   1.126   1.136
  1.170   1.173   1.188   1.238   1.258   1.327   1.340   1.355
  1.357   1.367   1.387   1.446   1.488   1.489   1.553   1.577
  1.674   1.693   1.728   1.783   1.873   1.877   1.883   1.909
  1.925   1.954   1.978   2.015   2.021   2.070   2.072   2.135
  2.147   2.179   2.192   2.232   2.240   2.275   2.300   2.366
  2.366   2.422   2.454   2.456   2.471   2.499   2.512   2.514
  2.539   2.576   2.584   2.593   2.673   2.690   2.719   2.770
  2.786   2.859   2.920   2.959   3.141   3.207   3.270   3.271
  3.400   3.427   3.712   3.751   3.948   4.003   4.247   4.295
  4.305   4.326   4.406   4.536   4.649   4.725
 --------------------------------------------------------------
 
          Ground-State Mulliken Net Atomic Charges

     Atom                 Charge (a.u.)
  ----------------------------------------
      1 S                    -0.059702
      2 C                    -0.006782
      3 H                     0.193932
      4 C                    -0.343264
      5 H                     0.120446
      6 C                     0.294423
      7 H                     0.132785
      8 C                    -0.333557
      9 C                    -0.327040
     10 C                     0.292798
     11 H                     0.132530
     12 C                    -0.342519
     13 H                     0.120472
     14 C                    -0.007363
     15 H                     0.193967
     16 S                    -0.061126
  ----------------------------------------
  Sum of atomic charges =     0.000000

 -----------------------------------------------------------------
                    Cartesian Multipole Moments
 -----------------------------------------------------------------
    Charge (ESU x 10^10)
                -0.0000
    Dipole Moment (Debye)
         X       0.4739      Y       0.2272      Z      -0.8483
       Tot       0.9979
    Quadrupole Moments (Debye-Ang)
        XX     -63.5914     XY       0.6649     YY     -77.5905
        XZ       3.2743     YZ      -2.3418     ZZ     -64.0035
    Octopole Moments (Debye-Ang^2)
       XXX     159.2542    XXY      -4.9032    XYY      62.2689
       YYY       7.8295    XXZ     106.4887    XYZ       2.3211
       YYZ     140.5299    XZZ      49.9498    YZZ      18.0682
       ZZZ     358.8050
    Hexadecapole Moments (Debye-Ang^3)
      XXXX   -1820.2133   XXXY     -12.8612   XXYY    -399.2082
      XYYY     -55.4132   YYYY    -168.0001   XXXZ    -564.9805
      XXYZ      13.5948   XYYZ    -242.0034   YYYZ      12.5519
      XXZZ    -631.2002   XYZZ     -44.1268   YYZZ    -444.7297
      XZZZ    -608.9078   YZZZ     -72.4878   ZZZZ   -2184.1874
 -----------------------------------------------------------------
 Calculating analytic gradient of the SCF energy
 Gradient of SCF Energy
            1           2           3           4           5           6
    1   0.0000221  -0.0000202  -0.0000163  -0.0000082  -0.0000094   0.0000655
    2  -0.0001585  -0.0000321  -0.0000045   0.0001785  -0.0001005   0.0001202
    3  -0.0001121   0.0000044  -0.0000003  -0.0000486   0.0000056  -0.0001150
            7           8           9          10          11          12
    1   0.0000008  -0.0001035  -0.0001206   0.0000796  -0.0000085   0.0000837
    2  -0.0000309   0.0001468  -0.0002545  -0.0000548   0.0000319  -0.0001403
    3   0.0000038   0.0002614   0.0001483  -0.0001532   0.0000124  -0.0000865
           13          14          15          16
    1  -0.0000195   0.0000089   0.0000087   0.0000369
    2   0.0000889   0.0000272  -0.0000029   0.0001857
    3   0.0000491   0.0000301   0.0000114  -0.0000109
 Max gradient component =       2.614E-04
 RMS gradient           =       9.531E-05
 Gradient time:  CPU 2.08 s  wall 2.07 s
 Geometry Optimization Parameters
   NAtoms,    NIC,     NZ,  NCons,   NDum,   NFix, NCnnct, MaxDiis
       16     111       0       1       0       0       0       0

 Cartesian Hessian Update
 Hessian Updated using BFGS Update


** CONSTRAINED OPTIMIZATION IN DELOCALIZED INTERNAL COORDINATES **
   Searching for a Minimum

   Optimization Cycle:   5

                       Coordinates (Angstroms)
     ATOM                X               Y               Z
      1  S         0.0252104443    0.0918731478    0.0324082585
      2  C         1.7586225451    0.0514676356   -0.0052245418
      3  H         2.3189082286    0.0632455523    0.9194987548
      4  C         2.2339113943    0.0032878078   -1.2898098023
      5  H         3.2896547229   -0.0335793485   -1.5333798234
      6  C         1.1941998125   -0.0190696790   -2.2640675484
      7  H         1.3664845189   -0.0943610145   -3.3314759379
      8  C        -0.0720923452    0.0226871862   -1.7172019111
      9  C        -1.3436473586    0.0366374272   -2.4237816007
     10  C        -1.6063816029    0.5622852150   -3.6725264892
     11  H        -0.8560168542    1.0822268723   -4.2568370551
     12  C        -2.9582339979    0.3889795064   -4.0884225049
     13  H        -3.3486122576    0.7453381456   -5.0349631544
     14  C        -3.7238291226   -0.2574462902   -3.1534551825
     15  H        -4.7752370010   -0.5059292412   -3.1999788926
     16  S        -2.7948609065   -0.6854391727   -1.7531926791
   Point Group: c1    Number of degrees of freedom:    42


   Energy is  -1104.839717832

              Constraints and their Current Values
                                        Value     Constraint
   Dihedral:        6   8   9  10      -30.000      -30.000
 Hessian Updated using BFGS Update

 38 Hessian modes will be used to form the next step
  Hessian Eigenvalues:
     0.011207    0.036800    0.045000    0.045001    0.045002    0.045004
     0.045006    0.045348    0.053594    0.159831    0.159949    0.159991
     0.160000    0.160156    0.160407    0.219349    0.221303    0.223300
     0.237845    0.250001    0.268298    0.294461    0.306836    0.312572
     0.313857    0.354774    0.354946    0.355129    0.355226    0.358272
     0.358627    0.385783    0.404887    0.426478    0.463585    0.466222
     0.497933    0.503331

 Minimum Search - Taking Simple RFO Step
 Searching for Lamda that Minimizes Along All modes
 Value Taken    Lamda =  -0.00000540
 Step Taken.  Stepsize is  0.017058

                             Maximum     Tolerance    Cnvgd?
         Gradient           0.000279      0.000300     YES
         Displacement       0.013718      0.001200      NO
         Energy change      0.000039      0.000001      NO


 New Cartesian Coordinates Obtained by Inverse Iteration

 Displacement from previous Coordinates is:  0.028565
 ----------------------------------------------------------------
             Standard Nuclear Orientation (Angstroms)
    I     Atom           X                Y                Z
 ----------------------------------------------------------------
    1      S       0.0250554303     0.0955821407     0.0314305103
    2      C       1.7584931096     0.0532337968    -0.0052007339
    3      H       2.3184454999     0.0674315579     0.9197081313
    4      C       2.2342799912     0.0007251507    -1.2894058680
    5      H       3.2901754997    -0.0360253088    -1.5324014004
    6      C       1.1950253917    -0.0224180926    -2.2642033341
    7      H       1.3676980549    -0.1012250842    -3.3313029344
    8      C      -0.0715070639     0.0212279212    -1.7182290489
    9      C      -1.3434619074     0.0385135398    -2.4241313219
   10      C      -1.6074701104     0.5655792874    -3.6719230272
   11      H      -0.8583376496     1.0886220052    -4.2550442642
   12      C      -2.9593137194     0.3911659948    -4.0875529406
   13      H      -3.3502057313     0.7471532891    -5.0340390154
   14      C      -3.7233868035    -0.2591160740    -3.1540408730
   15      H      -4.7742378456    -0.5098907180    -3.2011538915
   16      S      -2.7931719261    -0.6883556560    -1.7549200982
 ----------------------------------------------------------------
 Nuclear Repulsion Energy =   631.0432888031 hartrees
 There are       43 alpha and       43 beta electrons
 Applying Cartesian multipole field
    Component          Value
    ---------          -----
     (2,0,0)        1.00000E-11
     (0,2,0)        2.00000E-11
     (0,0,2)       -3.00000E-11
 Nucleus-field energy     =    -0.0000000333 hartrees
 Requested basis set is 6-31++G(d,p)
 There are 76 shells and 234 basis functions
 A cutoff of  1.0D-12 yielded   2529 shell pairs
 There are     24877 function pairs

 Q-Chem warning in module /project/projectdirs/jcesr/qchem/qc44/cnl_qc441/compile/cori/qc_src/libqints/qchem/aobasis.C, line 68:

 Using reconstructed effective core potential

 Smallest overlap matrix eigenvalue = 9.94E-07
 Linear dependence detected in AO basis
 Number of orthogonalized atomic orbitals = 233
 Maximum deviation from orthogonality = 4.258E-11
 Guess MOs from SCF MO coefficient file
 Reading MOs from coefficient file
 Size of previous SCF MO coefficient file: 109510 (expected); 109980 (actual). 

 Q-Chem warning in module /project/projectdirs/jcesr/qchem/qc44/cnl_qc441/compile/cori/qc_src/gesman/GuessMan.C, line 722:

 Inconsistent size for SCF MO coefficient file.  Please check basis and PURECART setting.

 Reading MOs from coefficient file
 A restricted hybrid HF-DFT SCF calculation will be
 performed using Pulay DIIS extrapolation
 Exchange:     0.2000 Hartree-Fock + 0.0800 Slater + 0.7200 B88
 Correlation:  0.1900 VWN1RPA + 0.8100 LYP
 Using SG-1 standard quadrature grid
 SCF converges when DIIS error is below 1.0E-08
 Geometry optimization detected.  Setting ReadMinima to 0
 Setting SaveMinima to 0
 ---------------------------------------
  Cycle       Energy         DIIS Error
 ---------------------------------------
    1   -1104.8397322997      1.18E-04
    2   -1104.8397194672      1.31E-05
    3   -1104.8397145401      2.90E-05
    4   -1104.8397211075      2.54E-06
    5   -1104.8397211366      1.66E-06
    6   -1104.8397211571      4.41E-07
    7   -1104.8397211576      2.08E-07
    8   -1104.8397211587      1.90E-08
    9   -1104.8397211582      1.05E-08
   10   -1104.8397211579      2.26E-09 Convergence criterion met
 ---------------------------------------
 SCF time:  CPU 5.50 s  wall 5.29 s
 SCF   energy in the final basis set = -1104.8397211579
 Total energy in the final basis set = -1104.8397211579
 
 --------------------------------------------------------------
 
                    Orbital Energies (a.u.)
 --------------------------------------------------------------
 
 Alpha MOs
 -- Occupied --
-88.920 -88.920 -10.238 -10.238 -10.225 -10.225 -10.205 -10.205
-10.203 -10.203  -7.979  -7.979  -5.943  -5.943  -5.940  -5.940
 -5.936  -5.936  -0.900  -0.878  -0.771  -0.748  -0.738  -0.705
 -0.603  -0.578  -0.555  -0.533  -0.526  -0.477  -0.421  -0.417
 -0.410  -0.403  -0.400  -0.376  -0.374  -0.357  -0.345  -0.277
 -0.263  -0.260  -0.215
 -- Virtual --
 -0.055  -0.014  -0.004  -0.000   0.003   0.015   0.018   0.026
  0.028   0.036   0.038   0.046   0.048   0.057   0.057   0.070
  0.072   0.079   0.091   0.095   0.102   0.104   0.107   0.112
  0.116   0.124   0.125   0.131   0.136   0.138   0.140   0.143
  0.147   0.150   0.159   0.165   0.165   0.178   0.181   0.184
  0.184   0.193   0.196   0.208   0.215   0.216   0.226   0.231
  0.251   0.256   0.263   0.265   0.266   0.271   0.307   0.307
  0.312   0.318   0.321   0.354   0.356   0.371   0.386   0.416
  0.447   0.467   0.497   0.528   0.534   0.550   0.561   0.569
  0.607   0.617   0.627   0.653   0.663   0.668   0.674   0.692
  0.710   0.711   0.722   0.727   0.741   0.744   0.751   0.792
  0.793   0.817   0.829   0.847   0.887   0.914   0.942   0.950
  0.951   0.953   0.965   0.972   0.981   0.991   1.007   1.010
  1.043   1.060   1.066   1.084   1.093   1.107   1.126   1.136
  1.170   1.173   1.188   1.238   1.258   1.327   1.340   1.355
  1.357   1.367   1.387   1.445   1.488   1.490   1.553   1.576
  1.675   1.693   1.729   1.783   1.873   1.876   1.883   1.910
  1.925   1.953   1.978   2.015   2.021   2.070   2.072   2.135
  2.148   2.179   2.193   2.232   2.240   2.274   2.300   2.366
  2.366   2.422   2.454   2.456   2.471   2.498   2.512   2.514
  2.539   2.576   2.584   2.593   2.674   2.690   2.718   2.770
  2.785   2.858   2.920   2.959   3.141   3.207   3.270   3.271
  3.401   3.427   3.712   3.750   3.948   4.002   4.247   4.295
  4.305   4.326   4.406   4.536   4.649   4.725
 --------------------------------------------------------------
 
          Ground-State Mulliken Net Atomic Charges

     Atom                 Charge (a.u.)
  ----------------------------------------
      1 S                    -0.059519
      2 C                    -0.005655
      3 H                     0.193912
      4 C                    -0.345265
      5 H                     0.120371
      6 C                     0.298827
      7 H                     0.133212
      8 C                    -0.337635
      9 C                    -0.331081
     10 C                     0.297220
     11 H                     0.132950
     12 C                    -0.344518
     13 H                     0.120398
     14 C                    -0.006211
     15 H                     0.193949
     16 S                    -0.060955
  ----------------------------------------
  Sum of atomic charges =     0.000000

 -----------------------------------------------------------------
                    Cartesian Multipole Moments
 -----------------------------------------------------------------
    Charge (ESU x 10^10)
                -0.0000
    Dipole Moment (Debye)
         X       0.4745      Y       0.2275      Z      -0.8495
       Tot       0.9993
    Quadrupole Moments (Debye-Ang)
        XX     -63.5949     XY       0.6795     YY     -77.5758
        XZ       3.2857     YZ      -2.3255     ZZ     -64.0042
    Octopole Moments (Debye-Ang^2)
       XXX     159.2512    XXY      -4.9837    XYY      62.2186
       YYY       7.8087    XXZ     106.4874    XYZ       2.3165
       YYZ     140.5112    XZZ      49.8735    YZZ      18.0379
       ZZZ     358.9458
    Hexadecapole Moments (Debye-Ang^3)
      XXXX   -1820.1817   XXXY     -12.4843   XXYY    -399.1036
      XYYY     -55.3650   YYYY    -168.6730   XXXZ    -565.0450
      XXYZ      13.8374   XYYZ    -241.9487   YYYZ      12.3208
      XXZZ    -630.9596   XYZZ     -44.1013   YYZZ    -444.6552
      XZZZ    -608.8361   YZZZ     -72.5493   ZZZZ   -2184.8364
 -----------------------------------------------------------------
 Calculating analytic gradient of the SCF energy
 Gradient of SCF Energy
            1           2           3           4           5           6
    1  -0.0000274   0.0000350  -0.0000088  -0.0000313   0.0000051   0.0001000
    2  -0.0001136  -0.0000063   0.0000223  -0.0000202  -0.0000122   0.0003255
    3  -0.0001117   0.0000141   0.0000054  -0.0000277   0.0000097  -0.0000404
            7           8           9          10          11          12
    1  -0.0000067  -0.0000616  -0.0001087   0.0000473  -0.0000254   0.0000407
    2  -0.0000865  -0.0002698   0.0001814  -0.0002513   0.0000741   0.0000245
    3   0.0000137   0.0001035   0.0001965  -0.0002223   0.0000448   0.0000150
           13          14          15          16
    1  -0.0000118  -0.0000297   0.0000057   0.0000777
    2   0.0000096   0.0000072  -0.0000245   0.0001401
    3   0.0000049  -0.0000200  -0.0000024   0.0000171
 Max gradient component =       3.255E-04
 RMS gradient           =       1.000E-04
 Gradient time:  CPU 2.06 s  wall 2.07 s
 Geometry Optimization Parameters
   NAtoms,    NIC,     NZ,  NCons,   NDum,   NFix, NCnnct, MaxDiis
       16     111       0       1       0       0       0       0

 Cartesian Hessian Update
 Hessian Updated using BFGS Update


** CONSTRAINED OPTIMIZATION IN DELOCALIZED INTERNAL COORDINATES **
   Searching for a Minimum

   Optimization Cycle:   6

                       Coordinates (Angstroms)
     ATOM                X               Y               Z
      1  S         0.0250554303    0.0955821407    0.0314305103
      2  C         1.7584931096    0.0532337968   -0.0052007339
      3  H         2.3184454999    0.0674315579    0.9197081313
      4  C         2.2342799912    0.0007251507   -1.2894058680
      5  H         3.2901754997   -0.0360253088   -1.5324014004
      6  C         1.1950253917   -0.0224180926   -2.2642033341
      7  H         1.3676980549   -0.1012250842   -3.3313029344
      8  C        -0.0715070639    0.0212279212   -1.7182290489
      9  C        -1.3434619074    0.0385135398   -2.4241313219
     10  C        -1.6074701104    0.5655792874   -3.6719230272
     11  H        -0.8583376496    1.0886220052   -4.2550442642
     12  C        -2.9593137194    0.3911659948   -4.0875529406
     13  H        -3.3502057313    0.7471532891   -5.0340390154
     14  C        -3.7233868035   -0.2591160740   -3.1540408730
     15  H        -4.7742378456   -0.5098907180   -3.2011538915
     16  S        -2.7931719261   -0.6883556560   -1.7549200982
   Point Group: c1    Number of degrees of freedom:    42


   Energy is  -1104.839721158

              Constraints and their Current Values
                                        Value     Constraint
   Dihedral:        6   8   9  10      -30.000      -30.000
 Hessian Updated using BFGS Update

 39 Hessian modes will be used to form the next step
  Hessian Eigenvalues:
     0.010950    0.028701    0.045000    0.045000    0.045002    0.045002
     0.045004    0.045012    0.046186    0.052740    0.159787    0.159949
     0.159989    0.159998    0.160023    0.160448    0.221268    0.222841
     0.227269    0.237847    0.250003    0.269406    0.294462    0.305260
     0.312571    0.314113    0.354778    0.354970    0.355129    0.355253
     0.358273    0.358637    0.385690    0.404887    0.425952    0.463584
     0.465592    0.497932    0.501735

 Minimum Search - Taking Simple RFO Step
 Searching for Lamda that Minimizes Along All modes
 Value Taken    Lamda =  -0.00000117
 Step Taken.  Stepsize is  0.006752

                             Maximum     Tolerance    Cnvgd?
         Gradient           0.000129      0.000300     YES
         Displacement       0.004439      0.001200      NO
         Energy change     -0.000003      0.000001      NO


 New Cartesian Coordinates Obtained by Inverse Iteration

 Displacement from previous Coordinates is:  0.008138
 ----------------------------------------------------------------
             Standard Nuclear Orientation (Angstroms)
    I     Atom           X                Y                Z
 ----------------------------------------------------------------
    1      S       0.0250615983     0.0972585297     0.0313988081
    2      C       1.7584530689     0.0537152290    -0.0052265458
    3      H       2.3184727812     0.0685474316     0.9196322072
    4      C       2.2342836886    -0.0001319592    -1.2893489465
    5      H       3.2901758954    -0.0367555013    -1.5323534551
    6      C       1.1950580154    -0.0236851653    -2.2642003894
    7      H       1.3678284519    -0.1025034204    -3.3313044768
    8      C      -0.0714123877     0.0206788323    -1.7184170671
    9      C      -1.3434854130     0.0391831834    -2.4240571701
   10      C      -1.6077755990     0.5667596043    -3.6714516499
   11      H      -0.8586980279     1.0898198147    -4.2546603171
   12      C      -2.9595507341     0.3918915592    -4.0872040665
   13      H      -3.3504009489     0.7477179647    -5.0337634171
   14      C      -3.7232315918    -0.2595742350    -3.1542137265
   15      H      -4.7739321370    -0.5109143166    -3.2016576597
   16      S      -2.7927664402    -0.6898038010    -1.7555822377
 ----------------------------------------------------------------
 Nuclear Repulsion Energy =   631.0279077178 hartrees
 There are       43 alpha and       43 beta electrons
 Applying Cartesian multipole field
    Component          Value
    ---------          -----
     (2,0,0)        1.00000E-11
     (0,2,0)        2.00000E-11
     (0,0,2)       -3.00000E-11
 Nucleus-field energy     =    -0.0000000333 hartrees
 Requested basis set is 6-31++G(d,p)
 There are 76 shells and 234 basis functions
 A cutoff of  1.0D-12 yielded   2529 shell pairs
 There are     24877 function pairs

 Q-Chem warning in module /project/projectdirs/jcesr/qchem/qc44/cnl_qc441/compile/cori/qc_src/libqints/qchem/aobasis.C, line 68:

 Using reconstructed effective core potential

 Smallest overlap matrix eigenvalue = 9.92E-07
 Linear dependence detected in AO basis
 Number of orthogonalized atomic orbitals = 233
 Maximum deviation from orthogonality = 7.465E-11
 Guess MOs from SCF MO coefficient file
 Reading MOs from coefficient file
 Size of previous SCF MO coefficient file: 109510 (expected); 109980 (actual). 

 Q-Chem warning in module /project/projectdirs/jcesr/qchem/qc44/cnl_qc441/compile/cori/qc_src/gesman/GuessMan.C, line 722:

 Inconsistent size for SCF MO coefficient file.  Please check basis and PURECART setting.

 Reading MOs from coefficient file
 A restricted hybrid HF-DFT SCF calculation will be
 performed using Pulay DIIS extrapolation
 Exchange:     0.2000 Hartree-Fock + 0.0800 Slater + 0.7200 B88
 Correlation:  0.1900 VWN1RPA + 0.8100 LYP
 Using SG-1 standard quadrature grid
 SCF converges when DIIS error is below 1.0E-08
 Geometry optimization detected.  Setting ReadMinima to 0
 Setting SaveMinima to 0
 ---------------------------------------
  Cycle       Energy         DIIS Error
 ---------------------------------------
    1   -1104.8398469277      4.46E-05
    2   -1104.8397216533      5.63E-06
    3   -1104.8397206373      1.30E-05
    4   -1104.8397219425      7.62E-07
    5   -1104.8397219454      5.46E-07
    6   -1104.8397219475      1.99E-07
    7   -1104.8397219464      6.64E-08
    8   -1104.8397219458      1.37E-08
    9   -1104.8397219463      3.57E-09 Convergence criterion met
 ---------------------------------------
 SCF time:  CPU 5.00 s  wall 5.90 s
 SCF   energy in the final basis set = -1104.8397219463
 Total energy in the final basis set = -1104.8397219463
 
 --------------------------------------------------------------
 
                    Orbital Energies (a.u.)
 --------------------------------------------------------------
 
 Alpha MOs
 -- Occupied --
-88.920 -88.920 -10.238 -10.238 -10.225 -10.225 -10.205 -10.205
-10.203 -10.203  -7.979  -7.979  -5.943  -5.943  -5.940  -5.940
 -5.936  -5.936  -0.900  -0.878  -0.771  -0.748  -0.738  -0.705
 -0.603  -0.578  -0.555  -0.533  -0.526  -0.477  -0.421  -0.417
 -0.409  -0.403  -0.400  -0.376  -0.374  -0.357  -0.346  -0.277
 -0.263  -0.260  -0.215
 -- Virtual --
 -0.055  -0.014  -0.004  -0.000   0.003   0.015   0.018   0.026
  0.028   0.036   0.038   0.046   0.048   0.057   0.057   0.070
  0.072   0.079   0.091   0.095   0.102   0.104   0.107   0.112
  0.116   0.124   0.125   0.131   0.136   0.138   0.140   0.143
  0.147   0.150   0.159   0.165   0.165   0.178   0.180   0.184
  0.184   0.193   0.196   0.208   0.215   0.216   0.226   0.231
  0.251   0.256   0.262   0.265   0.266   0.271   0.307   0.307
  0.312   0.318   0.321   0.354   0.356   0.371   0.386   0.416
  0.447   0.467   0.497   0.528   0.534   0.550   0.561   0.569
  0.607   0.617   0.627   0.653   0.663   0.668   0.674   0.692
  0.710   0.711   0.722   0.727   0.741   0.744   0.751   0.792
  0.793   0.817   0.829   0.847   0.887   0.914   0.942   0.950
  0.951   0.953   0.965   0.971   0.981   0.991   1.007   1.010
  1.043   1.060   1.066   1.084   1.093   1.107   1.126   1.135
  1.170   1.173   1.188   1.238   1.258   1.328   1.340   1.355
  1.357   1.367   1.387   1.445   1.488   1.490   1.553   1.576
  1.675   1.693   1.729   1.783   1.873   1.876   1.883   1.910
  1.925   1.952   1.978   2.015   2.021   2.069   2.072   2.135
  2.148   2.179   2.193   2.232   2.240   2.274   2.300   2.366
  2.366   2.422   2.454   2.457   2.471   2.498   2.512   2.514
  2.539   2.576   2.584   2.592   2.674   2.690   2.718   2.770
  2.785   2.858   2.920   2.959   3.141   3.207   3.270   3.271
  3.401   3.427   3.712   3.750   3.948   4.002   4.247   4.295
  4.305   4.326   4.406   4.536   4.649   4.725
 --------------------------------------------------------------
 
          Ground-State Mulliken Net Atomic Charges

     Atom                 Charge (a.u.)
  ----------------------------------------
      1 S                    -0.059146
      2 C                    -0.005438
      3 H                     0.193891
      4 C                    -0.345790
      5 H                     0.120339
      6 C                     0.299993
      7 H                     0.133297
      8 C                    -0.338927
      9 C                    -0.332355
     10 C                     0.298398
     11 H                     0.133034
     12 C                    -0.345015
     13 H                     0.120367
     14 C                    -0.005979
     15 H                     0.193929
     16 S                    -0.060598
  ----------------------------------------
  Sum of atomic charges =     0.000000

 -----------------------------------------------------------------
                    Cartesian Multipole Moments
 -----------------------------------------------------------------
    Charge (ESU x 10^10)
                -0.0000
    Dipole Moment (Debye)
         X       0.4753      Y       0.2278      Z      -0.8509
       Tot       1.0009
    Quadrupole Moments (Debye-Ang)
        XX     -63.5984     XY       0.6868     YY     -77.5726
        XZ       3.2872     YZ      -2.3203     ZZ     -63.9983
    Octopole Moments (Debye-Ang^2)
       XXX     159.2660    XXY      -5.0078    XYY      62.2059
       YYY       7.7997    XXZ     106.4864    XYZ       2.3042
       YYZ     140.5088    XZZ      49.8589    YZZ      18.0290
       ZZZ     358.9375
    Hexadecapole Moments (Debye-Ang^3)
      XXXX   -1820.2063   XXXY     -12.4060   XXYY    -399.0749
      XYYY     -55.3812   YYYY    -168.9528   XXXZ    -565.0916
      XXYZ      13.8964   XYYZ    -241.9425   YYYZ      12.2266
      XXZZ    -630.8878   XYZZ     -44.0709   YYZZ    -444.6623
      XZZZ    -608.8398   YZZZ     -72.5937   ZZZZ   -2184.7418
 -----------------------------------------------------------------
 Calculating analytic gradient of the SCF energy
 Gradient of SCF Energy
            1           2           3           4           5           6
    1  -0.0000335   0.0000178  -0.0000073  -0.0000265   0.0000012   0.0000493
    2  -0.0000383  -0.0000274   0.0000229  -0.0000587   0.0000239   0.0003127
    3  -0.0000265   0.0000075   0.0000014  -0.0000192   0.0000026   0.0000002
            7           8           9          10          11          12
    1  -0.0000020   0.0000032  -0.0000764   0.0000423  -0.0000103   0.0000199
    2  -0.0000520  -0.0004165   0.0003766  -0.0002656   0.0000472   0.0000551
    3   0.0000007  -0.0000197   0.0001461  -0.0001592   0.0000227   0.0000325
           13          14          15          16
    1   0.0000038  -0.0000227   0.0000086   0.0000328
    2  -0.0000211   0.0000255  -0.0000227   0.0000384
    3  -0.0000102  -0.0000029  -0.0000059   0.0000301
 Max gradient component =       4.165E-04
 RMS gradient           =       1.087E-04
 Gradient time:  CPU 2.09 s  wall 2.06 s
 Geometry Optimization Parameters
   NAtoms,    NIC,     NZ,  NCons,   NDum,   NFix, NCnnct, MaxDiis
       16     111       0       1       0       0       0       0

 Cartesian Hessian Update
 Hessian Updated using BFGS Update


** CONSTRAINED OPTIMIZATION IN DELOCALIZED INTERNAL COORDINATES **
   Searching for a Minimum

   Optimization Cycle:   7

                       Coordinates (Angstroms)
     ATOM                X               Y               Z
      1  S         0.0250615983    0.0972585297    0.0313988081
      2  C         1.7584530689    0.0537152290   -0.0052265458
      3  H         2.3184727812    0.0685474316    0.9196322072
      4  C         2.2342836886   -0.0001319592   -1.2893489465
      5  H         3.2901758954   -0.0367555013   -1.5323534551
      6  C         1.1950580154   -0.0236851653   -2.2642003894
      7  H         1.3678284519   -0.1025034204   -3.3313044768
      8  C        -0.0714123877    0.0206788323   -1.7184170671
      9  C        -1.3434854130    0.0391831834   -2.4240571701
     10  C        -1.6077755990    0.5667596043   -3.6714516499
     11  H        -0.8586980279    1.0898198147   -4.2546603171
     12  C        -2.9595507341    0.3918915592   -4.0872040665
     13  H        -3.3504009489    0.7477179647   -5.0337634171
     14  C        -3.7232315918   -0.2595742350   -3.1542137265
     15  H        -4.7739321370   -0.5109143166   -3.2016576597
     16  S        -2.7927664402   -0.6898038010   -1.7555822377
   Point Group: c1    Number of degrees of freedom:    42


   Energy is  -1104.839721946

              Constraints and their Current Values
                                        Value     Constraint
   Dihedral:        6   8   9  10      -30.000      -30.000
 Hessian Updated using BFGS Update

 41 Hessian modes will be used to form the next step
  Hessian Eigenvalues:
     0.010651    0.020612    0.044923    0.045000    0.045000    0.045000
     0.045002    0.045002    0.045004    0.045012    0.045263    0.052341
     0.159607    0.159899    0.159950    0.159992    0.160001    0.160473
     0.221282    0.222793    0.233838    0.237852    0.250001    0.271389
     0.294388    0.295929    0.312571    0.313489    0.354782    0.355074
     0.355130    0.355281    0.358273    0.358660    0.385712    0.404891
     0.425567    0.463585    0.464852    0.497929    0.499379

 Minimum Search - Taking Simple RFO Step
 Searching for Lamda that Minimizes Along All modes
 Value Taken    Lamda =   0.00000000
 Step Taken.  Stepsize is  0.004264

                             Maximum     Tolerance    Cnvgd?
         Gradient           0.000085      0.000300     YES
         Displacement       0.003079      0.001200      NO
         Energy change     -0.000001      0.000001     YES

 Final energy is   -1104.83972194626     


 ******************************
 **  OPTIMIZATION CONVERGED  **
 ******************************

                       Coordinates (Angstroms)
     ATOM                X               Y               Z
      1  S         0.0250615983    0.0972585297    0.0313988081
      2  C         1.7584530689    0.0537152290   -0.0052265458
      3  H         2.3184727812    0.0685474316    0.9196322072
      4  C         2.2342836886   -0.0001319592   -1.2893489465
      5  H         3.2901758954   -0.0367555013   -1.5323534551
      6  C         1.1950580154   -0.0236851653   -2.2642003894
      7  H         1.3678284519   -0.1025034204   -3.3313044768
      8  C        -0.0714123877    0.0206788323   -1.7184170671
      9  C        -1.3434854130    0.0391831834   -2.4240571701
     10  C        -1.6077755990    0.5667596043   -3.6714516499
     11  H        -0.8586980279    1.0898198147   -4.2546603171
     12  C        -2.9595507341    0.3918915592   -4.0872040665
     13  H        -3.3504009489    0.7477179647   -5.0337634171
     14  C        -3.7232315918   -0.2595742350   -3.1542137265
     15  H        -4.7739321370   -0.5109143166   -3.2016576597
     16  S        -2.7927664402   -0.6898038010   -1.7555822377

Z-matrix Print:
$molecule
0 1
S 
C  1 1.734325
H  2 1.081298 1 119.948964
C  2 1.370505 1 111.578769 3 179.883879 0
H  4 1.084113 2 123.333087 1 -179.820355 0
C  4 1.425090 2 112.855625 1 -0.735956 0
H  6 1.083869 4 123.948175 2 -177.654459 0
C  6 1.379781 4 113.467635 2 0.375987 0
C  8 1.454799 6 127.671748 4 178.668533 0
C  9 1.379920 8 127.646853 6 -29.999999 0
H  10 1.083901 9 122.583356 8 -3.250256 0
C  10 1.425035 9 113.484053 8 178.626048 0
H  12 1.084136 10 123.809572 9 179.538633 0
C  12 1.370433 10 112.849887 9 0.394077 0
H  14 1.081385 12 128.466851 10 179.106237 0
S  14 1.734080 12 111.594424 10 -0.752636 0
$end

 
 --------------------------------------------------------------
 
                    Orbital Energies (a.u.)
 --------------------------------------------------------------
 
 Alpha MOs
 -- Occupied --
-88.920 -88.920 -10.238 -10.238 -10.225 -10.225 -10.205 -10.205
-10.203 -10.203  -7.979  -7.979  -5.943  -5.943  -5.940  -5.940
 -5.936  -5.936  -0.900  -0.878  -0.771  -0.748  -0.738  -0.705
 -0.603  -0.578  -0.555  -0.533  -0.526  -0.477  -0.421  -0.417
 -0.409  -0.403  -0.400  -0.376  -0.374  -0.357  -0.346  -0.277
 -0.263  -0.260  -0.215
 -- Virtual --
 -0.055  -0.014  -0.004  -0.000   0.003   0.015   0.018   0.026
  0.028   0.036   0.038   0.046   0.048   0.057   0.057   0.070
  0.072   0.079   0.091   0.095   0.102   0.104   0.107   0.112
  0.116   0.124   0.125   0.131   0.136   0.138   0.140   0.143
  0.147   0.150   0.159   0.165   0.165   0.178   0.180   0.184
  0.184   0.193   0.196   0.208   0.215   0.216   0.226   0.231
  0.251   0.256   0.262   0.265   0.266   0.271   0.307   0.307
  0.312   0.318   0.321   0.354   0.356   0.371   0.386   0.416
  0.447   0.467   0.497   0.528   0.534   0.550   0.561   0.569
  0.607   0.617   0.627   0.653   0.663   0.668   0.674   0.692
  0.710   0.711   0.722   0.727   0.741   0.744   0.751   0.792
  0.793   0.817   0.829   0.847   0.887   0.914   0.942   0.950
  0.951   0.953   0.965   0.971   0.981   0.991   1.007   1.010
  1.043   1.060   1.066   1.084   1.093   1.107   1.126   1.135
  1.170   1.173   1.188   1.238   1.258   1.328   1.340   1.355
  1.357   1.367   1.387   1.445   1.488   1.490   1.553   1.576
  1.675   1.693   1.729   1.783   1.873   1.876   1.883   1.910
  1.925   1.952   1.978   2.015   2.021   2.069   2.072   2.135
  2.148   2.179   2.193   2.232   2.240   2.274   2.300   2.366
  2.366   2.422   2.454   2.457   2.471   2.498   2.512   2.514
  2.539   2.576   2.584   2.592   2.674   2.690   2.718   2.770
  2.785   2.858   2.920   2.959   3.141   3.207   3.270   3.271
  3.401   3.427   3.712   3.750   3.948   4.002   4.247   4.295
  4.305   4.326   4.406   4.536   4.649   4.725
 --------------------------------------------------------------
 
          Ground-State Mulliken Net Atomic Charges

     Atom                 Charge (a.u.)
  ----------------------------------------
      1 S                    -0.059146
      2 C                    -0.005438
      3 H                     0.193891
      4 C                    -0.345790
      5 H                     0.120339
      6 C                     0.299993
      7 H                     0.133297
      8 C                    -0.338927
      9 C                    -0.332355
     10 C                     0.298398
     11 H                     0.133034
     12 C                    -0.345015
     13 H                     0.120367
     14 C                    -0.005979
     15 H                     0.193929
     16 S                    -0.060598
  ----------------------------------------
  Sum of atomic charges =     0.000000

 -----------------------------------------------------------------
                    Cartesian Multipole Moments
 -----------------------------------------------------------------
    Charge (ESU x 10^10)
                -0.0000
    Dipole Moment (Debye)
         X       0.4753      Y       0.2278      Z      -0.8509
       Tot       1.0009
    Quadrupole Moments (Debye-Ang)
        XX     -63.5984     XY       0.6868     YY     -77.5726
        XZ       3.2872     YZ      -2.3203     ZZ     -63.9983
    Octopole Moments (Debye-Ang^2)
       XXX     159.2660    XXY      -5.0078    XYY      62.2059
       YYY       7.7997    XXZ     106.4864    XYZ       2.3042
       YYZ     140.5088    XZZ      49.8589    YZZ      18.0290
       ZZZ     358.9375
    Hexadecapole Moments (Debye-Ang^3)
      XXXX   -1820.2063   XXXY     -12.4060   XXYY    -399.0749
      XYYY     -55.3812   YYYY    -168.9528   XXXZ    -565.0916
      XXYZ      13.8964   XYYZ    -241.9425   YYYZ      12.2266
      XXZZ    -630.8878   XYZZ     -44.0709   YYZZ    -444.6623
      XZZZ    -608.8398   YZZZ     -72.5937   ZZZZ   -2184.7418
 -----------------------------------------------------------------
Archival summary:
1\1\nid00486\OPT\ProcedureUnspecified\BasisUnspecified\286\bwood\WedMay3102:25:492017WedMay3102:25:492017\0\\#,OPT,ProcedureUnspecified,BasisUnspecified,\\0,1\S\C,1,1.73433\H,2,1.0813,1,119.949\C,2,1.37051,1,111.579,3,179.884,0\H,4,1.08411,2,123.333,1,-179.82,0\C,4,1.42509,2,112.856,1,-0.735956,0\H,6,1.08387,4,123.948,2,-177.654,0\C,6,1.37978,4,113.468,2,0.375987,0\C,8,1.4548,6,127.672,4,178.669,0\C,9,1.37992,8,127.647,6,-30,0\H,10,1.0839,9,122.583,8,-3.25026,0\C,10,1.42504,9,113.484,8,178.626,0\H,12,1.08414,10,123.81,9,179.539,0\C,12,1.37043,10,112.85,9,0.394077,0\H,14,1.08139,12,128.467,10,179.106,0\S,14,1.73408,12,111.594,10,-0.752636,0\\\@

 Total job time:  63.33s(wall), 61.71s(cpu) 
 Wed May 31 02:25:49 2017

        *************************************************************
        *                                                           *
        *  Thank you very much for using Q-Chem.  Have a nice day.  *
        *                                                           *
        *************************************************************


0 sent ACK to 0 
now end server 0 ... 
