srun -N 1 --ntasks-per-node 16 --cpus-per-task 4 --cpu_bind=cores --nodelist nid00488 /global/project/projectdirs/jcesr/qchem/qc44/cnl_qc441/dist/exe/qcprog.cori.haswell.exe .pt_n2_neutral_-150.0.in.48630.qcin.1 /global/cscratch1/sd/bwood/qchem/nx/qchem48630/
Process 0 of 16 is on nid00488 - thread support 0
Process 1 of 16 is on nid00488 - thread support 0
Process 2 of 16 is on nid00488 - thread support 0
Process 3 of 16 is on nid00488 - thread support 0
Process 4 of 16 is on nid00488 - thread support 0
Process 5 of 16 is on nid00488 - thread support 0
Process 6 of 16 is on nid00488 - thread support 0
initial socket setup ...start
Process 15 of 16 is on nid00488 - thread support 0
initial socket setup ...done 
now start server 0 ... 
nid00488 10.128.1
Q-Chem Developer Version! Running on 10.128.1.*
                  Welcome to Q-Chem
     A Quantum Leap Into The Future Of Chemistry


 Q-Chem 4.4, Q-Chem, Inc., Pleasanton, CA (2016)

 Y. Shao,  Z. Gan,  E. Epifanovsky,  A. T. B. Gilbert,  M. Wormit,  
 J. Kussmann,  A. W. Lange,  A. Behn,  J. Deng,  X. Feng,  D. Ghosh,  
 M. Goldey,  P. R. Horn,  L. D. Jacobson,  I. Kaliman,  F. Rob,  
 R. Z. Khaliullin,  T. Kus,  A. Landau,  J. Liu,  E. I. Proynov,  Y. M. Rhee,  
 R. M. Richard,  M. A. Rohrdanz,  R. P. Steele,  E. J. Sundstrom,  
 H. L. Woodcock III,  P. M. Zimmerman,  D. Zuev,  B. Albrecht,  E. Alguire,  
 B. Austin,  S. A. Baeppler,  G. J. O. Beran,  Y. A. Bernard,  
 E. J. Berquist,  K. Brandhorst,  K. B. Bravaya,  S. T. Brown,  D. Casanova,  
 C.-M. Chang,  Y. Chen,  S. H. Chien,  K. D. Closser,  M. P. Coons,  
 D. L. Crittenden,  S. Dasgupta,  M. Diedenhofen,  R. A. DiStasio Jr.,  
 H. Do,  A. D. Dutoi,  R. G. Edgar,  P.-T. Fang,  S. Fatehi,  Q. Feng,  
 L. Fusti-Molnar,  A. Ghysels,  A. Golubeva-Zadorozhnaya,  J. Gomes,  
 A. Gunina,  M. W. D. Hanson-Heine,  P. H. P. Harbach,  A. W. Hauser,  
 J. E. Herr,  E. G. Hohenstein,  Z. C. Holden,  K. Hui,  T.-C. Jagau,  H. Ji,  
 B. Kaduk,  K. Khistyaev,  Jaehoon Kim,  Jihan Kim,  R. A. King,  
 P. Klunzinger,  K. Koh,  D. Kosenkov,  T. Kowalczyk,  C. M. Krauter,  
 A. Kunitsa,  K. U. Lao,  A. Laurent,  K. V. Lawler,  J. Lee,  D. Lefrancois,  
 S. Lehtola,  S. V. Levchenko,  C. Y. Lin,  Y.-S. Lin,  F. Liu,  E. Livshits,  
 R. C. Lochan,  A. Luenser,  P. Manohar,  S. F. Manzer,  S.-P. Mao,  Y. Mao,  
 N. Mardirossian,  A. V. Marenich,  L. A. Martinez-Martinez,  S. A. Maurer,  
 N. J. Mayhall,  J.-M. Mewes,  A. F. Morrison,  K. Nanda,  T. S. Nguyen-Beck,  
 C. M. Oana,  R. Olivares-Amaya,  D. P. O'Neill,  J. A. Parkhill,  
 T. M. Perrine,  R. Peverati,  P. A. Pieniazek,  F. Plasser,  A. Prociuk,  
 D. R. Rehn,  E. Rosta,  N. J. Russ,  N. Sergueev,  S. M. Sharada,  
 S. Sharma,  D. W. Small,  A. Sodt,  T. Stauch,  T. Stein,  D. Stuck,  
 Y.-C. Su,  A. J. W. Thom,  T. Tsuchimochi,  L. Vogt,  O. Vydrov,  T. Wang,  
 M. A. Watson,  J. Wenzel,  A. White,  C. F. Williams,  V. Vanovschi,  
 K. Yao,  S. Yeganeh,  S. R. Yost,  Z.-Q. You,  I. Y. Zhang,  X. Zhang,  
 Y. Zhao,  B. R. Brooks,  G. K. L. Chan,  D. M. Chipman,  C. J. Cramer,  
 W. A. Goddard III,  M. S. Gordon,  W. J. Hehre,  A. Klamt,  
 H. F. Schaefer III,  M. W. Schmidt,  C. D. Sherrill,  D. G. Truhlar,  
 A. Warshel,  X. Xu,  A. Aspuru-Guzik,  R. Baer,  A. T. Bell,  N. A. Besley,  
 J.-D. Chai,  A. Dreuw,  B. D. Dunietz,  T. R. Furlani,  S. R. Gwaltney,  
 C.-P. Hsu,  Y. Jung,  J. Kong,  D. S. Lambrecht,  W. Liang,  C. Ochsenfeld,  
 V. A. Rassolov,  L. V. Slipchenko,  J. E. Subotnik,  T. Van Voorhis,  
 J. M. Herbert,  A. I. Krylov,  P. M. W. Gill,  M. Head-Gordon

 Contributors to earlier versions of Q-Chem not listed above: 
 R. D. Adamson,  J. Baker,  E. F. C. Byrd,  A. K. Chakraborty,  C.-L. Cheng,  
 H. Dachsel,  R. J. Doerksen,  G. Hawkins,  A. Heyden,  S. Hirata,  
 G. Kedziora,  F. J. Keil,  C. Kelley,  P. P. Korambath,  W. Kurlancheek,  
 A. M. Lee,  M. S. Lee,  D. Liotard,  I. Lotan,  P. E. Maslen,  N. Nair,  
 D. Neuhauser,  R. Olson,  B. Peters,  J. Ritchie,  N. E. Schultz,  
 N. Shenvi,  A. C. Simmonett,  K. S. Thanthiriwatte,  Q. Wu,  W. Zhang

 Please cite Q-Chem as follows:
 Y. Shao et al., Mol. Phys. 113, 184-215 (2015)
 DOI: 10.1080/00268976.2014.952696

 Q-Chem 4.4.2 for Intel X86 EM64T Linux

 Parts of Q-Chem use Armadillo 5.200.1 (Boston Tea Smuggler).
 http://arma.sourceforge.net/

 Q-Chem begins on Wed May 31 02:24:50 2017  

Host: nid00447
0

     Scratch files written to /global/cscratch1/sd/bwood/qchem/nx/qchem48630.0//
 Parallel job on  16  processors

Checking the input file for inconsistencies... 	...done.

--------------------------------------------------------------
User input:
--------------------------------------------------------------
$molecule
 0  1
 S           0.00238887        0.06077275        0.00183269
 C           1.73707619        0.03315849        0.00323229
 H           2.27612737        0.05289032        0.94042557
 C           2.24169204       -0.01546201       -1.26965798
 H           3.30285780       -0.04005365       -1.48972496
 C           1.22479222       -0.01612968       -2.26811464
 H           1.42674790       -0.02650987       -3.33334501
 C          -0.05393771        0.02880388       -1.75170966
 C          -1.32450815        0.04889988       -2.45636342
 C          -2.51912638        0.62538391       -2.07611104
 H          -2.63608074        1.17689977       -1.14984434
 C          -3.56320830        0.45256729       -3.03052819
 H          -4.56608740        0.84441609       -2.90489913
 C          -3.16270237       -0.25251408       -4.13487843
 H          -3.74120818       -0.51980274       -5.00858837
 S          -1.50014430       -0.73382863       -4.01752319
$end


$rem
         jobtype = opt
        exchange = b3lyp
           basis = 6-31++g**
  max_scf_cycles = 150
      mem_static = 775
       mem_total = 7750
      sym_ignore = true
        symmetry = false
          thresh = 12
$end


$opt
CONSTRAINT
tors 6 8 9 10 -150.0
ENDCONSTRAINT
$end

--------------------------------------------------------------
 ----------------------------------------------------------------
             Standard Nuclear Orientation (Angstroms)
    I     Atom           X                Y                Z
 ----------------------------------------------------------------
    1      S       0.0023888700     0.0607727500     0.0018326900
    2      C       1.7370761900     0.0331584900     0.0032322900
    3      H       2.2761273700     0.0528903200     0.9404255700
    4      C       2.2416920400    -0.0154620100    -1.2696579800
    5      H       3.3028578000    -0.0400536500    -1.4897249600
    6      C       1.2247922200    -0.0161296800    -2.2681146400
    7      H       1.4267479000    -0.0265098700    -3.3333450100
    8      C      -0.0539377100     0.0288038800    -1.7517096600
    9      C      -1.3245081500     0.0488998800    -2.4563634200
   10      C      -2.5191263800     0.6253839100    -2.0761110400
   11      H      -2.6360807400     1.1768997700    -1.1498443400
   12      C      -3.5632083000     0.4525672900    -3.0305281900
   13      H      -4.5660874000     0.8444160900    -2.9048991300
   14      C      -3.1627023700    -0.2525140800    -4.1348784300
   15      H      -3.7412081800    -0.5198027400    -5.0085883700
   16      S      -1.5001443000    -0.7338286300    -4.0175231900
 ----------------------------------------------------------------
 Nuclear Repulsion Energy =   628.8598045668 hartrees
 There are       43 alpha and       43 beta electrons
 Requested basis set is 6-31++G(d,p)
 There are 76 shells and 234 basis functions

 Total QAlloc Memory Limit   7750 MB
 Mega-Array Size       758 MB
 MEM_STATIC part       775 MB
 A cutoff of  1.0D-12 yielded   2529 shell pairs
 There are     24905 function pairs

 Q-Chem warning in module /project/projectdirs/jcesr/qchem/qc44/cnl_qc441/compile/cori/qc_src/libqints/qchem/aobasis.C, line 68:

 Using reconstructed effective core potential

 
 -------------------------------------------------------
 OpenMP Integral Computing Module                       
 Release: version 1.0, May 2013, Q-Chem Inc. Pittsburgh 
 -------------------------------------------------------
 Integral Job Info:
 Integral job number is                      11
 Integral operator is                         1
 short-range coefficients                     0
 long-range coefficients              100000000
 Omega coefficients                           0
 if combine SR and LR in K                    0
 Integral screening is                        0
 Integral computing path is                   2
 max size of driver memory is            800000
 size of driver memory is                593474
 size of scratch memory is             15166112
 max col of scratch BK array               1296
 max len of scratch array in speh3          155
 max len of scratch index in speh4           18
 max int batch size is                      520
 min int batch size is                       52
 fixed nKL is                                52
 max L of basis functions is                  2
 order of int derivative is                   0
 number of shells is                         76
 number of basis is                         234
 number of cartesian basis is               234
 number of contracted shell pairs          2529
 number of primitive shell pairs           8256
 maxK2 (contraction) of shell pair           36
 max number of K2 of shell pair               1
 max number of CS2 of shell pair            266
 max number of PS2 of shell pair           1524
 mem total for path MDJ                   51992
 -------------------------------------------------------
 Smallest overlap matrix eigenvalue = 1.01E-06

 Scale SEOQF with 1.000000e-01/1.000000e-01/1.000000e-01

 Standard Electronic Orientation quadrupole field applied
 Nucleus-field energy     =    -0.0000000496 hartrees
 Guess from superposition of atomic densities
 Warning:  Energy on first SCF cycle will be non-variational
 A restricted hybrid HF-DFT SCF calculation will be
 performed using Pulay DIIS extrapolation
 Exchange:     0.2000 Hartree-Fock + 0.0800 Slater + 0.7200 B88
 Correlation:  0.1900 VWN1RPA + 0.8100 LYP
 Using SG-1 standard quadrature grid
 SCF converges when DIIS error is below 1.0E-08
 ---------------------------------------
  Cycle       Energy         DIIS Error
 ---------------------------------------
    1   -1107.1563294912      4.39E-02
    2   -1104.6642624799      4.77E-03
    3   -1104.4493201923      6.97E-03
    4   -1104.8341290315      9.03E-04
    5   -1104.8386104053      5.39E-04
    6   -1104.8404830230      1.88E-04
    7   -1104.8407130029      8.06E-05
    8   -1104.8407596466      1.24E-05
    9   -1104.8407608149      2.11E-06
   10   -1104.8407608397      1.29E-06
   11   -1104.8407608518      3.93E-07
   12   -1104.8407608535      1.64E-07
   13   -1104.8407608535      2.50E-08
   14   -1104.8407608537      1.71E-08
   15   -1104.8407608543      3.05E-09 Convergence criterion met
 ---------------------------------------
 SCF time:  CPU 8.08 s  wall 7.72 s
 SCF   energy in the final basis set = -1104.8407608543
 Total energy in the final basis set = -1104.8407608543
 
 --------------------------------------------------------------
 
                    Orbital Energies (a.u.)
 --------------------------------------------------------------
 
 Alpha MOs
 -- Occupied --
-88.920 -88.920 -10.239 -10.238 -10.225 -10.225 -10.204 -10.204
-10.203 -10.203  -7.979  -7.979  -5.944  -5.944  -5.940  -5.940
 -5.936  -5.936  -0.900  -0.878  -0.771  -0.749  -0.738  -0.706
 -0.604  -0.579  -0.553  -0.534  -0.526  -0.478  -0.420  -0.418
 -0.408  -0.405  -0.400  -0.378  -0.374  -0.357  -0.345  -0.278
 -0.263  -0.260  -0.215
 -- Virtual --
 -0.055  -0.007  -0.006  -0.003   0.007   0.009   0.017   0.022
  0.031   0.035   0.038   0.047   0.048   0.051   0.059   0.061
  0.072   0.081   0.088   0.096   0.099   0.102   0.107   0.108
  0.119   0.123   0.129   0.132   0.134   0.137   0.138   0.138
  0.148   0.155   0.162   0.164   0.165   0.174   0.179   0.182
  0.186   0.192   0.205   0.209   0.213   0.221   0.222   0.226
  0.240   0.252   0.257   0.263   0.266   0.276   0.283   0.292
  0.312   0.316   0.328   0.342   0.354   0.354   0.378   0.388
  0.431   0.454   0.465   0.517   0.519   0.540   0.546   0.567
  0.581   0.611   0.616   0.618   0.650   0.658   0.663   0.679
  0.680   0.699   0.720   0.727   0.729   0.741   0.753   0.773
  0.788   0.817   0.819   0.832   0.843   0.867   0.918   0.941
  0.950   0.957   0.957   0.961   0.968   0.990   0.998   1.014
  1.018   1.031   1.047   1.066   1.091   1.100   1.116   1.138
  1.147   1.177   1.195   1.224   1.245   1.268   1.319   1.343
  1.348   1.351   1.359   1.376   1.462   1.465   1.513   1.527
  1.568   1.684   1.693   1.738   1.802   1.865   1.867   1.891
  1.919   1.920   1.943   1.972   2.006   2.044   2.072   2.093
  2.111   2.159   2.176   2.182   2.235   2.243   2.257   2.333
  2.364   2.367   2.421   2.452   2.456   2.466   2.493   2.506
  2.528   2.533   2.576   2.585   2.603   2.662   2.692   2.719
  2.747   2.854   2.865   2.918   2.933   3.146   3.201   3.269
  3.273   3.401   3.427   3.721   3.743   3.973   3.977   4.245
  4.305   4.317   4.331   4.413   4.538   4.657   4.713
 --------------------------------------------------------------
 
          Ground-State Mulliken Net Atomic Charges

     Atom                 Charge (a.u.)
  ----------------------------------------
      1 S                    -0.057121
      2 C                    -0.037972
      3 H                     0.188057
      4 C                    -0.392644
      5 H                     0.115053
      6 C                     0.305355
      7 H                     0.128726
      8 C                    -0.250780
      9 C                    -0.248480
     10 C                     0.305096
     11 H                     0.128895
     12 C                    -0.392948
     13 H                     0.114948
     14 C                    -0.037830
     15 H                     0.188074
     16 S                    -0.056431
  ----------------------------------------
  Sum of atomic charges =     0.000000

 -----------------------------------------------------------------
                    Cartesian Multipole Moments
 -----------------------------------------------------------------
    Charge (ESU x 10^10)
                 0.0000
    Dipole Moment (Debye)
         X       0.0476      Y       0.3048      Z      -0.0779
       Tot       0.3181
    Quadrupole Moments (Debye-Ang)
        XX     -62.8373     XY      -1.7106     YY     -77.3863
        XZ       3.6285     YZ       1.4244     ZZ     -67.5291
    Octopole Moments (Debye-Ang^2)
       XXX     135.1289    XXY      10.1595    XYY      49.9121
       YYY       8.7789    XXZ     122.6969    XYZ      -2.1704
       YYZ     160.6826    XZZ      34.0209    YZZ      -8.6662
       ZZZ     426.4406
    Hexadecapole Moments (Debye-Ang^3)
      XXXX   -1609.0327   XXXY     -31.3857   XXYY    -346.7114
      XYYY       6.2977   YYYY    -178.7043   XXXZ    -608.3744
      XXYZ     -25.4767   XYYZ    -250.5343   YYYZ     -84.7824
      XXZZ    -658.3810   XYZZ      35.4067   YYZZ    -562.2907
      XZZZ    -588.2989   YZZZ     -13.2336   ZZZZ   -2849.2752
 -----------------------------------------------------------------
 Calculating analytic gradient of the SCF energy
 Gradient of SCF Energy
            1           2           3           4           5           6
    1  -0.0000022   0.0001883  -0.0000535  -0.0000172  -0.0000008   0.0001573
    2  -0.0000454  -0.0000490  -0.0000416   0.0000446  -0.0000245   0.0003891
    3   0.0001080  -0.0001414   0.0000132  -0.0000449   0.0000097   0.0001015
            7           8           9          10          11          12
    1   0.0001478  -0.0007729   0.0007770  -0.0000794  -0.0001494   0.0000135
    2  -0.0000430  -0.0001904  -0.0001918   0.0002966  -0.0000304   0.0000767
    3   0.0000165  -0.0001951   0.0003575  -0.0002304  -0.0000444  -0.0000882
           13          14          15          16
    1  -0.0000066  -0.0001155   0.0000232  -0.0001096
    2  -0.0000182   0.0000957  -0.0000689  -0.0001994
    3   0.0000092   0.0002393   0.0000039  -0.0001144
 Max gradient component =       7.770E-04
 RMS gradient           =       2.076E-04
 Gradient time:  CPU 2.12 s  wall 2.07 s
 Geometry Optimization Parameters
   NAtoms,    NIC,     NZ,  NCons,   NDum,   NFix, NCnnct, MaxDiis
       16     111       0       1       0       0       0       0


** CONSTRAINED OPTIMIZATION IN DELOCALIZED INTERNAL COORDINATES **
   Searching for a Minimum

   Optimization Cycle:   1

                       Coordinates (Angstroms)
     ATOM                X               Y               Z
      1  S         0.0023888700    0.0607727500    0.0018326900
      2  C         1.7370761900    0.0331584900    0.0032322900
      3  H         2.2761273700    0.0528903200    0.9404255700
      4  C         2.2416920400   -0.0154620100   -1.2696579800
      5  H         3.3028578000   -0.0400536500   -1.4897249600
      6  C         1.2247922200   -0.0161296800   -2.2681146400
      7  H         1.4267479000   -0.0265098700   -3.3333450100
      8  C        -0.0539377100    0.0288038800   -1.7517096600
      9  C        -1.3245081500    0.0488998800   -2.4563634200
     10  C        -2.5191263800    0.6253839100   -2.0761110400
     11  H        -2.6360807400    1.1768997700   -1.1498443400
     12  C        -3.5632083000    0.4525672900   -3.0305281900
     13  H        -4.5660874000    0.8444160900   -2.9048991300
     14  C        -3.1627023700   -0.2525140800   -4.1348784300
     15  H        -3.7412081800   -0.5198027400   -5.0085883700
     16  S        -1.5001443000   -0.7338286300   -4.0175231900
   Point Group: c1    Number of degrees of freedom:    42


   Energy is  -1104.840760854

              Constraints and their Current Values
                                        Value     Constraint
   Dihedral:        6   8   9  10     -150.000     -150.000

 Attempting to Generate Delocalized Internal Coordinates

 41 Hessian modes will be used to form the next step
  Hessian Eigenvalues:
     0.045000    0.045000    0.045000    0.045000    0.045000    0.045000
     0.045002    0.045002    0.045003    0.045004    0.045011    0.045012
     0.159943    0.159949    0.159991    0.159992    0.160000    0.160000
     0.221282    0.221282    0.237835    0.237839    0.250000    0.250000
     0.294264    0.294663    0.312518    0.312618    0.354736    0.354850
     0.355125    0.355132    0.358226    0.358329    0.378510    0.404854
     0.404909    0.463547    0.463616    0.497922    0.497945

 Minimum Search - Taking Simple RFO Step
 Searching for Lamda that Minimizes Along All modes
 Value Taken    Lamda =  -0.00000613
 Step Taken.  Stepsize is  0.009622

                             Maximum     Tolerance    Cnvgd?
         Gradient           0.000381      0.000300      NO
         Displacement       0.004846      0.001200      NO
         Energy change     *********      0.000001      NO


 New Cartesian Coordinates Obtained by Inverse Iteration

 Displacement from previous Coordinates is:  0.025067
 ----------------------------------------------------------------
             Standard Nuclear Orientation (Angstroms)
    I     Atom           X                Y                Z
 ----------------------------------------------------------------
    1      S       0.0023731216     0.0612041404     0.0021505370
    2      C       1.7369387876     0.0359087829     0.0031650113
    3      H       2.2765576904     0.0591314959     0.9399804280
    4      C       2.2412300063    -0.0155582419    -1.2698888893
    5      H       3.3023622092    -0.0391093798    -1.4902398459
    6      C       1.2240481767    -0.0193127109    -2.2682230142
    7      H       1.4245444012    -0.0309309348    -3.3336961583
    8      C      -0.0540380137     0.0258675654    -1.7511500331
    9      C      -1.3253662490     0.0462633345    -2.4555101252
   10      C      -2.5192584196     0.6229280469    -2.0745830636
   11      H      -2.6351057730     1.1733512164    -1.1474651491
   12      C      -3.5628172762     0.4523244374    -3.0301182024
   13      H      -4.5654046707     0.8449725617    -2.9046810758
   14      C      -3.1618186787    -0.2502559640    -4.1361378120
   15      H      -3.7398273089    -0.5144944713    -5.0111025265
   16      S      -1.4997391432    -0.7327981587    -4.0182978908
 ----------------------------------------------------------------
 Nuclear Repulsion Energy =   628.8962586174 hartrees
 There are       43 alpha and       43 beta electrons
 Applying Cartesian multipole field
    Component          Value
    ---------          -----
     (2,0,0)        1.00000E-11
     (0,2,0)        2.00000E-11
     (0,0,2)       -3.00000E-11
 Nucleus-field energy     =    -0.0000000497 hartrees
 Requested basis set is 6-31++G(d,p)
 There are 76 shells and 234 basis functions
 A cutoff of  1.0D-12 yielded   2529 shell pairs
 There are     24905 function pairs

 Q-Chem warning in module /project/projectdirs/jcesr/qchem/qc44/cnl_qc441/compile/cori/qc_src/libqints/qchem/aobasis.C, line 68:

 Using reconstructed effective core potential

 Smallest overlap matrix eigenvalue = 1.01E-06
 Guess MOs from SCF MO coefficient file
 Reading MOs from coefficient file
 Reading MOs from coefficient file
 A restricted hybrid HF-DFT SCF calculation will be
 performed using Pulay DIIS extrapolation
 Exchange:     0.2000 Hartree-Fock + 0.0800 Slater + 0.7200 B88
 Correlation:  0.1900 VWN1RPA + 0.8100 LYP
 Using SG-1 standard quadrature grid
 SCF converges when DIIS error is below 1.0E-08
 Geometry optimization detected.  Setting ReadMinima to 0
 Setting SaveMinima to 0
 ---------------------------------------
  Cycle       Energy         DIIS Error
 ---------------------------------------
    1   -1104.8409322750      9.27E-05
    2   -1104.8407646894      7.30E-06
    3   -1104.8407643920      1.06E-05
    4   -1104.8407652014      2.77E-06
    5   -1104.8407652508      1.08E-06
    6   -1104.8407652575      5.49E-07
    7   -1104.8407652590      1.06E-07
    8   -1104.8407652611      1.58E-08
    9   -1104.8407652602      9.18E-09 Convergence criterion met
 ---------------------------------------
 SCF time:  CPU 4.90 s  wall 4.62 s
 SCF   energy in the final basis set = -1104.8407652602
 Total energy in the final basis set = -1104.8407652602
 
 --------------------------------------------------------------
 
                    Orbital Energies (a.u.)
 --------------------------------------------------------------
 
 Alpha MOs
 -- Occupied --
-88.920 -88.920 -10.239 -10.238 -10.225 -10.225 -10.204 -10.204
-10.203 -10.203  -7.979  -7.979  -5.944  -5.944  -5.940  -5.940
 -5.936  -5.936  -0.900  -0.878  -0.771  -0.749  -0.738  -0.706
 -0.604  -0.579  -0.553  -0.534  -0.526  -0.478  -0.420  -0.418
 -0.408  -0.405  -0.400  -0.378  -0.374  -0.357  -0.345  -0.278
 -0.263  -0.260  -0.215
 -- Virtual --
 -0.055  -0.006  -0.006  -0.003   0.007   0.009   0.017   0.022
  0.031   0.035   0.038   0.047   0.049   0.051   0.059   0.061
  0.072   0.082   0.088   0.096   0.099   0.102   0.107   0.108
  0.119   0.123   0.129   0.132   0.134   0.137   0.138   0.138
  0.148   0.155   0.162   0.164   0.165   0.174   0.179   0.182
  0.186   0.192   0.205   0.209   0.213   0.221   0.222   0.226
  0.241   0.252   0.257   0.263   0.266   0.277   0.283   0.292
  0.312   0.316   0.328   0.342   0.354   0.355   0.378   0.388
  0.431   0.454   0.465   0.517   0.519   0.540   0.546   0.567
  0.582   0.611   0.616   0.618   0.650   0.658   0.663   0.679
  0.679   0.699   0.720   0.727   0.729   0.741   0.753   0.773
  0.788   0.817   0.819   0.832   0.843   0.867   0.918   0.941
  0.949   0.957   0.957   0.961   0.968   0.990   0.997   1.014
  1.018   1.031   1.046   1.066   1.091   1.100   1.116   1.138
  1.147   1.177   1.195   1.224   1.245   1.268   1.318   1.342
  1.348   1.352   1.359   1.377   1.463   1.465   1.513   1.526
  1.569   1.684   1.693   1.738   1.802   1.865   1.868   1.891
  1.919   1.920   1.943   1.972   2.006   2.044   2.072   2.093
  2.112   2.159   2.176   2.182   2.235   2.243   2.257   2.333
  2.364   2.367   2.421   2.452   2.455   2.466   2.493   2.506
  2.528   2.534   2.576   2.585   2.603   2.662   2.692   2.719
  2.747   2.854   2.864   2.918   2.933   3.146   3.201   3.269
  3.273   3.401   3.427   3.721   3.743   3.973   3.977   4.245
  4.305   4.317   4.331   4.413   4.538   4.657   4.713
 --------------------------------------------------------------
 
          Ground-State Mulliken Net Atomic Charges

     Atom                 Charge (a.u.)
  ----------------------------------------
      1 S                    -0.057707
      2 C                    -0.038100
      3 H                     0.188010
      4 C                    -0.392904
      5 H                     0.115023
      6 C                     0.306676
      7 H                     0.128674
      8 C                    -0.251342
      9 C                    -0.248175
     10 C                     0.306189
     11 H                     0.128904
     12 C                    -0.393085
     13 H                     0.114920
     14 C                    -0.038002
     15 H                     0.188026
     16 S                    -0.057107
  ----------------------------------------
  Sum of atomic charges =     0.000000

 -----------------------------------------------------------------
                    Cartesian Multipole Moments
 -----------------------------------------------------------------
    Charge (ESU x 10^10)
                 0.0000
    Dipole Moment (Debye)
         X       0.0485      Y       0.3108      Z      -0.0796
       Tot       0.3245
    Quadrupole Moments (Debye-Ang)
        XX     -62.8585     XY      -1.7121     YY     -77.3925
        XZ       3.6269     YZ       1.4181     ZZ     -67.5059
    Octopole Moments (Debye-Ang^2)
       XXX     135.2124    XXY      10.2532    XYY      49.9420
       YYY       8.8236    XXZ     122.7490    XYZ      -2.0779
       YYZ     160.7104    XZZ      33.9781    YZZ      -8.5690
       ZZZ     426.2367
    Hexadecapole Moments (Debye-Ang^3)
      XXXX   -1609.0751   XXXY     -31.4965   XXYY    -346.6664
      XYYY       6.2976   YYYY    -178.3961   XXXZ    -608.5384
      XXYZ     -25.7812   XYYZ    -250.6262   YYYZ     -84.9796
      XXZZ    -658.3954   XYZZ      35.0075   YYZZ    -562.4758
      XZZZ    -587.7541   YZZZ     -13.7460   ZZZZ   -2848.3274
 -----------------------------------------------------------------
 Calculating analytic gradient of the SCF energy
 Gradient of SCF Energy
            1           2           3           4           5           6
    1   0.0000206   0.0000357  -0.0000289  -0.0000359  -0.0000053  -0.0000051
    2  -0.0000932   0.0000071   0.0000005  -0.0000142  -0.0000108   0.0003572
    3   0.0000735   0.0000000   0.0000233  -0.0000443  -0.0000035   0.0000178
            7           8           9          10          11          12
    1   0.0000349  -0.0001152   0.0000593   0.0001155  -0.0000365   0.0000246
    2  -0.0000225  -0.0002211  -0.0001220   0.0002934   0.0000046   0.0000105
    3  -0.0000036  -0.0001179   0.0002431  -0.0001980   0.0000094   0.0000265
           13          14          15          16
    1   0.0000081  -0.0000140   0.0000202  -0.0000780
    2   0.0000000  -0.0000196  -0.0000351  -0.0001349
    3   0.0000077   0.0000183  -0.0000127  -0.0000396
 Max gradient component =       3.572E-04
 RMS gradient           =       9.940E-05
 Gradient time:  CPU 2.08 s  wall 2.05 s
 Geometry Optimization Parameters
   NAtoms,    NIC,     NZ,  NCons,   NDum,   NFix, NCnnct, MaxDiis
       16     111       0       1       0       0       0       0

 Cartesian Hessian Update
 Hessian Updated using BFGS Update


** CONSTRAINED OPTIMIZATION IN DELOCALIZED INTERNAL COORDINATES **
   Searching for a Minimum

   Optimization Cycle:   2

                       Coordinates (Angstroms)
     ATOM                X               Y               Z
      1  S         0.0023731216    0.0612041404    0.0021505370
      2  C         1.7369387876    0.0359087829    0.0031650113
      3  H         2.2765576904    0.0591314959    0.9399804280
      4  C         2.2412300063   -0.0155582419   -1.2698888893
      5  H         3.3023622092   -0.0391093798   -1.4902398459
      6  C         1.2240481767   -0.0193127109   -2.2682230142
      7  H         1.4245444012   -0.0309309348   -3.3336961583
      8  C        -0.0540380137    0.0258675654   -1.7511500331
      9  C        -1.3253662490    0.0462633345   -2.4555101252
     10  C        -2.5192584196    0.6229280469   -2.0745830636
     11  H        -2.6351057730    1.1733512164   -1.1474651491
     12  C        -3.5628172762    0.4523244374   -3.0301182024
     13  H        -4.5654046707    0.8449725617   -2.9046810758
     14  C        -3.1618186787   -0.2502559640   -4.1361378120
     15  H        -3.7398273089   -0.5144944713   -5.0111025265
     16  S        -1.4997391432   -0.7327981587   -4.0182978908
   Point Group: c1    Number of degrees of freedom:    42


   Energy is  -1104.840765260

              Constraints and their Current Values
                                        Value     Constraint
   Dihedral:        6   8   9  10     -150.000     -150.000
 Hessian Updated using BFGS Update

 35 Hessian modes will be used to form the next step
  Hessian Eigenvalues:
     0.021265    0.045000    0.045001    0.045002    0.045010    0.045012
     0.047340    0.157174    0.159991    0.159993    0.160000    0.162775
     0.221266    0.225373    0.237837    0.244265    0.249584    0.250321
     0.289591    0.294577    0.312517    0.313501    0.354808    0.355052
     0.355125    0.355169    0.358221    0.358396    0.375713    0.404433
     0.404889    0.463583    0.497651    0.497727    0.510469

 Minimum Search - Taking Simple RFO Step
 Searching for Lamda that Minimizes Along All modes
 Value Taken    Lamda =  -0.00000392
 Step Taken.  Stepsize is  0.013347

                             Maximum     Tolerance    Cnvgd?
         Gradient           0.000161      0.000300     YES
         Displacement       0.007141      0.001200      NO
         Energy change     -0.000004      0.000001      NO


 New Cartesian Coordinates Obtained by Inverse Iteration

 Displacement from previous Coordinates is:  0.034333
 ----------------------------------------------------------------
             Standard Nuclear Orientation (Angstroms)
    I     Atom           X                Y                Z
 ----------------------------------------------------------------
    1      S       0.0025905999     0.0630625572     0.0024968903
    2      C       1.7371579565     0.0396583314     0.0029576068
    3      H       2.2775280274     0.0672110005     0.9392162143
    4      C       2.2411051979    -0.0155264239    -1.2700837161
    5      H       3.3022161953    -0.0380245502    -1.4906908679
    6      C       1.2234362630    -0.0236233760    -2.2680602871
    7      H       1.4227263771    -0.0373404811    -3.3336968039
    8      C      -0.0542969966     0.0217442217    -1.7504009591
    9      C      -1.3263831530     0.0423300863    -2.4542958050
   10      C      -2.5198689367     0.6191579791    -2.0726936873
   11      H      -2.6350417837     1.1677902119    -1.1444617098
   12      C      -3.5627057230     0.4522890693    -3.0298158507
   13      H      -4.5649778927     0.8458558200    -2.9046249144
   14      C      -3.1609912873    -0.2468853369    -4.1377677889
   15      H      -3.7384510070    -0.5071115131    -5.0142721171
   16      S      -1.4993649772    -0.7310958763    -4.0196040142
 ----------------------------------------------------------------
 Nuclear Repulsion Energy =   628.9118454582 hartrees
 There are       43 alpha and       43 beta electrons
 Applying Cartesian multipole field
    Component          Value
    ---------          -----
     (2,0,0)        1.00000E-11
     (0,2,0)        2.00000E-11
     (0,0,2)       -3.00000E-11
 Nucleus-field energy     =    -0.0000000497 hartrees
 Requested basis set is 6-31++G(d,p)
 There are 76 shells and 234 basis functions
 A cutoff of  1.0D-12 yielded   2529 shell pairs
 There are     24905 function pairs

 Q-Chem warning in module /project/projectdirs/jcesr/qchem/qc44/cnl_qc441/compile/cori/qc_src/libqints/qchem/aobasis.C, line 68:

 Using reconstructed effective core potential

 Smallest overlap matrix eigenvalue = 1.01E-06
 Guess MOs from SCF MO coefficient file
 Reading MOs from coefficient file
 Reading MOs from coefficient file
 A restricted hybrid HF-DFT SCF calculation will be
 performed using Pulay DIIS extrapolation
 Exchange:     0.2000 Hartree-Fock + 0.0800 Slater + 0.7200 B88
 Correlation:  0.1900 VWN1RPA + 0.8100 LYP
 Using SG-1 standard quadrature grid
 SCF converges when DIIS error is below 1.0E-08
 Geometry optimization detected.  Setting ReadMinima to 0
 Setting SaveMinima to 0
 ---------------------------------------
  Cycle       Energy         DIIS Error
 ---------------------------------------
    1   -1104.8404241701      1.26E-04
    2   -1104.8407664991      1.00E-05
    3   -1104.8407649244      1.85E-05
    4   -1104.8407675601      3.06E-06
    5   -1104.8407676116      1.65E-06
    6   -1104.8407676297      5.49E-07
    7   -1104.8407676311      1.59E-07
    8   -1104.8407676312      2.69E-08
    9   -1104.8407676316      9.91E-09 Convergence criterion met
 ---------------------------------------
 SCF time:  CPU 4.95 s  wall 5.82 s
 SCF   energy in the final basis set = -1104.8407676316
 Total energy in the final basis set = -1104.8407676316
 
 --------------------------------------------------------------
 
                    Orbital Energies (a.u.)
 --------------------------------------------------------------
 
 Alpha MOs
 -- Occupied --
-88.920 -88.920 -10.239 -10.238 -10.225 -10.225 -10.205 -10.205
-10.203 -10.203  -7.979  -7.979  -5.944  -5.944  -5.940  -5.940
 -5.936  -5.936  -0.900  -0.878  -0.771  -0.749  -0.738  -0.706
 -0.604  -0.579  -0.553  -0.534  -0.526  -0.478  -0.420  -0.418
 -0.408  -0.405  -0.400  -0.378  -0.374  -0.357  -0.345  -0.278
 -0.263  -0.260  -0.215
 -- Virtual --
 -0.055  -0.006  -0.006  -0.002   0.007   0.009   0.017   0.022
  0.031   0.035   0.038   0.047   0.049   0.051   0.059   0.061
  0.072   0.082   0.088   0.096   0.099   0.102   0.107   0.108
  0.119   0.123   0.129   0.132   0.133   0.137   0.138   0.138
  0.148   0.156   0.162   0.164   0.165   0.174   0.179   0.182
  0.186   0.192   0.205   0.209   0.213   0.221   0.222   0.225
  0.241   0.252   0.257   0.263   0.266   0.277   0.283   0.291
  0.312   0.316   0.328   0.342   0.354   0.355   0.378   0.388
  0.431   0.454   0.465   0.518   0.519   0.540   0.546   0.567
  0.582   0.612   0.616   0.617   0.650   0.658   0.663   0.679
  0.679   0.699   0.720   0.727   0.729   0.741   0.753   0.773
  0.788   0.817   0.819   0.832   0.843   0.867   0.918   0.941
  0.949   0.957   0.958   0.961   0.968   0.990   0.997   1.014
  1.018   1.031   1.046   1.065   1.091   1.100   1.116   1.138
  1.146   1.177   1.196   1.224   1.245   1.267   1.318   1.342
  1.349   1.352   1.359   1.377   1.463   1.466   1.513   1.526
  1.569   1.684   1.693   1.738   1.801   1.865   1.868   1.891
  1.919   1.921   1.943   1.972   2.006   2.044   2.073   2.093
  2.112   2.159   2.176   2.183   2.234   2.243   2.257   2.333
  2.364   2.367   2.421   2.452   2.455   2.466   2.493   2.506
  2.528   2.534   2.576   2.585   2.603   2.662   2.692   2.719
  2.747   2.854   2.864   2.918   2.933   3.146   3.201   3.269
  3.273   3.401   3.427   3.721   3.743   3.973   3.977   4.245
  4.306   4.317   4.331   4.413   4.538   4.657   4.713
 --------------------------------------------------------------
 
          Ground-State Mulliken Net Atomic Charges

     Atom                 Charge (a.u.)
  ----------------------------------------
      1 S                    -0.058595
      2 C                    -0.038301
      3 H                     0.187939
      4 C                    -0.392493
      5 H                     0.115024
      6 C                     0.307520
      7 H                     0.128533
      8 C                    -0.250739
      9 C                    -0.248294
     10 C                     0.306798
     11 H                     0.128785
     12 C                    -0.392607
     13 H                     0.114928
     14 C                    -0.038474
     15 H                     0.187933
     16 S                    -0.057956
  ----------------------------------------
  Sum of atomic charges =     0.000000

 -----------------------------------------------------------------
                    Cartesian Multipole Moments
 -----------------------------------------------------------------
    Charge (ESU x 10^10)
                 0.0000
    Dipole Moment (Debye)
         X       0.0498      Y       0.3186      Z      -0.0817
       Tot       0.3327
    Quadrupole Moments (Debye-Ang)
        XX     -62.8689     XY      -1.7175     YY     -77.4033
        XZ       3.6277     YZ       1.4085     ZZ     -67.4828
    Octopole Moments (Debye-Ang^2)
       XXX     135.2788    XXY      10.3636    XYY      49.9835
       YYY       8.8258    XXZ     122.7813    XYZ      -1.9450
       YYZ     160.7578    XZZ      33.9133    YZZ      -8.4456
       ZZZ     426.0244
    Hexadecapole Moments (Debye-Ang^3)
      XXXX   -1609.1780   XXXY     -31.6835   XXYY    -346.6757
      XYYY       6.3243   YYYY    -177.9497   XXXZ    -608.6850
      XXYZ     -26.2038   XYYZ    -250.7846   YYYZ     -85.2035
      XXZZ    -658.4126   XYZZ      34.4319   YYZZ    -562.7637
      XZZZ    -587.1520   YZZZ     -14.4462   ZZZZ   -2847.5039
 -----------------------------------------------------------------
 Calculating analytic gradient of the SCF energy
 Gradient of SCF Energy
            1           2           3           4           5           6
    1  -0.0000022  -0.0000483   0.0000092   0.0000215   0.0000050  -0.0000426
    2  -0.0000587  -0.0000005   0.0000352  -0.0000341   0.0000097   0.0003451
    3  -0.0000260   0.0000299  -0.0000034   0.0000265   0.0000001  -0.0000164
            7           8           9          10          11          12
    1  -0.0000455   0.0002805  -0.0003875   0.0001611   0.0000484  -0.0000313
    2   0.0000054  -0.0003338  -0.0001964   0.0003092   0.0000178  -0.0000432
    3   0.0000018  -0.0000256   0.0001554  -0.0001793  -0.0000009   0.0000218
           13          14          15          16
    1   0.0000010   0.0000219   0.0000001   0.0000089
    2   0.0000182  -0.0000579   0.0000159  -0.0000319
    3  -0.0000133  -0.0000400  -0.0000004   0.0000699
 Max gradient component =       3.875E-04
 RMS gradient           =       1.216E-04
 Gradient time:  CPU 2.13 s  wall 2.08 s
 Geometry Optimization Parameters
   NAtoms,    NIC,     NZ,  NCons,   NDum,   NFix, NCnnct, MaxDiis
       16     111       0       1       0       0       0       0

 Cartesian Hessian Update
 Hessian Updated using BFGS Update


** CONSTRAINED OPTIMIZATION IN DELOCALIZED INTERNAL COORDINATES **
   Searching for a Minimum

   Optimization Cycle:   3

                       Coordinates (Angstroms)
     ATOM                X               Y               Z
      1  S         0.0025905999    0.0630625572    0.0024968903
      2  C         1.7371579565    0.0396583314    0.0029576068
      3  H         2.2775280274    0.0672110005    0.9392162143
      4  C         2.2411051979   -0.0155264239   -1.2700837161
      5  H         3.3022161953   -0.0380245502   -1.4906908679
      6  C         1.2234362630   -0.0236233760   -2.2680602871
      7  H         1.4227263771   -0.0373404811   -3.3336968039
      8  C        -0.0542969966    0.0217442217   -1.7504009591
      9  C        -1.3263831530    0.0423300863   -2.4542958050
     10  C        -2.5198689367    0.6191579791   -2.0726936873
     11  H        -2.6350417837    1.1677902119   -1.1444617098
     12  C        -3.5627057230    0.4522890693   -3.0298158507
     13  H        -4.5649778927    0.8458558200   -2.9046249144
     14  C        -3.1609912873   -0.2468853369   -4.1377677889
     15  H        -3.7384510070   -0.5071115131   -5.0142721171
     16  S        -1.4993649772   -0.7310958763   -4.0196040142
   Point Group: c1    Number of degrees of freedom:    42


   Energy is  -1104.840767632

              Constraints and their Current Values
                                        Value     Constraint
   Dihedral:        6   8   9  10     -150.000     -150.000
 Hessian Updated using BFGS Update

 38 Hessian modes will be used to form the next step
  Hessian Eigenvalues:
     0.014255    0.045000    0.045001    0.045002    0.045004    0.045007
     0.045011    0.045393    0.048032    0.159946    0.159974    0.159992
     0.159998    0.160354    0.166544    0.221297    0.225457    0.237837
     0.245215    0.250217    0.250878    0.294559    0.296221    0.312633
     0.313474    0.354876    0.355054    0.355128    0.355334    0.358254
     0.358430    0.390946    0.404886    0.406639    0.463582    0.497672
     0.498429    0.520590

 Minimum Search - Taking Simple RFO Step
 Searching for Lamda that Minimizes Along All modes
 Value Taken    Lamda =   0.00000000
 Step Taken.  Stepsize is  0.006458

                             Maximum     Tolerance    Cnvgd?
         Gradient           0.000099      0.000300     YES
         Displacement       0.003706      0.001200      NO
         Energy change     -0.000002      0.000001      NO


 New Cartesian Coordinates Obtained by Inverse Iteration

 Displacement from previous Coordinates is:  0.015572
 ----------------------------------------------------------------
             Standard Nuclear Orientation (Angstroms)
    I     Atom           X                Y                Z
 ----------------------------------------------------------------
    1      S       0.0027145598     0.0644759172     0.0027159351
    2      C       1.7372998534     0.0414851908     0.0028189497
    3      H       2.2779101717     0.0705424070     0.9388938570
    4      C       2.2409702235    -0.0154141755    -1.2702448238
    5      H       3.3020358777    -0.0378874301    -1.4910278276
    6      C       1.2231276188    -0.0254011445    -2.2679922060
    7      H       1.4223168735    -0.0404327892    -3.3336371766
    8      C      -0.0545613777     0.0199732573    -1.7500831329
    9      C      -1.3266680562     0.0405489715    -2.4537232423
   10      C      -2.5201111666     0.6174362369    -2.0718421325
   11      H      -2.6355361791     1.1649879265    -1.1430077273
   12      C      -3.5625208567     0.4524336795    -3.0297206908
   13      H      -4.5647150167     0.8461328153    -2.9043984812
   14      C      -3.1605904964    -0.2452167359    -4.1385292714
   15      H      -3.7378330628    -0.5040288605    -5.0156013376
   16      S      -1.4991601063    -0.7301435463    -4.0204185019
 ----------------------------------------------------------------
 Nuclear Repulsion Energy =   628.9144833337 hartrees
 There are       43 alpha and       43 beta electrons
 Applying Cartesian multipole field
    Component          Value
    ---------          -----
     (2,0,0)        1.00000E-11
     (0,2,0)        2.00000E-11
     (0,0,2)       -3.00000E-11
 Nucleus-field energy     =    -0.0000000497 hartrees
 Requested basis set is 6-31++G(d,p)
 There are 76 shells and 234 basis functions
 A cutoff of  1.0D-12 yielded   2529 shell pairs
 There are     24905 function pairs

 Q-Chem warning in module /project/projectdirs/jcesr/qchem/qc44/cnl_qc441/compile/cori/qc_src/libqints/qchem/aobasis.C, line 68:

 Using reconstructed effective core potential

 Smallest overlap matrix eigenvalue = 1.00E-06
 Guess MOs from SCF MO coefficient file
 Reading MOs from coefficient file
 Reading MOs from coefficient file
 A restricted hybrid HF-DFT SCF calculation will be
 performed using Pulay DIIS extrapolation
 Exchange:     0.2000 Hartree-Fock + 0.0800 Slater + 0.7200 B88
 Correlation:  0.1900 VWN1RPA + 0.8100 LYP
 Using SG-1 standard quadrature grid
 SCF converges when DIIS error is below 1.0E-08
 Geometry optimization detected.  Setting ReadMinima to 0
 Setting SaveMinima to 0
 ---------------------------------------
  Cycle       Energy         DIIS Error
 ---------------------------------------
    1   -1104.8403933939      6.02E-05
    2   -1104.8407679331      4.92E-06
    3   -1104.8407673968      1.01E-05
    4   -1104.8407681923      1.20E-06
    5   -1104.8407682005      7.57E-07
    6   -1104.8407682033      2.39E-07
    7   -1104.8407682038      6.57E-08
    8   -1104.8407682027      1.35E-08
    9   -1104.8407682025      4.40E-09 Convergence criterion met
 ---------------------------------------
 SCF time:  CPU 4.90 s  wall 4.61 s
 SCF   energy in the final basis set = -1104.8407682025
 Total energy in the final basis set = -1104.8407682025
 
 --------------------------------------------------------------
 
                    Orbital Energies (a.u.)
 --------------------------------------------------------------
 
 Alpha MOs
 -- Occupied --
-88.920 -88.920 -10.239 -10.238 -10.225 -10.225 -10.205 -10.205
-10.203 -10.203  -7.979  -7.979  -5.944  -5.944  -5.940  -5.940
 -5.936  -5.936  -0.900  -0.878  -0.771  -0.749  -0.738  -0.706
 -0.604  -0.579  -0.553  -0.534  -0.526  -0.478  -0.420  -0.418
 -0.408  -0.405  -0.400  -0.378  -0.374  -0.357  -0.345  -0.278
 -0.263  -0.260  -0.215
 -- Virtual --
 -0.055  -0.006  -0.006  -0.002   0.007   0.009   0.017   0.022
  0.031   0.035   0.038   0.047   0.049   0.051   0.059   0.061
  0.072   0.082   0.088   0.096   0.099   0.102   0.107   0.108
  0.119   0.123   0.129   0.132   0.133   0.137   0.138   0.138
  0.148   0.156   0.162   0.164   0.165   0.173   0.179   0.182
  0.186   0.192   0.205   0.209   0.213   0.221   0.222   0.225
  0.241   0.252   0.257   0.263   0.266   0.277   0.283   0.291
  0.312   0.316   0.328   0.342   0.354   0.355   0.378   0.389
  0.431   0.454   0.465   0.518   0.518   0.541   0.547   0.567
  0.582   0.612   0.616   0.617   0.650   0.657   0.663   0.678
  0.679   0.699   0.720   0.727   0.729   0.741   0.753   0.773
  0.788   0.817   0.820   0.832   0.843   0.867   0.918   0.941
  0.949   0.957   0.958   0.961   0.968   0.990   0.997   1.014
  1.018   1.031   1.046   1.065   1.091   1.101   1.116   1.138
  1.146   1.176   1.196   1.224   1.245   1.267   1.318   1.342
  1.349   1.352   1.359   1.377   1.463   1.466   1.513   1.525
  1.570   1.683   1.693   1.737   1.801   1.865   1.868   1.891
  1.919   1.921   1.943   1.972   2.006   2.044   2.073   2.093
  2.113   2.159   2.176   2.183   2.234   2.243   2.256   2.333
  2.364   2.367   2.421   2.452   2.455   2.466   2.493   2.506
  2.528   2.534   2.576   2.585   2.604   2.662   2.692   2.719
  2.747   2.854   2.864   2.918   2.933   3.146   3.201   3.269
  3.273   3.401   3.427   3.721   3.743   3.973   3.977   4.245
  4.306   4.317   4.331   4.413   4.538   4.657   4.713
 --------------------------------------------------------------
 
          Ground-State Mulliken Net Atomic Charges

     Atom                 Charge (a.u.)
  ----------------------------------------
      1 S                    -0.058917
      2 C                    -0.038448
      3 H                     0.187917
      4 C                    -0.392152
      5 H                     0.115014
      6 C                     0.307382
      7 H                     0.128449
      8 C                    -0.249820
      9 C                    -0.248402
     10 C                     0.306834
     11 H                     0.128701
     12 C                    -0.392437
     13 H                     0.114915
     14 C                    -0.038688
     15 H                     0.187905
     16 S                    -0.058253
  ----------------------------------------
  Sum of atomic charges =     0.000000

 -----------------------------------------------------------------
                    Cartesian Multipole Moments
 -----------------------------------------------------------------
    Charge (ESU x 10^10)
                 0.0000
    Dipole Moment (Debye)
         X       0.0502      Y       0.3207      Z      -0.0822
       Tot       0.3349
    Quadrupole Moments (Debye-Ang)
        XX     -62.8704     XY      -1.7203     YY     -77.4090
        XZ       3.6266     YZ       1.4076     ZZ     -67.4748
    Octopole Moments (Debye-Ang^2)
       XXX     135.2900    XXY      10.3833    XYY      50.0019
       YYY       8.7837    XXZ     122.7968    XYZ      -1.8937
       YYZ     160.7830    XZZ      33.8935    YZZ      -8.4171
       ZZZ     425.9541
    Hexadecapole Moments (Debye-Ang^3)
      XXXX   -1609.1143   XXXY     -31.7347   XXYY    -346.6657
      XYYY       6.3583   YYYY    -177.7390   XXXZ    -608.7493
      XXYZ     -26.3287   XYYZ    -250.8530   YYYZ     -85.2543
      XXZZ    -658.4456   XYZZ      34.2161   YYZZ    -562.9176
      XZZZ    -586.9278   YZZZ     -14.6566   ZZZZ   -2847.3858
 -----------------------------------------------------------------
 Calculating analytic gradient of the SCF energy
 Gradient of SCF Energy
            1           2           3           4           5           6
    1  -0.0000076  -0.0000502   0.0000149   0.0000143  -0.0000016  -0.0000155
    2  -0.0000148  -0.0000131   0.0000360  -0.0000233   0.0000101   0.0003757
    3  -0.0000289   0.0000242  -0.0000055   0.0000218   0.0000027  -0.0000287
            7           8           9          10          11          12
    1  -0.0000338   0.0002160  -0.0003363   0.0001350   0.0000398  -0.0000168
    2   0.0000084  -0.0004085  -0.0002767   0.0003407   0.0000235  -0.0000328
    3  -0.0000034  -0.0000367   0.0001981  -0.0001642  -0.0000049   0.0000110
           13          14          15          16
    1   0.0000064   0.0000209  -0.0000060   0.0000204
    2   0.0000142  -0.0000525   0.0000171  -0.0000037
    3  -0.0000159  -0.0000233  -0.0000018   0.0000552
 Max gradient component =       4.085E-04
 RMS gradient           =       1.264E-04
 Gradient time:  CPU 2.06 s  wall 2.14 s
 Geometry Optimization Parameters
   NAtoms,    NIC,     NZ,  NCons,   NDum,   NFix, NCnnct, MaxDiis
       16     111       0       1       0       0       0       0

 Cartesian Hessian Update
 Hessian Updated using BFGS Update


** CONSTRAINED OPTIMIZATION IN DELOCALIZED INTERNAL COORDINATES **
   Searching for a Minimum

   Optimization Cycle:   4

                       Coordinates (Angstroms)
     ATOM                X               Y               Z
      1  S         0.0027145598    0.0644759172    0.0027159351
      2  C         1.7372998534    0.0414851908    0.0028189497
      3  H         2.2779101717    0.0705424070    0.9388938570
      4  C         2.2409702235   -0.0154141755   -1.2702448238
      5  H         3.3020358777   -0.0378874301   -1.4910278276
      6  C         1.2231276188   -0.0254011445   -2.2679922060
      7  H         1.4223168735   -0.0404327892   -3.3336371766
      8  C        -0.0545613777    0.0199732573   -1.7500831329
      9  C        -1.3266680562    0.0405489715   -2.4537232423
     10  C        -2.5201111666    0.6174362369   -2.0718421325
     11  H        -2.6355361791    1.1649879265   -1.1430077273
     12  C        -3.5625208567    0.4524336795   -3.0297206908
     13  H        -4.5647150167    0.8461328153   -2.9043984812
     14  C        -3.1605904964   -0.2452167359   -4.1385292714
     15  H        -3.7378330628   -0.5040288605   -5.0156013376
     16  S        -1.4991601063   -0.7301435463   -4.0204185019
   Point Group: c1    Number of degrees of freedom:    42


   Energy is  -1104.840768203

              Constraints and their Current Values
                                        Value     Constraint
   Dihedral:        6   8   9  10     -150.000     -150.000
 Hessian Updated using BFGS Update

 41 Hessian modes will be used to form the next step
  Hessian Eigenvalues:
     0.010947    0.043853    0.045000    0.045000    0.045000    0.045001
     0.045002    0.045003    0.045007    0.045010    0.045041    0.046513
     0.156461    0.159947    0.159992    0.159998    0.160016    0.161723
     0.221267    0.225485    0.237837    0.243717    0.250151    0.250315
     0.291155    0.294586    0.312512    0.313444    0.354874    0.355063
     0.355134    0.355495    0.358259    0.358461    0.374348    0.404629
     0.404889    0.463603    0.490400    0.497841    0.498945

 Minimum Search - Taking Simple RFO Step
 Searching for Lamda that Minimizes Along All modes
 Value Taken    Lamda =   0.00000000
 Step Taken.  Stepsize is  0.004637

                             Maximum     Tolerance    Cnvgd?
         Gradient           0.000075      0.000300     YES
         Displacement       0.002600      0.001200      NO
         Energy change     -0.000001      0.000001     YES

 Final energy is   -1104.84076820252     


 ******************************
 **  OPTIMIZATION CONVERGED  **
 ******************************

                       Coordinates (Angstroms)
     ATOM                X               Y               Z
      1  S         0.0027145598    0.0644759172    0.0027159351
      2  C         1.7372998534    0.0414851908    0.0028189497
      3  H         2.2779101717    0.0705424070    0.9388938570
      4  C         2.2409702235   -0.0154141755   -1.2702448238
      5  H         3.3020358777   -0.0378874301   -1.4910278276
      6  C         1.2231276188   -0.0254011445   -2.2679922060
      7  H         1.4223168735   -0.0404327892   -3.3336371766
      8  C        -0.0545613777    0.0199732573   -1.7500831329
      9  C        -1.3266680562    0.0405489715   -2.4537232423
     10  C        -2.5201111666    0.6174362369   -2.0718421325
     11  H        -2.6355361791    1.1649879265   -1.1430077273
     12  C        -3.5625208567    0.4524336795   -3.0297206908
     13  H        -4.5647150167    0.8461328153   -2.9043984812
     14  C        -3.1605904964   -0.2452167359   -4.1385292714
     15  H        -3.7378330628   -0.5040288605   -5.0156013376
     16  S        -1.4991601063   -0.7301435463   -4.0204185019

Z-matrix Print:
$molecule
0 1
S 
C  1 1.734738
H  2 1.081360 1 119.972667
C  2 1.370260 1 111.594524 3 179.956961 0
H  4 1.084025 2 123.358186 1 179.980854 0
C  4 1.425343 2 112.839911 1 0.692112 0
H  6 1.084205 4 123.843360 2 178.273973 0
C  6 1.379412 4 113.477630 2 -0.183499 0
C  8 1.453887 6 128.991198 4 179.225643 0
C  9 1.379470 8 128.970175 6 -150.000000 0
H  10 1.084375 9 122.709444 8 0.773952 0
C  10 1.425263 9 113.471060 8 179.174101 0
H  12 1.084019 10 123.809294 9 -179.432220 0
C  12 1.370299 10 112.844864 9 -0.167430 0
H  14 1.081410 12 128.429738 10 -179.358162 0
S  14 1.734778 12 111.600868 10 0.683160 0
$end

 
 --------------------------------------------------------------
 
                    Orbital Energies (a.u.)
 --------------------------------------------------------------
 
 Alpha MOs
 -- Occupied --
-88.920 -88.920 -10.239 -10.238 -10.225 -10.225 -10.205 -10.205
-10.203 -10.203  -7.979  -7.979  -5.944  -5.944  -5.940  -5.940
 -5.936  -5.936  -0.900  -0.878  -0.771  -0.749  -0.738  -0.706
 -0.604  -0.579  -0.553  -0.534  -0.526  -0.478  -0.420  -0.418
 -0.408  -0.405  -0.400  -0.378  -0.374  -0.357  -0.345  -0.278
 -0.263  -0.260  -0.215
 -- Virtual --
 -0.055  -0.006  -0.006  -0.002   0.007   0.009   0.017   0.022
  0.031   0.035   0.038   0.047   0.049   0.051   0.059   0.061
  0.072   0.082   0.088   0.096   0.099   0.102   0.107   0.108
  0.119   0.123   0.129   0.132   0.133   0.137   0.138   0.138
  0.148   0.156   0.162   0.164   0.165   0.173   0.179   0.182
  0.186   0.192   0.205   0.209   0.213   0.221   0.222   0.225
  0.241   0.252   0.257   0.263   0.266   0.277   0.283   0.291
  0.312   0.316   0.328   0.342   0.354   0.355   0.378   0.389
  0.431   0.454   0.465   0.518   0.518   0.541   0.547   0.567
  0.582   0.612   0.616   0.617   0.650   0.657   0.663   0.678
  0.679   0.699   0.720   0.727   0.729   0.741   0.753   0.773
  0.788   0.817   0.820   0.832   0.843   0.867   0.918   0.941
  0.949   0.957   0.958   0.961   0.968   0.990   0.997   1.014
  1.018   1.031   1.046   1.065   1.091   1.101   1.116   1.138
  1.146   1.176   1.196   1.224   1.245   1.267   1.318   1.342
  1.349   1.352   1.359   1.377   1.463   1.466   1.513   1.525
  1.570   1.683   1.693   1.737   1.801   1.865   1.868   1.891
  1.919   1.921   1.943   1.972   2.006   2.044   2.073   2.093
  2.113   2.159   2.176   2.183   2.234   2.243   2.256   2.333
  2.364   2.367   2.421   2.452   2.455   2.466   2.493   2.506
  2.528   2.534   2.576   2.585   2.604   2.662   2.692   2.719
  2.747   2.854   2.864   2.918   2.933   3.146   3.201   3.269
  3.273   3.401   3.427   3.721   3.743   3.973   3.977   4.245
  4.306   4.317   4.331   4.413   4.538   4.657   4.713
 --------------------------------------------------------------
 
          Ground-State Mulliken Net Atomic Charges

     Atom                 Charge (a.u.)
  ----------------------------------------
      1 S                    -0.058917
      2 C                    -0.038448
      3 H                     0.187917
      4 C                    -0.392152
      5 H                     0.115014
      6 C                     0.307382
      7 H                     0.128449
      8 C                    -0.249820
      9 C                    -0.248402
     10 C                     0.306834
     11 H                     0.128701
     12 C                    -0.392437
     13 H                     0.114915
     14 C                    -0.038688
     15 H                     0.187905
     16 S                    -0.058253
  ----------------------------------------
  Sum of atomic charges =     0.000000

 -----------------------------------------------------------------
                    Cartesian Multipole Moments
 -----------------------------------------------------------------
    Charge (ESU x 10^10)
                 0.0000
    Dipole Moment (Debye)
         X       0.0502      Y       0.3207      Z      -0.0822
       Tot       0.3349
    Quadrupole Moments (Debye-Ang)
        XX     -62.8704     XY      -1.7203     YY     -77.4090
        XZ       3.6266     YZ       1.4076     ZZ     -67.4748
    Octopole Moments (Debye-Ang^2)
       XXX     135.2900    XXY      10.3833    XYY      50.0019
       YYY       8.7837    XXZ     122.7968    XYZ      -1.8937
       YYZ     160.7830    XZZ      33.8935    YZZ      -8.4171
       ZZZ     425.9541
    Hexadecapole Moments (Debye-Ang^3)
      XXXX   -1609.1143   XXXY     -31.7347   XXYY    -346.6657
      XYYY       6.3583   YYYY    -177.7390   XXXZ    -608.7493
      XXYZ     -26.3287   XYYZ    -250.8530   YYYZ     -85.2543
      XXZZ    -658.4456   XYZZ      34.2161   YYZZ    -562.9176
      XZZZ    -586.9278   YZZZ     -14.6566   ZZZZ   -2847.3858
 -----------------------------------------------------------------
Archival summary:
1\1\nid00488\OPT\ProcedureUnspecified\BasisUnspecified\286\bwood\WedMay3102:25:232017WedMay3102:25:232017\0\\#,OPT,ProcedureUnspecified,BasisUnspecified,\\0,1\S\C,1,1.73474\H,2,1.08136,1,119.973\C,2,1.37026,1,111.595,3,179.957,0\H,4,1.08403,2,123.358,1,179.981,0\C,4,1.42534,2,112.84,1,0.692112,0\H,6,1.08421,4,123.843,2,178.274,0\C,6,1.37941,4,113.478,2,-0.183499,0\C,8,1.45389,6,128.991,4,179.226,0\C,9,1.37947,8,128.97,6,-150,0\H,10,1.08437,9,122.709,8,0.773952,0\C,10,1.42526,9,113.471,8,179.174,0\H,12,1.08402,10,123.809,9,-179.432,0\C,12,1.3703,10,112.845,9,-0.16743,0\H,14,1.08141,12,128.43,10,-179.358,0\S,14,1.73478,12,111.601,10,0.68316,0\\\@

 Total job time:  33.34s(wall), 32.10s(cpu) 
 Wed May 31 02:25:23 2017

        *************************************************************
        *                                                           *
        *  Thank you very much for using Q-Chem.  Have a nice day.  *
        *                                                           *
        *************************************************************


0 sent ACK to 0 
now end server 0 ... 
