srun -N 1 --ntasks-per-node 16 --cpus-per-task 4 --cpu_bind=cores --nodelist nid00471 /global/project/projectdirs/jcesr/qchem/qc44/cnl_qc441/dist/exe/qcprog.cori.haswell.exe .pt_n2_neutral_170.0.in.48406.qcin.1 /global/cscratch1/sd/bwood/qchem/nx/qchem48406/
Process 1 of 16 is on nid00471 - thread support 0
Process 2 of 16 is on nid00471 - thread support 0
Process 3 of 16 is on nid00471 - thread support 0
Process 4 of 16 is on nid00471 - thread support 0
Process 5 of 16 is on nid00471 - thread support 0
Process 6 of 16 is on nid00471 - thread support 0
Process 15 of 16 is on nid00471 - thread support 0
Process 0 of 16 is on nid00471 - thread support 0
initial socket setup ...start
initial socket setup ...done 
now start server 0 ... 
nid00471 10.128.1
Q-Chem Developer Version! Running on 10.128.1.*
                  Welcome to Q-Chem
     A Quantum Leap Into The Future Of Chemistry


 Q-Chem 4.4, Q-Chem, Inc., Pleasanton, CA (2016)

 Y. Shao,  Z. Gan,  E. Epifanovsky,  A. T. B. Gilbert,  M. Wormit,  
 J. Kussmann,  A. W. Lange,  A. Behn,  J. Deng,  X. Feng,  D. Ghosh,  
 M. Goldey,  P. R. Horn,  L. D. Jacobson,  I. Kaliman,  F. Rob,  
 R. Z. Khaliullin,  T. Kus,  A. Landau,  J. Liu,  E. I. Proynov,  Y. M. Rhee,  
 R. M. Richard,  M. A. Rohrdanz,  R. P. Steele,  E. J. Sundstrom,  
 H. L. Woodcock III,  P. M. Zimmerman,  D. Zuev,  B. Albrecht,  E. Alguire,  
 B. Austin,  S. A. Baeppler,  G. J. O. Beran,  Y. A. Bernard,  
 E. J. Berquist,  K. Brandhorst,  K. B. Bravaya,  S. T. Brown,  D. Casanova,  
 C.-M. Chang,  Y. Chen,  S. H. Chien,  K. D. Closser,  M. P. Coons,  
 D. L. Crittenden,  S. Dasgupta,  M. Diedenhofen,  R. A. DiStasio Jr.,  
 H. Do,  A. D. Dutoi,  R. G. Edgar,  P.-T. Fang,  S. Fatehi,  Q. Feng,  
 L. Fusti-Molnar,  A. Ghysels,  A. Golubeva-Zadorozhnaya,  J. Gomes,  
 A. Gunina,  M. W. D. Hanson-Heine,  P. H. P. Harbach,  A. W. Hauser,  
 J. E. Herr,  E. G. Hohenstein,  Z. C. Holden,  K. Hui,  T.-C. Jagau,  H. Ji,  
 B. Kaduk,  K. Khistyaev,  Jaehoon Kim,  Jihan Kim,  R. A. King,  
 P. Klunzinger,  K. Koh,  D. Kosenkov,  T. Kowalczyk,  C. M. Krauter,  
 A. Kunitsa,  K. U. Lao,  A. Laurent,  K. V. Lawler,  J. Lee,  D. Lefrancois,  
 S. Lehtola,  S. V. Levchenko,  C. Y. Lin,  Y.-S. Lin,  F. Liu,  E. Livshits,  
 R. C. Lochan,  A. Luenser,  P. Manohar,  S. F. Manzer,  S.-P. Mao,  Y. Mao,  
 N. Mardirossian,  A. V. Marenich,  L. A. Martinez-Martinez,  S. A. Maurer,  
 N. J. Mayhall,  J.-M. Mewes,  A. F. Morrison,  K. Nanda,  T. S. Nguyen-Beck,  
 C. M. Oana,  R. Olivares-Amaya,  D. P. O'Neill,  J. A. Parkhill,  
 T. M. Perrine,  R. Peverati,  P. A. Pieniazek,  F. Plasser,  A. Prociuk,  
 D. R. Rehn,  E. Rosta,  N. J. Russ,  N. Sergueev,  S. M. Sharada,  
 S. Sharma,  D. W. Small,  A. Sodt,  T. Stauch,  T. Stein,  D. Stuck,  
 Y.-C. Su,  A. J. W. Thom,  T. Tsuchimochi,  L. Vogt,  O. Vydrov,  T. Wang,  
 M. A. Watson,  J. Wenzel,  A. White,  C. F. Williams,  V. Vanovschi,  
 K. Yao,  S. Yeganeh,  S. R. Yost,  Z.-Q. You,  I. Y. Zhang,  X. Zhang,  
 Y. Zhao,  B. R. Brooks,  G. K. L. Chan,  D. M. Chipman,  C. J. Cramer,  
 W. A. Goddard III,  M. S. Gordon,  W. J. Hehre,  A. Klamt,  
 H. F. Schaefer III,  M. W. Schmidt,  C. D. Sherrill,  D. G. Truhlar,  
 A. Warshel,  X. Xu,  A. Aspuru-Guzik,  R. Baer,  A. T. Bell,  N. A. Besley,  
 J.-D. Chai,  A. Dreuw,  B. D. Dunietz,  T. R. Furlani,  S. R. Gwaltney,  
 C.-P. Hsu,  Y. Jung,  J. Kong,  D. S. Lambrecht,  W. Liang,  C. Ochsenfeld,  
 V. A. Rassolov,  L. V. Slipchenko,  J. E. Subotnik,  T. Van Voorhis,  
 J. M. Herbert,  A. I. Krylov,  P. M. W. Gill,  M. Head-Gordon

 Contributors to earlier versions of Q-Chem not listed above: 
 R. D. Adamson,  J. Baker,  E. F. C. Byrd,  A. K. Chakraborty,  C.-L. Cheng,  
 H. Dachsel,  R. J. Doerksen,  G. Hawkins,  A. Heyden,  S. Hirata,  
 G. Kedziora,  F. J. Keil,  C. Kelley,  P. P. Korambath,  W. Kurlancheek,  
 A. M. Lee,  M. S. Lee,  D. Liotard,  I. Lotan,  P. E. Maslen,  N. Nair,  
 D. Neuhauser,  R. Olson,  B. Peters,  J. Ritchie,  N. E. Schultz,  
 N. Shenvi,  A. C. Simmonett,  K. S. Thanthiriwatte,  Q. Wu,  W. Zhang

 Please cite Q-Chem as follows:
 Y. Shao et al., Mol. Phys. 113, 184-215 (2015)
 DOI: 10.1080/00268976.2014.952696

 Q-Chem 4.4.2 for Intel X86 EM64T Linux

 Parts of Q-Chem use Armadillo 5.200.1 (Boston Tea Smuggler).
 http://arma.sourceforge.net/

 Q-Chem begins on Wed May 31 02:24:47 2017  

Host: nid00447
0

     Scratch files written to /global/cscratch1/sd/bwood/qchem/nx/qchem48406.0//
 Parallel job on  16  processors

Checking the input file for inconsistencies... 	...done.

--------------------------------------------------------------
User input:
--------------------------------------------------------------
$molecule
 0  1
 S           0.00238887        0.06077275        0.00183269
 C           1.73707619        0.03315849        0.00323229
 H           2.27612737        0.05289032        0.94042557
 C           2.24169204       -0.01546201       -1.26965798
 H           3.30285780       -0.04005365       -1.48972496
 C           1.22479222       -0.01612968       -2.26811464
 H           1.42674790       -0.02650987       -3.33334501
 C          -0.05393771        0.02880388       -1.75170966
 C          -1.32450815        0.04889988       -2.45636342
 C          -2.60033239       -0.09279835       -1.95016924
 H          -2.80066592       -0.22849695       -0.89315910
 C          -3.61876400       -0.00975265       -2.94353986
 H          -4.67832790       -0.09015457       -2.72916980
 C          -3.11827342        0.19626375       -4.20219017
 H          -3.65976074        0.30525913       -5.13191742
 S          -1.38526871        0.27494170       -4.19588780
$end


$rem
         jobtype = opt
        exchange = b3lyp
           basis = 6-31++g**
  max_scf_cycles = 150
      mem_static = 775
       mem_total = 7750
      sym_ignore = true
        symmetry = false
          thresh = 12
$end


$opt
CONSTRAINT
tors 6 8 9 10 170.0
ENDCONSTRAINT
$end

--------------------------------------------------------------
 ----------------------------------------------------------------
             Standard Nuclear Orientation (Angstroms)
    I     Atom           X                Y                Z
 ----------------------------------------------------------------
    1      S       0.0023888700     0.0607727500     0.0018326900
    2      C       1.7370761900     0.0331584900     0.0032322900
    3      H       2.2761273700     0.0528903200     0.9404255700
    4      C       2.2416920400    -0.0154620100    -1.2696579800
    5      H       3.3028578000    -0.0400536500    -1.4897249600
    6      C       1.2247922200    -0.0161296800    -2.2681146400
    7      H       1.4267479000    -0.0265098700    -3.3333450100
    8      C      -0.0539377100     0.0288038800    -1.7517096600
    9      C      -1.3245081500     0.0488998800    -2.4563634200
   10      C      -2.6003323900    -0.0927983500    -1.9501692400
   11      H      -2.8006659200    -0.2284969500    -0.8931591000
   12      C      -3.6187640000    -0.0097526500    -2.9435398600
   13      H      -4.6783279000    -0.0901545700    -2.7291698000
   14      C      -3.1182734200     0.1962637500    -4.2021901700
   15      H      -3.6597607400     0.3052591300    -5.1319174200
   16      S      -1.3852687100     0.2749417000    -4.1958878000
 ----------------------------------------------------------------
 Nuclear Repulsion Energy =   629.2152477353 hartrees
 There are       43 alpha and       43 beta electrons
 Requested basis set is 6-31++G(d,p)
 There are 76 shells and 234 basis functions

 Total QAlloc Memory Limit   7750 MB
 Mega-Array Size       758 MB
 MEM_STATIC part       775 MB
 A cutoff of  1.0D-12 yielded   2529 shell pairs
 There are     24905 function pairs

 Q-Chem warning in module /project/projectdirs/jcesr/qchem/qc44/cnl_qc441/compile/cori/qc_src/libqints/qchem/aobasis.C, line 68:

 Using reconstructed effective core potential

 
 -------------------------------------------------------
 OpenMP Integral Computing Module                       
 Release: version 1.0, May 2013, Q-Chem Inc. Pittsburgh 
 -------------------------------------------------------
 Integral Job Info:
 Integral job number is                      11
 Integral operator is                         1
 short-range coefficients                     0
 long-range coefficients              100000000
 Omega coefficients                           0
 if combine SR and LR in K                    0
 Integral screening is                        0
 Integral computing path is                   2
 max size of driver memory is            800000
 size of driver memory is                593474
 size of scratch memory is             15166112
 max col of scratch BK array               1296
 max len of scratch array in speh3          155
 max len of scratch index in speh4           18
 max int batch size is                      520
 min int batch size is                       52
 fixed nKL is                                52
 max L of basis functions is                  2
 order of int derivative is                   0
 number of shells is                         76
 number of basis is                         234
 number of cartesian basis is               234
 number of contracted shell pairs          2529
 number of primitive shell pairs           8260
 maxK2 (contraction) of shell pair           36
 max number of K2 of shell pair               1
 max number of CS2 of shell pair            266
 max number of PS2 of shell pair           1524
 mem total for path MDJ                   52408
 -------------------------------------------------------
 Smallest overlap matrix eigenvalue = 8.67E-07
 Linear dependence detected in AO basis
 Number of orthogonalized atomic orbitals = 233
 Maximum deviation from orthogonality = 7.923E-11

 Scale SEOQF with 1.000000e-01/1.000000e-01/1.000000e-02

 Standard Electronic Orientation quadrupole field applied
 Nucleus-field energy     =     0.0000000057 hartrees
 Guess from superposition of atomic densities
 Warning:  Energy on first SCF cycle will be non-variational
 A restricted hybrid HF-DFT SCF calculation will be
 performed using Pulay DIIS extrapolation
 Exchange:     0.2000 Hartree-Fock + 0.0800 Slater + 0.7200 B88
 Correlation:  0.1900 VWN1RPA + 0.8100 LYP
 Using SG-1 standard quadrature grid
 SCF converges when DIIS error is below 1.0E-08
 ---------------------------------------
  Cycle       Energy         DIIS Error
 ---------------------------------------
    1   -1107.1849321347      4.42E-02
    2   -1104.6742158355      4.64E-03
    3   -1104.4825691045      6.69E-03
    4   -1104.8354263811      7.93E-04
    5   -1104.8390246136      4.56E-04
    6   -1104.8403963961      1.33E-04
    7   -1104.8404928089      7.12E-05
    8   -1104.8405286884      1.20E-05
    9   -1104.8405298248      2.15E-06
   10   -1104.8405298544      1.02E-06
   11   -1104.8405298612      3.27E-07
   12   -1104.8405298625      1.81E-07
   13   -1104.8405298622      2.26E-08
   14   -1104.8405298621      7.72E-09 Convergence criterion met
 ---------------------------------------
 SCF time:  CPU 7.57 s  wall 7.18 s
 SCF   energy in the final basis set = -1104.8405298621
 Total energy in the final basis set = -1104.8405298621
 
 --------------------------------------------------------------
 
                    Orbital Energies (a.u.)
 --------------------------------------------------------------
 
 Alpha MOs
 -- Occupied --
-88.920 -88.920 -10.240 -10.239 -10.225 -10.225 -10.205 -10.205
-10.204 -10.204  -7.979  -7.979  -5.944  -5.944  -5.940  -5.940
 -5.936  -5.936  -0.901  -0.878  -0.772  -0.750  -0.737  -0.706
 -0.604  -0.582  -0.551  -0.534  -0.527  -0.478  -0.420  -0.418
 -0.408  -0.405  -0.402  -0.379  -0.374  -0.358  -0.343  -0.284
 -0.265  -0.258  -0.212
 -- Virtual --
 -0.059  -0.006  -0.004  -0.001   0.008   0.009   0.017   0.022
  0.032   0.036   0.037   0.044   0.051   0.056   0.062   0.065
  0.075   0.083   0.085   0.095   0.097   0.102   0.106   0.111
  0.117   0.124   0.125   0.131   0.132   0.142   0.143   0.144
  0.148   0.153   0.163   0.164   0.169   0.171   0.184   0.190
  0.192   0.200   0.209   0.209   0.220   0.220   0.226   0.227
  0.251   0.253   0.256   0.269   0.281   0.284   0.286   0.312
  0.321   0.323   0.348   0.349   0.353   0.373   0.395   0.406
  0.454   0.469   0.508   0.513   0.545   0.555   0.569   0.593
  0.607   0.621   0.648   0.650   0.656   0.657   0.665   0.690
  0.702   0.716   0.726   0.728   0.742   0.743   0.777   0.786
  0.817   0.818   0.824   0.847   0.866   0.920   0.938   0.948
  0.952   0.953   0.960   0.969   0.983   0.993   0.996   1.018
  1.028   1.043   1.069   1.104   1.110   1.119   1.147   1.166
  1.173   1.186   1.215   1.259   1.267   1.321   1.341   1.343
  1.352   1.354   1.372   1.468   1.480   1.492   1.543   1.604
  1.673   1.691   1.726   1.800   1.863   1.879   1.891   1.914
  1.923   1.936   1.954   2.008   2.054   2.068   2.075   2.121
  2.172   2.180   2.181   2.217   2.243   2.256   2.339   2.361
  2.365   2.418   2.452   2.455   2.470   2.491   2.509   2.526
  2.536   2.560   2.585   2.611   2.671   2.691   2.717   2.753
  2.864   2.874   2.932   2.938   3.144   3.208   3.267   3.275
  3.398   3.428   3.721   3.743   3.973   3.984   4.235   4.296
  4.309   4.319   4.410   4.535   4.659   4.716
 --------------------------------------------------------------
 
          Ground-State Mulliken Net Atomic Charges

     Atom                 Charge (a.u.)
  ----------------------------------------
      1 S                    -0.136772
      2 C                     0.017144
      3 H                     0.199925
      4 C                    -0.355937
      5 H                     0.121660
      6 C                     0.402872
      7 H                     0.116236
      8 C                    -0.364148
      9 C                    -0.365507
     10 C                     0.400318
     11 H                     0.116375
     12 C                    -0.354278
     13 H                     0.121676
     14 C                     0.016783
     15 H                     0.199946
     16 S                    -0.136294
  ----------------------------------------
  Sum of atomic charges =     0.000000

 -----------------------------------------------------------------
                    Cartesian Multipole Moments
 -----------------------------------------------------------------
    Charge (ESU x 10^10)
                 0.0000
    Dipole Moment (Debye)
         X      -0.0004      Y      -0.0335      Z      -0.0019
       Tot       0.0335
    Quadrupole Moments (Debye-Ang)
        XX     -62.2679     XY       0.1017     YY     -78.8469
        XZ       2.9981     YZ      -0.5542     ZZ     -66.9963
    Octopole Moments (Debye-Ang^2)
       XXX     128.9179    XXY      -5.9617    XYY      54.0980
       YYY     -16.5758    XXZ     126.6175    XYZ       2.7362
       YYZ     165.5199    XZZ      33.8518    YZZ      -0.2831
       ZZZ     422.8815
    Hexadecapole Moments (Debye-Ang^3)
      XXXX   -1581.9201   XXXY      24.2550   XXYY    -355.1455
      XYYY      22.9709   YYYY    -112.4386   XXXZ    -604.1542
      XXYZ      12.2780   XYYZ    -257.7661   YYYZ      61.8103
      XXZZ    -683.3229   XYZZ     -11.3822   YYZZ    -582.8362
      XZZZ    -562.0935   YZZZ      27.0355   ZZZZ   -2881.9576
 -----------------------------------------------------------------
 Calculating analytic gradient of the SCF energy
 Gradient of SCF Energy
            1           2           3           4           5           6
    1  -0.0001099  -0.0004364   0.0001072  -0.0000229   0.0000369  -0.0000310
    2  -0.0011908   0.0013115   0.0004784  -0.0012485   0.0000564  -0.0015719
    3  -0.0002288   0.0003698  -0.0000063  -0.0000282   0.0000036  -0.0003823
            7           8           9          10          11          12
    1  -0.0003727   0.0010188  -0.0009265   0.0001137   0.0002385   0.0000574
    2   0.0011102   0.0010876   0.0010670  -0.0017773   0.0011311  -0.0011585
    3  -0.0000534   0.0003745  -0.0001111   0.0001217   0.0002025  -0.0000574
           13          14          15          16
    1  -0.0000292   0.0004562  -0.0001334   0.0000333
    2   0.0000781   0.0013732   0.0004915  -0.0012380
    3   0.0000028  -0.0001778   0.0000462  -0.0000756
 Max gradient component =       1.777E-03
 RMS gradient           =       7.003E-04
 Gradient time:  CPU 2.09 s  wall 2.12 s
 Geometry Optimization Parameters
   NAtoms,    NIC,     NZ,  NCons,   NDum,   NFix, NCnnct, MaxDiis
       16     111       0       1       0       0       0       0


** CONSTRAINED OPTIMIZATION IN DELOCALIZED INTERNAL COORDINATES **
   Searching for a Minimum

   Optimization Cycle:   1

                       Coordinates (Angstroms)
     ATOM                X               Y               Z
      1  S         0.0023888700    0.0607727500    0.0018326900
      2  C         1.7370761900    0.0331584900    0.0032322900
      3  H         2.2761273700    0.0528903200    0.9404255700
      4  C         2.2416920400   -0.0154620100   -1.2696579800
      5  H         3.3028578000   -0.0400536500   -1.4897249600
      6  C         1.2247922200   -0.0161296800   -2.2681146400
      7  H         1.4267479000   -0.0265098700   -3.3333450100
      8  C        -0.0539377100    0.0288038800   -1.7517096600
      9  C        -1.3245081500    0.0488998800   -2.4563634200
     10  C        -2.6003323900   -0.0927983500   -1.9501692400
     11  H        -2.8006659200   -0.2284969500   -0.8931591000
     12  C        -3.6187640000   -0.0097526500   -2.9435398600
     13  H        -4.6783279000   -0.0901545700   -2.7291698000
     14  C        -3.1182734200    0.1962637500   -4.2021901700
     15  H        -3.6597607400    0.3052591300   -5.1319174200
     16  S        -1.3852687100    0.2749417000   -4.1958878000
   Point Group: c1    Number of degrees of freedom:    42


   Energy is  -1104.840529862

              Constraints and their Current Values
                                        Value     Constraint
   Dihedral:        6   8   9  10      170.000      170.000

 Attempting to Generate Delocalized Internal Coordinates

 41 Hessian modes will be used to form the next step
  Hessian Eigenvalues:
     0.045000    0.045000    0.045000    0.045000    0.045000    0.045000
     0.045002    0.045002    0.045003    0.045004    0.045011    0.045012
     0.159943    0.159949    0.159991    0.159992    0.160000    0.160000
     0.221282    0.221282    0.237835    0.237839    0.250000    0.250000
     0.294264    0.294663    0.312518    0.312618    0.354736    0.354850
     0.355125    0.355132    0.358226    0.358329    0.378510    0.404854
     0.404909    0.463547    0.463616    0.497922    0.497945

 Minimum Search - Taking Simple RFO Step
 Searching for Lamda that Minimizes Along All modes
 Value Taken    Lamda =  -0.00020400
 Step Taken.  Stepsize is  0.065774

                             Maximum     Tolerance    Cnvgd?
         Gradient           0.002305      0.000300      NO
         Displacement       0.051178      0.001200      NO
         Energy change     *********      0.000001      NO


 New Cartesian Coordinates Obtained by Inverse Iteration

 Displacement from previous Coordinates is:  0.105225
 ----------------------------------------------------------------
             Standard Nuclear Orientation (Angstroms)
    I     Atom           X                Y                Z
 ----------------------------------------------------------------
    1      S       0.0045112890     0.0748513530     0.0028932539
    2      C       1.7389429147     0.0221665807     0.0034108853
    3      H       2.2778756432     0.0244501873     0.9407802202
    4      C       2.2426102002    -0.0128552848    -1.2697777481
    5      H       3.3032893025    -0.0464204496    -1.4907547533
    6      C       1.2249840744    -0.0044060433    -2.2671459156
    7      H       1.4291104552    -0.0221185471    -3.3319081156
    8      C      -0.0543887852     0.0407569644    -1.7510314421
    9      C      -1.3248313785     0.0613253857    -2.4553557474
   10      C      -2.6013092731    -0.0801094637    -1.9496141882
   11      H      -2.8031361233    -0.2234165505    -0.8939110537
   12      C      -3.6199188393    -0.0072850893    -2.9433770403
   13      H      -4.6787700712    -0.0973618177    -2.7295082889
   14      C      -3.1195632759     0.1853937352    -4.2036919949
   15      H      -3.6600378675     0.2766176431    -5.1357875181
   16      S      -1.3875248151     0.2900435666    -4.1946790631
 ----------------------------------------------------------------
 Nuclear Repulsion Energy =   629.0904960779 hartrees
 There are       43 alpha and       43 beta electrons
 Applying Cartesian multipole field
    Component          Value
    ---------          -----
     (2,0,0)        1.00000E-11
     (0,2,0)        2.00000E-11
     (0,0,2)       -3.00000E-12
 Nucleus-field energy     =     0.0000000057 hartrees
 Requested basis set is 6-31++G(d,p)
 There are 76 shells and 234 basis functions
 A cutoff of  1.0D-12 yielded   2529 shell pairs
 There are     24905 function pairs

 Q-Chem warning in module /project/projectdirs/jcesr/qchem/qc44/cnl_qc441/compile/cori/qc_src/libqints/qchem/aobasis.C, line 68:

 Using reconstructed effective core potential

 Smallest overlap matrix eigenvalue = 8.62E-07
 Linear dependence detected in AO basis
 Number of orthogonalized atomic orbitals = 233
 Maximum deviation from orthogonality = 7.752E-11
 Guess MOs from SCF MO coefficient file
 Reading MOs from coefficient file
 Reading MOs from coefficient file
 A restricted hybrid HF-DFT SCF calculation will be
 performed using Pulay DIIS extrapolation
 Exchange:     0.2000 Hartree-Fock + 0.0800 Slater + 0.7200 B88
 Correlation:  0.1900 VWN1RPA + 0.8100 LYP
 Using SG-1 standard quadrature grid
 SCF converges when DIIS error is below 1.0E-08
 Geometry optimization detected.  Setting ReadMinima to 0
 Setting SaveMinima to 0
 ---------------------------------------
  Cycle       Energy         DIIS Error
 ---------------------------------------
    1   -1104.8398717684      4.08E-04
    2   -1104.8406470265      2.54E-05
    3   -1104.8406418444      4.26E-05
    4   -1104.8406553814      9.70E-06
    5   -1104.8406559788      3.92E-06
    6   -1104.8406560741      1.36E-06
    7   -1104.8406560856      4.51E-07
    8   -1104.8406560866      1.19E-07
    9   -1104.8406560854      3.52E-08
   10   -1104.8406560868      1.29E-08
   11   -1104.8406560874      4.91E-09 Convergence criterion met
 ---------------------------------------
 SCF time:  CPU 5.96 s  wall 5.64 s
 SCF   energy in the final basis set = -1104.8406560874
 Total energy in the final basis set = -1104.8406560874
 
 --------------------------------------------------------------
 
                    Orbital Energies (a.u.)
 --------------------------------------------------------------
 
 Alpha MOs
 -- Occupied --
-88.920 -88.920 -10.240 -10.239 -10.225 -10.225 -10.205 -10.205
-10.204 -10.204  -7.979  -7.979  -5.944  -5.944  -5.940  -5.940
 -5.936  -5.936  -0.901  -0.878  -0.772  -0.750  -0.737  -0.706
 -0.604  -0.581  -0.551  -0.535  -0.527  -0.478  -0.420  -0.419
 -0.408  -0.405  -0.402  -0.379  -0.374  -0.358  -0.343  -0.284
 -0.265  -0.258  -0.212
 -- Virtual --
 -0.059  -0.006  -0.004  -0.001   0.008   0.009   0.017   0.022
  0.032   0.037   0.037   0.044   0.051   0.056   0.062   0.065
  0.075   0.083   0.085   0.095   0.097   0.102   0.106   0.111
  0.117   0.124   0.125   0.131   0.132   0.142   0.144   0.144
  0.148   0.153   0.163   0.165   0.169   0.171   0.184   0.190
  0.192   0.201   0.208   0.209   0.219   0.220   0.225   0.226
  0.251   0.253   0.256   0.269   0.282   0.284   0.286   0.311
  0.321   0.322   0.348   0.349   0.353   0.373   0.394   0.406
  0.454   0.468   0.508   0.513   0.545   0.555   0.569   0.592
  0.607   0.621   0.648   0.650   0.656   0.657   0.665   0.690
  0.702   0.716   0.725   0.728   0.742   0.744   0.777   0.786
  0.817   0.819   0.823   0.847   0.866   0.920   0.938   0.948
  0.952   0.953   0.960   0.969   0.983   0.993   0.997   1.018
  1.028   1.043   1.070   1.104   1.110   1.119   1.147   1.166
  1.173   1.184   1.217   1.259   1.267   1.323   1.341   1.342
  1.350   1.354   1.372   1.468   1.480   1.493   1.542   1.603
  1.673   1.691   1.726   1.800   1.863   1.878   1.891   1.914
  1.924   1.936   1.953   2.008   2.053   2.068   2.076   2.121
  2.172   2.180   2.180   2.217   2.244   2.255   2.339   2.361
  2.365   2.418   2.451   2.457   2.468   2.491   2.509   2.526
  2.537   2.560   2.586   2.611   2.672   2.691   2.718   2.753
  2.863   2.874   2.933   2.938   3.145   3.208   3.268   3.276
  3.399   3.428   3.721   3.743   3.973   3.984   4.235   4.297
  4.309   4.319   4.409   4.535   4.660   4.716
 --------------------------------------------------------------
 
          Ground-State Mulliken Net Atomic Charges

     Atom                 Charge (a.u.)
  ----------------------------------------
      1 S                    -0.135285
      2 C                     0.016061
      3 H                     0.199584
      4 C                    -0.356932
      5 H                     0.121664
      6 C                     0.404340
      7 H                     0.116662
      8 C                    -0.366181
      9 C                    -0.364643
     10 C                     0.401484
     11 H                     0.116758
     12 C                    -0.355318
     13 H                     0.121724
     14 C                     0.015337
     15 H                     0.199550
     16 S                    -0.134806
  ----------------------------------------
  Sum of atomic charges =     0.000000

 -----------------------------------------------------------------
                    Cartesian Multipole Moments
 -----------------------------------------------------------------
    Charge (ESU x 10^10)
                 0.0000
    Dipole Moment (Debye)
         X       0.0005      Y      -0.0737      Z      -0.0045
       Tot       0.0739
    Quadrupole Moments (Debye-Ang)
        XX     -62.2379     XY       0.1331     YY     -78.8527
        XZ       3.0212     YZ      -0.4686     ZZ     -66.9871
    Octopole Moments (Debye-Ang^2)
       XXX     128.9112    XXY      -7.1126    XYY      54.1451
       YYY     -18.1653    XXZ     126.4640    XYZ       2.1981
       YYZ     165.5213    XZZ      33.7125    YZZ      -1.3670
       ZZZ     422.6754
    Hexadecapole Moments (Debye-Ang^3)
      XXXX   -1583.1470   XXXY      26.7502   XXYY    -355.6728
      XYYY      24.1715   YYYY    -113.0074   XXXZ    -604.3143
      XXYZ      15.3823   XYYZ    -258.2072   YYYZ      65.2419
      XXZZ    -682.7297   XYZZ      -8.6322   YYZZ    -583.0933
      XZZZ    -561.5060   YZZZ      33.1528   ZZZZ   -2880.3760
 -----------------------------------------------------------------
 Calculating analytic gradient of the SCF energy
 Gradient of SCF Energy
            1           2           3           4           5           6
    1   0.0000225  -0.0000606   0.0000651   0.0000568   0.0000156   0.0000937
    2  -0.0000391   0.0000285   0.0001392  -0.0000604   0.0000314  -0.0009790
    3  -0.0001923   0.0000137  -0.0000466   0.0000952   0.0000374   0.0000022
            7           8           9          10          11          12
    1  -0.0000877   0.0001871  -0.0001808  -0.0000132   0.0000354  -0.0000718
    2   0.0007514   0.0001295   0.0000855  -0.0010113   0.0007627  -0.0000306
    3  -0.0000019   0.0002049  -0.0001361  -0.0001354   0.0000850  -0.0000866
           13          14          15          16
    1  -0.0000167   0.0000964  -0.0000744  -0.0000673
    2   0.0000456   0.0000525   0.0001438  -0.0000498
    3  -0.0000287  -0.0000069   0.0000550   0.0001410
 Max gradient component =       1.011E-03
 RMS gradient           =       2.699E-04
 Gradient time:  CPU 2.14 s  wall 2.08 s
 Geometry Optimization Parameters
   NAtoms,    NIC,     NZ,  NCons,   NDum,   NFix, NCnnct, MaxDiis
       16     111       0       1       0       0       0       0

 Cartesian Hessian Update
 Hessian Updated using BFGS Update


** CONSTRAINED OPTIMIZATION IN DELOCALIZED INTERNAL COORDINATES **
   Searching for a Minimum

   Optimization Cycle:   2

                       Coordinates (Angstroms)
     ATOM                X               Y               Z
      1  S         0.0045112890    0.0748513530    0.0028932539
      2  C         1.7389429147    0.0221665807    0.0034108853
      3  H         2.2778756432    0.0244501873    0.9407802202
      4  C         2.2426102002   -0.0128552848   -1.2697777481
      5  H         3.3032893025   -0.0464204496   -1.4907547533
      6  C         1.2249840744   -0.0044060433   -2.2671459156
      7  H         1.4291104552   -0.0221185471   -3.3319081156
      8  C        -0.0543887852    0.0407569644   -1.7510314421
      9  C        -1.3248313785    0.0613253857   -2.4553557474
     10  C        -2.6013092731   -0.0801094637   -1.9496141882
     11  H        -2.8031361233   -0.2234165505   -0.8939110537
     12  C        -3.6199188393   -0.0072850893   -2.9433770403
     13  H        -4.6787700712   -0.0973618177   -2.7295082889
     14  C        -3.1195632759    0.1853937352   -4.2036919949
     15  H        -3.6600378675    0.2766176431   -5.1357875181
     16  S        -1.3875248151    0.2900435666   -4.1946790631
   Point Group: c1    Number of degrees of freedom:    42


   Energy is  -1104.840656087

              Constraints and their Current Values
                                        Value     Constraint
   Dihedral:        6   8   9  10      170.000      170.000
 Hessian Updated using BFGS Update

 37 Hessian modes will be used to form the next step
  Hessian Eigenvalues:
     0.028169    0.045000    0.045000    0.045001    0.045003    0.045004
     0.045012    0.054053    0.159021    0.159946    0.159992    0.159994
     0.160000    0.160246    0.221282    0.221670    0.237832    0.240346
     0.249946    0.250002    0.294035    0.294458    0.312485    0.312574
     0.354745    0.354847    0.355125    0.355131    0.358232    0.358340
     0.378486    0.404752    0.404897    0.463576    0.466333    0.497932
     0.498244

 Minimum Search - Taking Simple RFO Step
 Searching for Lamda that Minimizes Along All modes
 Value Taken    Lamda =  -0.00003914
 Step Taken.  Stepsize is  0.036484

                             Maximum     Tolerance    Cnvgd?
         Gradient           0.000690      0.000300      NO
         Displacement       0.026193      0.001200      NO
         Energy change     -0.000126      0.000001      NO


 New Cartesian Coordinates Obtained by Inverse Iteration

 Displacement from previous Coordinates is:  0.038147
 ----------------------------------------------------------------
             Standard Nuclear Orientation (Angstroms)
    I     Atom           X                Y                Z
 ----------------------------------------------------------------
    1      S       0.0046198390     0.0812868082     0.0034405720
    2      C       1.7388697141     0.0216352846     0.0032014859
    3      H       2.2774107562     0.0173696695     0.9407938463
    4      C       2.2420607523    -0.0115973438    -1.2702638145
    5      H       3.3023753760    -0.0512469103    -1.4918955587
    6      C       1.2243875211     0.0003939640    -2.2672856781
    7      H       1.4291942278    -0.0274380134    -3.3317614194
    8      C      -0.0548236092     0.0456247690    -1.7508329941
    9      C      -1.3247464569     0.0664926639    -2.4548399575
   10      C      -2.6011064619    -0.0749045683    -1.9488279136
   11      H      -2.8030744815    -0.2285253980    -0.8945542976
   12      C      -3.6194794322    -0.0060649518    -2.9428683719
   13      H      -4.6778045494    -0.1025634535    -2.7292812153
   14      C      -3.1193438940     0.1848768555    -4.2035708733
   15      H      -3.6590443989     0.2694285802    -5.1367233258
   16      S      -1.3876514526     0.2968642141    -4.1941889944
 ----------------------------------------------------------------
 Nuclear Repulsion Energy =   629.0981523968 hartrees
 There are       43 alpha and       43 beta electrons
 Applying Cartesian multipole field
    Component          Value
    ---------          -----
     (2,0,0)        1.00000E-11
     (0,2,0)        2.00000E-11
     (0,0,2)       -3.00000E-12
 Nucleus-field energy     =     0.0000000057 hartrees
 Requested basis set is 6-31++G(d,p)
 There are 76 shells and 234 basis functions
 A cutoff of  1.0D-12 yielded   2529 shell pairs
 There are     24905 function pairs

 Q-Chem warning in module /project/projectdirs/jcesr/qchem/qc44/cnl_qc441/compile/cori/qc_src/libqints/qchem/aobasis.C, line 68:

 Using reconstructed effective core potential

 Smallest overlap matrix eigenvalue = 8.59E-07
 Linear dependence detected in AO basis
 Number of orthogonalized atomic orbitals = 233
 Maximum deviation from orthogonality = 4.056E-11
 Guess MOs from SCF MO coefficient file
 Reading MOs from coefficient file
 Reading MOs from coefficient file
 A restricted hybrid HF-DFT SCF calculation will be
 performed using Pulay DIIS extrapolation
 Exchange:     0.2000 Hartree-Fock + 0.0800 Slater + 0.7200 B88
 Correlation:  0.1900 VWN1RPA + 0.8100 LYP
 Using SG-1 standard quadrature grid
 SCF converges when DIIS error is below 1.0E-08
 Geometry optimization detected.  Setting ReadMinima to 0
 Setting SaveMinima to 0
 ---------------------------------------
  Cycle       Energy         DIIS Error
 ---------------------------------------
    1   -1104.8407037697      1.19E-04
    2   -1104.8406800128      7.07E-06
    3   -1104.8406805293      6.59E-06
    4   -1104.8406807912      2.69E-06
    5   -1104.8406808398      8.35E-07
    6   -1104.8406808446      4.33E-07
    7   -1104.8406808461      8.82E-08
    8   -1104.8406808474      5.24E-08
    9   -1104.8406808466      1.04E-08
   10   -1104.8406808465      4.93E-09 Convergence criterion met
 ---------------------------------------
 SCF time:  CPU 5.34 s  wall 6.05 s
 SCF   energy in the final basis set = -1104.8406808465
 Total energy in the final basis set = -1104.8406808465
 
 --------------------------------------------------------------
 
                    Orbital Energies (a.u.)
 --------------------------------------------------------------
 
 Alpha MOs
 -- Occupied --
-88.920 -88.920 -10.240 -10.239 -10.225 -10.225 -10.205 -10.205
-10.204 -10.204  -7.979  -7.979  -5.944  -5.944  -5.940  -5.940
 -5.936  -5.936  -0.901  -0.878  -0.772  -0.750  -0.737  -0.706
 -0.605  -0.581  -0.551  -0.535  -0.527  -0.478  -0.420  -0.419
 -0.408  -0.405  -0.402  -0.379  -0.374  -0.358  -0.343  -0.284
 -0.265  -0.258  -0.212
 -- Virtual --
 -0.059  -0.006  -0.004  -0.001   0.008   0.009   0.017   0.022
  0.032   0.037   0.037   0.044   0.051   0.056   0.062   0.065
  0.075   0.083   0.085   0.095   0.097   0.102   0.106   0.111
  0.117   0.124   0.125   0.131   0.132   0.142   0.144   0.144
  0.147   0.153   0.162   0.165   0.169   0.171   0.184   0.190
  0.192   0.201   0.208   0.209   0.219   0.220   0.225   0.226
  0.251   0.252   0.256   0.269   0.282   0.284   0.286   0.311
  0.321   0.322   0.348   0.350   0.353   0.373   0.394   0.406
  0.454   0.468   0.508   0.513   0.545   0.555   0.569   0.591
  0.607   0.621   0.648   0.650   0.657   0.657   0.665   0.689
  0.703   0.716   0.725   0.729   0.742   0.745   0.777   0.786
  0.817   0.820   0.823   0.847   0.866   0.920   0.938   0.948
  0.951   0.954   0.960   0.969   0.983   0.993   0.997   1.018
  1.028   1.042   1.070   1.104   1.110   1.119   1.147   1.166
  1.173   1.184   1.218   1.259   1.265   1.322   1.340   1.343
  1.351   1.354   1.372   1.470   1.477   1.496   1.542   1.603
  1.673   1.691   1.726   1.801   1.863   1.878   1.891   1.914
  1.924   1.936   1.953   2.008   2.052   2.068   2.077   2.121
  2.172   2.180   2.180   2.217   2.245   2.254   2.339   2.361
  2.365   2.418   2.451   2.458   2.468   2.491   2.508   2.526
  2.538   2.560   2.586   2.611   2.672   2.691   2.718   2.753
  2.863   2.874   2.933   2.938   3.145   3.208   3.268   3.276
  3.399   3.428   3.721   3.743   3.973   3.984   4.235   4.296
  4.309   4.319   4.409   4.535   4.660   4.716
 --------------------------------------------------------------
 
          Ground-State Mulliken Net Atomic Charges

     Atom                 Charge (a.u.)
  ----------------------------------------
      1 S                    -0.136504
      2 C                     0.017643
      3 H                     0.199667
      4 C                    -0.361581
      5 H                     0.121534
      6 C                     0.415003
      7 H                     0.117192
      8 C                    -0.373575
      9 C                    -0.370387
     10 C                     0.411714
     11 H                     0.117282
     12 C                    -0.359824
     13 H                     0.121622
     14 C                     0.016620
     15 H                     0.199599
     16 S                    -0.136004
  ----------------------------------------
  Sum of atomic charges =     0.000000

 -----------------------------------------------------------------
                    Cartesian Multipole Moments
 -----------------------------------------------------------------
    Charge (ESU x 10^10)
                 0.0000
    Dipole Moment (Debye)
         X       0.0012      Y      -0.1062      Z      -0.0066
       Tot       0.1064
    Quadrupole Moments (Debye-Ang)
        XX     -62.2553     XY       0.1576     YY     -78.8487
        XZ       3.0179     YZ      -0.3999     ZZ     -66.9741
    Octopole Moments (Debye-Ang^2)
       XXX     128.9767    XXY      -7.7682    XYY      54.1489
       YYY     -19.0167    XXZ     126.4682    XYZ       2.0270
       YYZ     165.5052    XZZ      33.7140    YZZ      -1.9386
       ZZZ     422.5341
    Hexadecapole Moments (Debye-Ang^3)
      XXXX   -1583.3769   XXXY      28.1407   XXYY    -355.6638
      XYYY      24.7945   YYYY    -113.4029   XXXZ    -604.4424
      XXYZ      16.9455   XYYZ    -258.2235   YYYZ      67.0562
      XXZZ    -682.6147   XYZZ      -7.7223   YYZZ    -583.1253
      XZZZ    -561.2294   YZZZ      36.1616   ZZZZ   -2879.2292
 -----------------------------------------------------------------
 Calculating analytic gradient of the SCF energy
 Gradient of SCF Energy
            1           2           3           4           5           6
    1   0.0000097  -0.0000365   0.0000018  -0.0000185  -0.0000128   0.0000314
    2   0.0001204  -0.0001520   0.0000006   0.0002105  -0.0000633  -0.0002236
    3   0.0000228  -0.0000252  -0.0000085  -0.0000493   0.0000013   0.0000151
            7           8           9          10          11          12
    1   0.0000422  -0.0000737   0.0000628  -0.0000128  -0.0000491  -0.0000004
    2   0.0003508  -0.0002571  -0.0002904  -0.0002016   0.0003436   0.0002039
    3  -0.0000186   0.0000466  -0.0000806  -0.0000360   0.0000547   0.0000662
           13          14          15          16
    1   0.0000150   0.0000480  -0.0000010  -0.0000062
    2  -0.0000596  -0.0001312   0.0000081   0.0001409
    3  -0.0000056   0.0000097   0.0000103  -0.0000028
 Max gradient component =       3.508E-04
 RMS gradient           =       1.200E-04
 Gradient time:  CPU 2.10 s  wall 2.10 s
 Geometry Optimization Parameters
   NAtoms,    NIC,     NZ,  NCons,   NDum,   NFix, NCnnct, MaxDiis
       16     111       0       1       0       0       0       0

 Cartesian Hessian Update
 Hessian Updated using BFGS Update


** CONSTRAINED OPTIMIZATION IN DELOCALIZED INTERNAL COORDINATES **
   Searching for a Minimum

   Optimization Cycle:   3

                       Coordinates (Angstroms)
     ATOM                X               Y               Z
      1  S         0.0046198390    0.0812868082    0.0034405720
      2  C         1.7388697141    0.0216352846    0.0032014859
      3  H         2.2774107562    0.0173696695    0.9407938463
      4  C         2.2420607523   -0.0115973438   -1.2702638145
      5  H         3.3023753760   -0.0512469103   -1.4918955587
      6  C         1.2243875211    0.0003939640   -2.2672856781
      7  H         1.4291942278   -0.0274380134   -3.3317614194
      8  C        -0.0548236092    0.0456247690   -1.7508329941
      9  C        -1.3247464569    0.0664926639   -2.4548399575
     10  C        -2.6011064619   -0.0749045683   -1.9488279136
     11  H        -2.8030744815   -0.2285253980   -0.8945542976
     12  C        -3.6194794322   -0.0060649518   -2.9428683719
     13  H        -4.6778045494   -0.1025634535   -2.7292812153
     14  C        -3.1193438940    0.1848768555   -4.2035708733
     15  H        -3.6590443989    0.2694285802   -5.1367233258
     16  S        -1.3876514526    0.2968642141   -4.1941889944
   Point Group: c1    Number of degrees of freedom:    42


   Energy is  -1104.840680846

              Constraints and their Current Values
                                        Value     Constraint
   Dihedral:        6   8   9  10      170.000      170.000
 Hessian Updated using BFGS Update

 36 Hessian modes will be used to form the next step
  Hessian Eigenvalues:
     0.018946    0.045000    0.045003    0.045004    0.045012    0.045978
     0.056358    0.159940    0.159964    0.159992    0.160000    0.160130
     0.160588    0.221281    0.221630    0.237840    0.241320    0.250001
     0.250140    0.294255    0.294656    0.312462    0.312576    0.354763
     0.354899    0.355128    0.355150    0.358236    0.358339    0.380601
     0.404883    0.406315    0.463577    0.466161    0.497933    0.498420

 Minimum Search - Taking Simple RFO Step
 Searching for Lamda that Minimizes Along All modes
 Value Taken    Lamda =  -0.00000960
 Step Taken.  Stepsize is  0.020650

                             Maximum     Tolerance    Cnvgd?
         Gradient           0.000299      0.000300     YES
         Displacement       0.011871      0.001200      NO
         Energy change     -0.000025      0.000001      NO


 New Cartesian Coordinates Obtained by Inverse Iteration

 Displacement from previous Coordinates is:  0.023321
 ----------------------------------------------------------------
             Standard Nuclear Orientation (Angstroms)
    I     Atom           X                Y                Z
 ----------------------------------------------------------------
    1      S       0.0048835495     0.0834269526     0.0034510760
    2      C       1.7392226689     0.0243449038     0.0033376376
    3      H       2.2776090137     0.0200519175     0.9410264064
    4      C       2.2422495728    -0.0109033587    -1.2701172491
    5      H       3.3025004583    -0.0521202021    -1.4918503133
    6      C       1.2244381548     0.0003922496    -2.2671316356
    7      H       1.4291502894    -0.0348549879    -3.3313842737
    8      C      -0.0548189322     0.0455927796    -1.7508515569
    9      C      -1.3247488016     0.0665749841    -2.4548389851
   10      C      -2.6011565650    -0.0748326325    -1.9489713924
   11      H      -2.8027241278    -0.2358837723    -0.8957515023
   12      C      -3.6196843629    -0.0053531162    -2.9429259514
   13      H      -4.6779010390    -0.1034353109    -2.7294343185
   14      C      -3.1198112258     0.1875410885    -4.2034073637
   15      H      -3.6593686870     0.2721058209    -5.1366461873
   16      S      -1.3879965161     0.2989848540    -4.1939629005
 ----------------------------------------------------------------
 Nuclear Repulsion Energy =   629.0744572896 hartrees
 There are       43 alpha and       43 beta electrons
 Applying Cartesian multipole field
    Component          Value
    ---------          -----
     (2,0,0)        1.00000E-11
     (0,2,0)        2.00000E-11
     (0,0,2)       -3.00000E-12
 Nucleus-field energy     =     0.0000000057 hartrees
 Requested basis set is 6-31++G(d,p)
 There are 76 shells and 234 basis functions
 A cutoff of  1.0D-12 yielded   2529 shell pairs
 There are     24905 function pairs

 Q-Chem warning in module /project/projectdirs/jcesr/qchem/qc44/cnl_qc441/compile/cori/qc_src/libqints/qchem/aobasis.C, line 68:

 Using reconstructed effective core potential

 Smallest overlap matrix eigenvalue = 8.61E-07
 Linear dependence detected in AO basis
 Number of orthogonalized atomic orbitals = 233
 Maximum deviation from orthogonality = 3.528E-11
 Guess MOs from SCF MO coefficient file
 Reading MOs from coefficient file
 Reading MOs from coefficient file
 A restricted hybrid HF-DFT SCF calculation will be
 performed using Pulay DIIS extrapolation
 Exchange:     0.2000 Hartree-Fock + 0.0800 Slater + 0.7200 B88
 Correlation:  0.1900 VWN1RPA + 0.8100 LYP
 Using SG-1 standard quadrature grid
 SCF converges when DIIS error is below 1.0E-08
 Geometry optimization detected.  Setting ReadMinima to 0
 Setting SaveMinima to 0
 ---------------------------------------
  Cycle       Energy         DIIS Error
 ---------------------------------------
    1   -1104.8406771623      5.22E-05
    2   -1104.8406865908      4.19E-06
    3   -1104.8406864555      6.99E-06
    4   -1104.8406868029      1.46E-06
    5   -1104.8406868179      5.52E-07
    6   -1104.8406868199      1.98E-07
    7   -1104.8406868220      5.13E-08
    8   -1104.8406868213      1.92E-08
    9   -1104.8406868220      5.23E-09 Convergence criterion met
 ---------------------------------------
 SCF time:  CPU 4.90 s  wall 4.66 s
 SCF   energy in the final basis set = -1104.8406868220
 Total energy in the final basis set = -1104.8406868220
 
 --------------------------------------------------------------
 
                    Orbital Energies (a.u.)
 --------------------------------------------------------------
 
 Alpha MOs
 -- Occupied --
-88.920 -88.920 -10.240 -10.239 -10.225 -10.225 -10.205 -10.205
-10.204 -10.204  -7.979  -7.979  -5.944  -5.943  -5.940  -5.940
 -5.936  -5.936  -0.901  -0.878  -0.772  -0.750  -0.737  -0.706
 -0.605  -0.581  -0.551  -0.535  -0.527  -0.478  -0.420  -0.419
 -0.408  -0.405  -0.402  -0.379  -0.374  -0.358  -0.343  -0.284
 -0.265  -0.258  -0.212
 -- Virtual --
 -0.059  -0.006  -0.004  -0.001   0.008   0.009   0.017   0.022
  0.032   0.037   0.037   0.044   0.051   0.056   0.062   0.065
  0.075   0.083   0.085   0.095   0.097   0.102   0.106   0.111
  0.117   0.125   0.125   0.131   0.132   0.142   0.144   0.144
  0.147   0.153   0.162   0.165   0.169   0.171   0.184   0.190
  0.192   0.201   0.208   0.209   0.219   0.220   0.225   0.226
  0.251   0.252   0.256   0.269   0.282   0.284   0.286   0.311
  0.321   0.322   0.348   0.350   0.353   0.373   0.394   0.406
  0.454   0.469   0.508   0.513   0.545   0.555   0.569   0.591
  0.607   0.621   0.647   0.650   0.657   0.657   0.665   0.689
  0.703   0.716   0.725   0.728   0.742   0.745   0.777   0.786
  0.817   0.820   0.823   0.847   0.866   0.921   0.938   0.948
  0.951   0.955   0.960   0.969   0.983   0.993   0.997   1.018
  1.028   1.042   1.071   1.104   1.110   1.119   1.147   1.165
  1.173   1.184   1.218   1.259   1.265   1.321   1.340   1.344
  1.351   1.354   1.371   1.471   1.475   1.498   1.542   1.602
  1.673   1.691   1.726   1.801   1.863   1.878   1.891   1.914
  1.924   1.936   1.953   2.008   2.052   2.068   2.077   2.121
  2.172   2.180   2.181   2.217   2.246   2.254   2.339   2.361
  2.365   2.418   2.451   2.459   2.468   2.491   2.508   2.527
  2.538   2.560   2.586   2.611   2.672   2.691   2.718   2.753
  2.863   2.874   2.933   2.938   3.145   3.208   3.268   3.276
  3.399   3.428   3.721   3.743   3.973   3.984   4.235   4.296
  4.309   4.319   4.409   4.535   4.660   4.716
 --------------------------------------------------------------
 
          Ground-State Mulliken Net Atomic Charges

     Atom                 Charge (a.u.)
  ----------------------------------------
      1 S                    -0.137616
      2 C                     0.019272
      3 H                     0.199804
      4 C                    -0.364082
      5 H                     0.121481
      6 C                     0.421290
      7 H                     0.117507
      8 C                    -0.378383
      9 C                    -0.374626
     10 C                     0.417551
     11 H                     0.117592
     12 C                    -0.362137
     13 H                     0.121580
     14 C                     0.018081
     15 H                     0.199726
     16 S                    -0.137040
  ----------------------------------------
  Sum of atomic charges =     0.000000

 -----------------------------------------------------------------
                    Cartesian Multipole Moments
 -----------------------------------------------------------------
    Charge (ESU x 10^10)
                 0.0000
    Dipole Moment (Debye)
         X       0.0014      Y      -0.1195      Z      -0.0074
       Tot       0.1198
    Quadrupole Moments (Debye-Ang)
        XX     -62.2565     XY       0.1666     YY     -78.8446
        XZ       3.0255     YZ      -0.3712     ZZ     -66.9747
    Octopole Moments (Debye-Ang^2)
       XXX     128.9883    XXY      -7.9524    XYY      54.1391
       YYY     -19.3009    XXZ     126.4469    XYZ       2.0629
       YYZ     165.4931    XZZ      33.6913    YZZ      -2.0946
       ZZZ     422.5322
    Hexadecapole Moments (Debye-Ang^3)
      XXXX   -1583.7324   XXXY      28.5165   XXYY    -355.7095
      XYYY      24.9999   YYYY    -113.5962   XXXZ    -604.4652
      XXYZ      17.2551   XYYZ    -258.2381   YYYZ      67.6421
      XXZZ    -682.5489   XYZZ      -7.8489   YYZZ    -583.0939
      XZZZ    -561.2257   YZZZ      36.8873   ZZZZ   -2879.1058
 -----------------------------------------------------------------
 Calculating analytic gradient of the SCF energy
 Gradient of SCF Energy
            1           2           3           4           5           6
    1   0.0000386   0.0000455  -0.0000060   0.0000033  -0.0000027  -0.0000181
    2   0.0000087  -0.0000614  -0.0000291   0.0001702  -0.0000939   0.0002355
    3   0.0000085  -0.0000012   0.0000033  -0.0000024   0.0000006   0.0000132
            7           8           9          10          11          12
    1   0.0000394  -0.0001293   0.0001303   0.0000052  -0.0000314  -0.0000086
    2   0.0000971  -0.0003488  -0.0003594   0.0002581   0.0000861   0.0001708
    3   0.0000074  -0.0000131  -0.0000375   0.0000217   0.0000017   0.0000114
           13          14          15          16
    1   0.0000058  -0.0000531   0.0000079  -0.0000269
    2  -0.0000911  -0.0000452  -0.0000189   0.0000213
    3  -0.0000119  -0.0000063  -0.0000037   0.0000085
 Max gradient component =       3.594E-04
 RMS gradient           =       1.040E-04
 Gradient time:  CPU 2.07 s  wall 2.09 s
 Geometry Optimization Parameters
   NAtoms,    NIC,     NZ,  NCons,   NDum,   NFix, NCnnct, MaxDiis
       16     111       0       1       0       0       0       0

 Cartesian Hessian Update
 Hessian Updated using BFGS Update


** CONSTRAINED OPTIMIZATION IN DELOCALIZED INTERNAL COORDINATES **
   Searching for a Minimum

   Optimization Cycle:   4

                       Coordinates (Angstroms)
     ATOM                X               Y               Z
      1  S         0.0048835495    0.0834269526    0.0034510760
      2  C         1.7392226689    0.0243449038    0.0033376376
      3  H         2.2776090137    0.0200519175    0.9410264064
      4  C         2.2422495728   -0.0109033587   -1.2701172491
      5  H         3.3025004583   -0.0521202021   -1.4918503133
      6  C         1.2244381548    0.0003922496   -2.2671316356
      7  H         1.4291502894   -0.0348549879   -3.3313842737
      8  C        -0.0548189322    0.0455927796   -1.7508515569
      9  C        -1.3247488016    0.0665749841   -2.4548389851
     10  C        -2.6011565650   -0.0748326325   -1.9489713924
     11  H        -2.8027241278   -0.2358837723   -0.8957515023
     12  C        -3.6196843629   -0.0053531162   -2.9429259514
     13  H        -4.6779010390   -0.1034353109   -2.7294343185
     14  C        -3.1198112258    0.1875410885   -4.2034073637
     15  H        -3.6593686870    0.2721058209   -5.1366461873
     16  S        -1.3879965161    0.2989848540   -4.1939629005
   Point Group: c1    Number of degrees of freedom:    42


   Energy is  -1104.840686822

              Constraints and their Current Values
                                        Value     Constraint
   Dihedral:        6   8   9  10      170.000      170.000
 Hessian Updated using BFGS Update

 39 Hessian modes will be used to form the next step
  Hessian Eigenvalues:
     0.015090    0.045000    0.045000    0.045002    0.045002    0.045004
     0.045011    0.045050    0.046704    0.051159    0.159947    0.159991
     0.160000    0.160015    0.160069    0.160198    0.221284    0.221742
     0.237838    0.246636    0.250002    0.250065    0.294296    0.294715
     0.312473    0.312586    0.354773    0.354941    0.355129    0.355167
     0.358234    0.358341    0.380476    0.404880    0.407545    0.463582
     0.466059    0.497932    0.498606

 Minimum Search - Taking Simple RFO Step
 Searching for Lamda that Minimizes Along All modes
 Value Taken    Lamda =  -0.00000234
 Step Taken.  Stepsize is  0.010117

                             Maximum     Tolerance    Cnvgd?
         Gradient           0.000231      0.000300     YES
         Displacement       0.006448      0.001200      NO
         Energy change     -0.000006      0.000001      NO


 New Cartesian Coordinates Obtained by Inverse Iteration

 Displacement from previous Coordinates is:  0.021006
 ----------------------------------------------------------------
             Standard Nuclear Orientation (Angstroms)
    I     Atom           X                Y                Z
 ----------------------------------------------------------------
    1      S       0.0045709455     0.0840965778     0.0032711871
    2      C       1.7389660170     0.0266810623     0.0032317404
    3      H       2.2773208261     0.0244695834     0.9409439662
    4      C       2.2421608991    -0.0106539180    -1.2701237265
    5      H       3.3024733879    -0.0509574217    -1.4917367230
    6      C       1.2244369230    -0.0013302417    -2.2672273527
    7      H       1.4288788190    -0.0401512468    -3.3314151957
    8      C      -0.0547819601     0.0438328201    -1.7509536043
    9      C      -1.3246913414     0.0648296542    -2.4549874086
   10      C      -2.6010507673    -0.0766210617    -1.9490912917
   11      H      -2.8022651532    -0.2411628992    -0.8963331296
   12      C      -3.6195855409    -0.0051240855    -2.9428576040
   13      H      -4.6778898014    -0.1022120246    -2.7293344872
   14      C      -3.1196600470     0.1898126284    -4.2030316813
   15      H      -3.6592956951     0.2765515921    -5.1360270790
   16      S      -1.3877440612     0.2995711510    -4.1937861202
 ----------------------------------------------------------------
 Nuclear Repulsion Energy =   629.0901884468 hartrees
 There are       43 alpha and       43 beta electrons
 Applying Cartesian multipole field
    Component          Value
    ---------          -----
     (2,0,0)        1.00000E-11
     (0,2,0)        2.00000E-11
     (0,0,2)       -3.00000E-12
 Nucleus-field energy     =     0.0000000057 hartrees
 Requested basis set is 6-31++G(d,p)
 There are 76 shells and 234 basis functions
 A cutoff of  1.0D-12 yielded   2529 shell pairs
 There are     24905 function pairs

 Q-Chem warning in module /project/projectdirs/jcesr/qchem/qc44/cnl_qc441/compile/cori/qc_src/libqints/qchem/aobasis.C, line 68:

 Using reconstructed effective core potential

 Smallest overlap matrix eigenvalue = 8.62E-07
 Linear dependence detected in AO basis
 Number of orthogonalized atomic orbitals = 233
 Maximum deviation from orthogonality = 9.524E-11
 Guess MOs from SCF MO coefficient file
 Reading MOs from coefficient file
 Reading MOs from coefficient file
 A restricted hybrid HF-DFT SCF calculation will be
 performed using Pulay DIIS extrapolation
 Exchange:     0.2000 Hartree-Fock + 0.0800 Slater + 0.7200 B88
 Correlation:  0.1900 VWN1RPA + 0.8100 LYP
 Using SG-1 standard quadrature grid
 SCF converges when DIIS error is below 1.0E-08
 Geometry optimization detected.  Setting ReadMinima to 0
 Setting SaveMinima to 0
 ---------------------------------------
  Cycle       Energy         DIIS Error
 ---------------------------------------
    1   -1104.8410375089      6.20E-05
    2   -1104.8406881297      3.81E-06
    3   -1104.8406880807      5.69E-06
    4   -1104.8406883156      1.75E-06
    5   -1104.8406883361      5.54E-07
    6   -1104.8406883384      2.56E-07
    7   -1104.8406883387      7.06E-08
    8   -1104.8406883398      1.08E-08
    9   -1104.8406883396      6.70E-09 Convergence criterion met
 ---------------------------------------
 SCF time:  CPU 4.93 s  wall 4.74 s
 SCF   energy in the final basis set = -1104.8406883396
 Total energy in the final basis set = -1104.8406883396
 
 --------------------------------------------------------------
 
                    Orbital Energies (a.u.)
 --------------------------------------------------------------
 
 Alpha MOs
 -- Occupied --
-88.920 -88.920 -10.240 -10.239 -10.225 -10.225 -10.205 -10.205
-10.204 -10.204  -7.979  -7.979  -5.944  -5.944  -5.940  -5.940
 -5.936  -5.936  -0.901  -0.878  -0.772  -0.750  -0.737  -0.706
 -0.605  -0.581  -0.551  -0.535  -0.527  -0.478  -0.420  -0.419
 -0.408  -0.405  -0.402  -0.379  -0.374  -0.358  -0.343  -0.284
 -0.265  -0.258  -0.212
 -- Virtual --
 -0.059  -0.006  -0.004  -0.001   0.008   0.009   0.017   0.022
  0.032   0.037   0.037   0.044   0.051   0.056   0.062   0.065
  0.075   0.083   0.085   0.095   0.097   0.102   0.106   0.111
  0.117   0.125   0.125   0.131   0.132   0.142   0.144   0.144
  0.147   0.153   0.162   0.165   0.169   0.171   0.184   0.190
  0.192   0.201   0.208   0.209   0.219   0.220   0.225   0.226
  0.251   0.252   0.256   0.269   0.283   0.284   0.286   0.311
  0.321   0.322   0.348   0.350   0.353   0.373   0.394   0.406
  0.454   0.469   0.508   0.513   0.545   0.555   0.569   0.591
  0.607   0.621   0.647   0.649   0.657   0.657   0.665   0.689
  0.702   0.716   0.725   0.728   0.742   0.745   0.777   0.786
  0.817   0.820   0.823   0.847   0.866   0.921   0.938   0.948
  0.951   0.955   0.960   0.969   0.984   0.993   0.996   1.018
  1.028   1.042   1.071   1.104   1.110   1.119   1.147   1.166
  1.173   1.184   1.218   1.259   1.264   1.321   1.340   1.344
  1.351   1.354   1.371   1.471   1.474   1.499   1.542   1.601
  1.674   1.691   1.726   1.801   1.863   1.878   1.891   1.914
  1.924   1.936   1.953   2.008   2.052   2.068   2.077   2.120
  2.171   2.180   2.181   2.217   2.246   2.254   2.339   2.361
  2.365   2.418   2.451   2.458   2.468   2.491   2.508   2.527
  2.538   2.560   2.586   2.611   2.672   2.691   2.718   2.753
  2.863   2.874   2.933   2.938   3.145   3.208   3.268   3.276
  3.399   3.428   3.721   3.743   3.973   3.984   4.235   4.296
  4.309   4.319   4.409   4.535   4.660   4.716
 --------------------------------------------------------------
 
          Ground-State Mulliken Net Atomic Charges

     Atom                 Charge (a.u.)
  ----------------------------------------
      1 S                    -0.137908
      2 C                     0.019598
      3 H                     0.199815
      4 C                    -0.363925
      5 H                     0.121454
      6 C                     0.422475
      7 H                     0.117611
      8 C                    -0.379806
      9 C                    -0.376002
     10 C                     0.418494
     11 H                     0.117694
     12 C                    -0.361857
     13 H                     0.121553
     14 C                     0.018328
     15 H                     0.199736
     16 S                    -0.137262
  ----------------------------------------
  Sum of atomic charges =     0.000000

 -----------------------------------------------------------------
                    Cartesian Multipole Moments
 -----------------------------------------------------------------
    Charge (ESU x 10^10)
                 0.0000
    Dipole Moment (Debye)
         X       0.0014      Y      -0.1194      Z      -0.0074
       Tot       0.1197
    Quadrupole Moments (Debye-Ang)
        XX     -62.2606     XY       0.1660     YY     -78.8406
        XZ       3.0227     YZ      -0.3714     ZZ     -66.9771
    Octopole Moments (Debye-Ang^2)
       XXX     128.9944    XXY      -7.9095    XYY      54.1283
       YYY     -19.3242    XXZ     126.4603    XYZ       2.1509
       YYZ     165.4819    XZZ      33.7144    YZZ      -2.0486
       ZZZ     422.5587
    Hexadecapole Moments (Debye-Ang^3)
      XXXX   -1583.5768   XXXY      28.4119   XXYY    -355.6548
      XYYY      25.0053   YYYY    -113.6853   XXXZ    -604.4259
      XXYZ      17.0415   XYYZ    -258.1680   YYYZ      67.6720
      XXZZ    -682.6088   XYZZ      -8.2502   YYZZ    -583.0076
      XZZZ    -561.3184   YZZZ      36.5922   ZZZZ   -2879.1204
 -----------------------------------------------------------------
 Calculating analytic gradient of the SCF energy
 Gradient of SCF Energy
            1           2           3           4           5           6
    1  -0.0000150   0.0000120  -0.0000105  -0.0000010  -0.0000019  -0.0000026
    2  -0.0000546  -0.0000035  -0.0000178   0.0000807  -0.0000648   0.0004016
    3   0.0000342  -0.0000167   0.0000024  -0.0000174  -0.0000090  -0.0000033
            7           8           9          10          11          12
    1   0.0000180  -0.0000495   0.0000596  -0.0000189  -0.0000130   0.0000026
    2   0.0000023  -0.0003660  -0.0003612   0.0004094  -0.0000093   0.0000833
    3  -0.0000006   0.0000103  -0.0000575   0.0000518  -0.0000005   0.0000249
           13          14          15          16
    1   0.0000032  -0.0000189   0.0000118   0.0000240
    2  -0.0000611   0.0000069  -0.0000050  -0.0000410
    3   0.0000006   0.0000170  -0.0000019  -0.0000343
 Max gradient component =       4.094E-04
 RMS gradient           =       1.153E-04
 Gradient time:  CPU 2.09 s  wall 2.09 s
 Geometry Optimization Parameters
   NAtoms,    NIC,     NZ,  NCons,   NDum,   NFix, NCnnct, MaxDiis
       16     111       0       1       0       0       0       0

 Cartesian Hessian Update
 Hessian Updated using BFGS Update


** CONSTRAINED OPTIMIZATION IN DELOCALIZED INTERNAL COORDINATES **
   Searching for a Minimum

   Optimization Cycle:   5

                       Coordinates (Angstroms)
     ATOM                X               Y               Z
      1  S         0.0045709455    0.0840965778    0.0032711871
      2  C         1.7389660170    0.0266810623    0.0032317404
      3  H         2.2773208261    0.0244695834    0.9409439662
      4  C         2.2421608991   -0.0106539180   -1.2701237265
      5  H         3.3024733879   -0.0509574217   -1.4917367230
      6  C         1.2244369230   -0.0013302417   -2.2672273527
      7  H         1.4288788190   -0.0401512468   -3.3314151957
      8  C        -0.0547819601    0.0438328201   -1.7509536043
      9  C        -1.3246913414    0.0648296542   -2.4549874086
     10  C        -2.6010507673   -0.0766210617   -1.9490912917
     11  H        -2.8022651532   -0.2411628992   -0.8963331296
     12  C        -3.6195855409   -0.0051240855   -2.9428576040
     13  H        -4.6778898014   -0.1022120246   -2.7293344872
     14  C        -3.1196600470    0.1898126284   -4.2030316813
     15  H        -3.6592956951    0.2765515921   -5.1360270790
     16  S        -1.3877440612    0.2995711510   -4.1937861202
   Point Group: c1    Number of degrees of freedom:    42


   Energy is  -1104.840688340

              Constraints and their Current Values
                                        Value     Constraint
   Dihedral:        6   8   9  10      170.000      170.000
 Hessian Updated using BFGS Update

 38 Hessian modes will be used to form the next step
  Hessian Eigenvalues:
     0.012561    0.033541    0.045000    0.045000    0.045004    0.045008
     0.045012    0.045365    0.056704    0.158679    0.159947    0.159992
     0.160000    0.160017    0.160476    0.221282    0.221935    0.237833
     0.249991    0.250002    0.254960    0.294010    0.294467    0.312556
     0.312723    0.354780    0.354987    0.355129    0.355166    0.358237
     0.358349    0.380790    0.404879    0.409691    0.463582    0.467461
     0.497932    0.498977

 Minimum Search - Taking Simple RFO Step
 Searching for Lamda that Minimizes Along All modes
 Value Taken    Lamda =   0.00000000
 Step Taken.  Stepsize is  0.006669

                             Maximum     Tolerance    Cnvgd?
         Gradient           0.000099      0.000300     YES
         Displacement       0.005106      0.001200      NO
         Energy change     -0.000002      0.000001      NO


 New Cartesian Coordinates Obtained by Inverse Iteration

 Displacement from previous Coordinates is:  0.016448
 ----------------------------------------------------------------
             Standard Nuclear Orientation (Angstroms)
    I     Atom           X                Y                Z
 ----------------------------------------------------------------
    1      S       0.0045693619     0.0846677982     0.0030938779
    2      C       1.7389850148     0.0282940383     0.0032781911
    3      H       2.2773985676     0.0281484790     0.9409659038
    4      C       2.2422385604    -0.0106427898    -1.2700045894
    5      H       3.3026270846    -0.0496176869    -1.4914807198
    6      C       1.2245334297    -0.0031454854    -2.2671993354
    7      H       1.4287963986    -0.0436951460    -3.3313521679
    8      C      -0.0547167104     0.0419947670    -1.7510268331
    9      C      -1.3246703973     0.0629860552    -2.4551489792
   10      C      -2.6010521482    -0.0784820135    -1.9493399570
   11      H      -2.8020752511    -0.2446426205    -0.8968030184
   12      C      -3.6196508895    -0.0051367855    -2.9429593820
   13      H      -4.6780678166    -0.1008374169    -2.7293831591
   14      C      -3.1197471920     0.1913889305    -4.2028952667
   15      H      -3.6595343933     0.2802646522    -5.1356129997
   16      S      -1.3877901689     0.3000873939    -4.1935900752
 ----------------------------------------------------------------
 Nuclear Repulsion Energy =   629.0896906734 hartrees
 There are       43 alpha and       43 beta electrons
 Applying Cartesian multipole field
    Component          Value
    ---------          -----
     (2,0,0)        1.00000E-11
     (0,2,0)        2.00000E-11
     (0,0,2)       -3.00000E-12
 Nucleus-field energy     =     0.0000000057 hartrees
 Requested basis set is 6-31++G(d,p)
 There are 76 shells and 234 basis functions
 A cutoff of  1.0D-12 yielded   2529 shell pairs
 There are     24905 function pairs

 Q-Chem warning in module /project/projectdirs/jcesr/qchem/qc44/cnl_qc441/compile/cori/qc_src/libqints/qchem/aobasis.C, line 68:

 Using reconstructed effective core potential

 Smallest overlap matrix eigenvalue = 8.64E-07
 Linear dependence detected in AO basis
 Number of orthogonalized atomic orbitals = 233
 Maximum deviation from orthogonality = 5.210E-11
 Guess MOs from SCF MO coefficient file
 Reading MOs from coefficient file
 Reading MOs from coefficient file
 A restricted hybrid HF-DFT SCF calculation will be
 performed using Pulay DIIS extrapolation
 Exchange:     0.2000 Hartree-Fock + 0.0800 Slater + 0.7200 B88
 Correlation:  0.1900 VWN1RPA + 0.8100 LYP
 Using SG-1 standard quadrature grid
 SCF converges when DIIS error is below 1.0E-08
 Geometry optimization detected.  Setting ReadMinima to 0
 Setting SaveMinima to 0
 ---------------------------------------
  Cycle       Energy         DIIS Error
 ---------------------------------------
    1   -1104.8409710850      5.42E-05
    2   -1104.8406887481      2.97E-06
    3   -1104.8406887153      4.59E-06
    4   -1104.8406888695      1.34E-06
    5   -1104.8406888822      3.67E-07
    6   -1104.8406888829      1.32E-07
    7   -1104.8406888842      5.23E-08
    8   -1104.8406888844      1.01E-08
    9   -1104.8406888842      5.50E-09 Convergence criterion met
 ---------------------------------------
 SCF time:  CPU 4.92 s  wall 4.64 s
 SCF   energy in the final basis set = -1104.8406888842
 Total energy in the final basis set = -1104.8406888842
 
 --------------------------------------------------------------
 
                    Orbital Energies (a.u.)
 --------------------------------------------------------------
 
 Alpha MOs
 -- Occupied --
-88.920 -88.920 -10.240 -10.239 -10.225 -10.225 -10.205 -10.205
-10.204 -10.204  -7.979  -7.979  -5.944  -5.944  -5.940  -5.940
 -5.936  -5.936  -0.901  -0.878  -0.772  -0.750  -0.737  -0.706
 -0.605  -0.581  -0.551  -0.535  -0.527  -0.478  -0.420  -0.419
 -0.408  -0.405  -0.402  -0.379  -0.374  -0.358  -0.343  -0.284
 -0.265  -0.258  -0.212
 -- Virtual --
 -0.059  -0.006  -0.004  -0.001   0.008   0.009   0.017   0.022
  0.032   0.037   0.037   0.044   0.051   0.056   0.062   0.065
  0.075   0.083   0.085   0.095   0.097   0.102   0.106   0.111
  0.117   0.125   0.125   0.131   0.132   0.142   0.143   0.144
  0.148   0.153   0.163   0.165   0.169   0.171   0.184   0.190
  0.192   0.201   0.208   0.209   0.219   0.220   0.225   0.226
  0.251   0.252   0.256   0.269   0.283   0.284   0.286   0.311
  0.321   0.322   0.348   0.350   0.353   0.373   0.394   0.406
  0.454   0.469   0.508   0.513   0.545   0.555   0.569   0.591
  0.607   0.621   0.647   0.649   0.657   0.657   0.665   0.689
  0.702   0.716   0.725   0.728   0.742   0.745   0.777   0.786
  0.817   0.820   0.823   0.847   0.866   0.921   0.938   0.948
  0.951   0.955   0.960   0.969   0.984   0.993   0.996   1.018
  1.028   1.042   1.071   1.104   1.110   1.119   1.147   1.166
  1.173   1.184   1.218   1.259   1.264   1.321   1.340   1.344
  1.351   1.354   1.371   1.471   1.473   1.499   1.543   1.601
  1.674   1.691   1.726   1.801   1.862   1.878   1.890   1.914
  1.924   1.936   1.953   2.008   2.052   2.068   2.077   2.120
  2.171   2.180   2.181   2.217   2.246   2.254   2.339   2.361
  2.365   2.418   2.451   2.458   2.468   2.491   2.508   2.527
  2.538   2.560   2.586   2.611   2.672   2.691   2.718   2.753
  2.863   2.874   2.933   2.938   3.144   3.208   3.268   3.276
  3.399   3.428   3.721   3.743   3.973   3.984   4.235   4.296
  4.309   4.319   4.409   4.535   4.660   4.716
 --------------------------------------------------------------
 
          Ground-State Mulliken Net Atomic Charges

     Atom                 Charge (a.u.)
  ----------------------------------------
      1 S                    -0.137867
      2 C                     0.019734
      3 H                     0.199814
      4 C                    -0.363230
      5 H                     0.121444
      6 C                     0.421696
      7 H                     0.117653
      8 C                    -0.379885
      9 C                    -0.376124
     10 C                     0.417607
     11 H                     0.117733
     12 C                    -0.361109
     13 H                     0.121542
     14 C                     0.018438
     15 H                     0.199736
     16 S                    -0.137184
  ----------------------------------------
  Sum of atomic charges =     0.000000

 -----------------------------------------------------------------
                    Cartesian Multipole Moments
 -----------------------------------------------------------------
    Charge (ESU x 10^10)
                 0.0000
    Dipole Moment (Debye)
         X       0.0013      Y      -0.1155      Z      -0.0071
       Tot       0.1157
    Quadrupole Moments (Debye-Ang)
        XX     -62.2590     XY       0.1626     YY     -78.8379
        XZ       3.0246     YZ      -0.3795     ZZ     -66.9811
    Octopole Moments (Debye-Ang^2)
       XXX     128.9870    XXY      -7.8268    XYY      54.1203
       YYY     -19.3015    XXZ     126.4571    XYZ       2.2308
       YYZ     165.4728    XZZ      33.7157    YZZ      -1.9673
       ZZZ     422.5938
    Hexadecapole Moments (Debye-Ang^3)
      XXXX   -1583.5654   XXXY      28.2325   XXYY    -355.6543
      XYYY      24.9834   YYYY    -113.7558   XXXZ    -604.3939
      XXYZ      16.7623   XYYZ    -258.1411   YYYZ      67.6090
      XXZZ    -682.6113   XYZZ      -8.6182   YYZZ    -582.9363
      XZZZ    -561.4000   YZZZ      36.1477   ZZZZ   -2879.2531
 -----------------------------------------------------------------
 Calculating analytic gradient of the SCF energy
 Gradient of SCF Energy
            1           2           3           4           5           6
    1   0.0000001   0.0000135   0.0000004   0.0000035  -0.0000007  -0.0000001
    2  -0.0000567   0.0000046  -0.0000029   0.0000078  -0.0000202   0.0004593
    3  -0.0000018   0.0000003   0.0000018   0.0000113  -0.0000028  -0.0000131
            7           8           9          10          11          12
    1  -0.0000055  -0.0000190   0.0000336  -0.0000168   0.0000061  -0.0000011
    2  -0.0000217  -0.0003930  -0.0003813   0.0004574  -0.0000301   0.0000141
    3  -0.0000003   0.0000328  -0.0000756   0.0000641  -0.0000033  -0.0000081
           13          14          15          16
    1   0.0000009  -0.0000160  -0.0000003   0.0000014
    2  -0.0000143   0.0000135   0.0000119  -0.0000486
    3  -0.0000002   0.0000005  -0.0000007  -0.0000047
 Max gradient component =       4.593E-04
 RMS gradient           =       1.243E-04
 Gradient time:  CPU 2.07 s  wall 2.07 s
 Geometry Optimization Parameters
   NAtoms,    NIC,     NZ,  NCons,   NDum,   NFix, NCnnct, MaxDiis
       16     111       0       1       0       0       0       0

 Cartesian Hessian Update
 Hessian Updated using BFGS Update


** CONSTRAINED OPTIMIZATION IN DELOCALIZED INTERNAL COORDINATES **
   Searching for a Minimum

   Optimization Cycle:   6

                       Coordinates (Angstroms)
     ATOM                X               Y               Z
      1  S         0.0045693619    0.0846677982    0.0030938779
      2  C         1.7389850148    0.0282940383    0.0032781911
      3  H         2.2773985676    0.0281484790    0.9409659038
      4  C         2.2422385604   -0.0106427898   -1.2700045894
      5  H         3.3026270846   -0.0496176869   -1.4914807198
      6  C         1.2245334297   -0.0031454854   -2.2671993354
      7  H         1.4287963986   -0.0436951460   -3.3313521679
      8  C        -0.0547167104    0.0419947670   -1.7510268331
      9  C        -1.3246703973    0.0629860552   -2.4551489792
     10  C        -2.6010521482   -0.0784820135   -1.9493399570
     11  H        -2.8020752511   -0.2446426205   -0.8968030184
     12  C        -3.6196508895   -0.0051367855   -2.9429593820
     13  H        -4.6780678166   -0.1008374169   -2.7293831591
     14  C        -3.1197471920    0.1913889305   -4.2028952667
     15  H        -3.6595343933    0.2802646522   -5.1356129997
     16  S        -1.3877901689    0.3000873939   -4.1935900752
   Point Group: c1    Number of degrees of freedom:    42


   Energy is  -1104.840688884

              Constraints and their Current Values
                                        Value     Constraint
   Dihedral:        6   8   9  10      170.000      170.000
 Hessian Updated using BFGS Update

 38 Hessian modes will be used to form the next step
  Hessian Eigenvalues:
     0.011565    0.025515    0.045000    0.045000    0.045004    0.045011
     0.045068    0.046185    0.056599    0.159625    0.159948    0.159992
     0.160000    0.160223    0.160550    0.221282    0.222456    0.237840
     0.249998    0.250136    0.257086    0.294054    0.294537    0.312556
     0.312689    0.354780    0.354998    0.355129    0.355169    0.358257
     0.358394    0.382156    0.404887    0.413924    0.463580    0.467354
     0.497936    0.499671

 Minimum Search - Taking Simple RFO Step
 Searching for Lamda that Minimizes Along All modes
 Value Taken    Lamda =   0.00000000
 Step Taken.  Stepsize is  0.003285

                             Maximum     Tolerance    Cnvgd?
         Gradient           0.000069      0.000300     YES
         Displacement       0.002171      0.001200      NO
         Energy change     -0.000001      0.000001     YES

 Final energy is   -1104.84068888417     


 ******************************
 **  OPTIMIZATION CONVERGED  **
 ******************************

                       Coordinates (Angstroms)
     ATOM                X               Y               Z
      1  S         0.0045693619    0.0846677982    0.0030938779
      2  C         1.7389850148    0.0282940383    0.0032781911
      3  H         2.2773985676    0.0281484790    0.9409659038
      4  C         2.2422385604   -0.0106427898   -1.2700045894
      5  H         3.3026270846   -0.0496176869   -1.4914807198
      6  C         1.2245334297   -0.0031454854   -2.2671993354
      7  H         1.4287963986   -0.0436951460   -3.3313521679
      8  C        -0.0547167104    0.0419947670   -1.7510268331
      9  C        -1.3246703973    0.0629860552   -2.4551489792
     10  C        -2.6010521482   -0.0784820135   -1.9493399570
     11  H        -2.8020752511   -0.2446426205   -0.8968030184
     12  C        -3.6196508895   -0.0051367855   -2.9429593820
     13  H        -4.6780678166   -0.1008374169   -2.7293831591
     14  C        -3.1197471920    0.1913889305   -4.2028952667
     15  H        -3.6595343933    0.2802646522   -5.1356129997
     16  S        -1.3877901689    0.3000873939   -4.1935900752

Z-matrix Print:
$molecule
0 1
S 
C  1 1.735332
H  2 1.081271 1 119.853144
C  2 1.369682 1 111.595678 3 -179.955559 0
H  4 1.083972 2 123.393837 1 -179.963324 0
C  4 1.424843 2 112.831432 1 -0.344457 0
H  6 1.084338 4 123.510463 2 -179.124049 0
C  6 1.380200 4 113.606345 2 0.019107 0
C  8 1.452243 6 129.025240 4 179.962835 0
C  9 1.380220 8 129.014919 6 170.000000 0
H  10 1.084368 9 122.878148 8 -0.843555 0
C  10 1.424852 9 113.594703 8 -179.959031 0
H  12 1.083983 10 123.784925 9 179.633132 0
C  12 1.369659 10 112.827062 9 0.018519 0
H  14 1.081310 12 128.541001 10 179.729529 0
S  14 1.735390 12 111.611870 10 -0.346390 0
$end

 
 --------------------------------------------------------------
 
                    Orbital Energies (a.u.)
 --------------------------------------------------------------
 
 Alpha MOs
 -- Occupied --
-88.920 -88.920 -10.240 -10.239 -10.225 -10.225 -10.205 -10.205
-10.204 -10.204  -7.979  -7.979  -5.944  -5.944  -5.940  -5.940
 -5.936  -5.936  -0.901  -0.878  -0.772  -0.750  -0.737  -0.706
 -0.605  -0.581  -0.551  -0.535  -0.527  -0.478  -0.420  -0.419
 -0.408  -0.405  -0.402  -0.379  -0.374  -0.358  -0.343  -0.284
 -0.265  -0.258  -0.212
 -- Virtual --
 -0.059  -0.006  -0.004  -0.001   0.008   0.009   0.017   0.022
  0.032   0.037   0.037   0.044   0.051   0.056   0.062   0.065
  0.075   0.083   0.085   0.095   0.097   0.102   0.106   0.111
  0.117   0.125   0.125   0.131   0.132   0.142   0.143   0.144
  0.148   0.153   0.163   0.165   0.169   0.171   0.184   0.190
  0.192   0.201   0.208   0.209   0.219   0.220   0.225   0.226
  0.251   0.252   0.256   0.269   0.283   0.284   0.286   0.311
  0.321   0.322   0.348   0.350   0.353   0.373   0.394   0.406
  0.454   0.469   0.508   0.513   0.545   0.555   0.569   0.591
  0.607   0.621   0.647   0.649   0.657   0.657   0.665   0.689
  0.702   0.716   0.725   0.728   0.742   0.745   0.777   0.786
  0.817   0.820   0.823   0.847   0.866   0.921   0.938   0.948
  0.951   0.955   0.960   0.969   0.984   0.993   0.996   1.018
  1.028   1.042   1.071   1.104   1.110   1.119   1.147   1.166
  1.173   1.184   1.218   1.259   1.264   1.321   1.340   1.344
  1.351   1.354   1.371   1.471   1.473   1.499   1.543   1.601
  1.674   1.691   1.726   1.801   1.862   1.878   1.890   1.914
  1.924   1.936   1.953   2.008   2.052   2.068   2.077   2.120
  2.171   2.180   2.181   2.217   2.246   2.254   2.339   2.361
  2.365   2.418   2.451   2.458   2.468   2.491   2.508   2.527
  2.538   2.560   2.586   2.611   2.672   2.691   2.718   2.753
  2.863   2.874   2.933   2.938   3.144   3.208   3.268   3.276
  3.399   3.428   3.721   3.743   3.973   3.984   4.235   4.296
  4.309   4.319   4.409   4.535   4.660   4.716
 --------------------------------------------------------------
 
          Ground-State Mulliken Net Atomic Charges

     Atom                 Charge (a.u.)
  ----------------------------------------
      1 S                    -0.137867
      2 C                     0.019734
      3 H                     0.199814
      4 C                    -0.363230
      5 H                     0.121444
      6 C                     0.421696
      7 H                     0.117653
      8 C                    -0.379885
      9 C                    -0.376124
     10 C                     0.417607
     11 H                     0.117733
     12 C                    -0.361109
     13 H                     0.121542
     14 C                     0.018438
     15 H                     0.199736
     16 S                    -0.137184
  ----------------------------------------
  Sum of atomic charges =     0.000000

 -----------------------------------------------------------------
                    Cartesian Multipole Moments
 -----------------------------------------------------------------
    Charge (ESU x 10^10)
                 0.0000
    Dipole Moment (Debye)
         X       0.0013      Y      -0.1155      Z      -0.0071
       Tot       0.1157
    Quadrupole Moments (Debye-Ang)
        XX     -62.2590     XY       0.1626     YY     -78.8379
        XZ       3.0246     YZ      -0.3795     ZZ     -66.9811
    Octopole Moments (Debye-Ang^2)
       XXX     128.9870    XXY      -7.8268    XYY      54.1203
       YYY     -19.3015    XXZ     126.4571    XYZ       2.2308
       YYZ     165.4728    XZZ      33.7157    YZZ      -1.9673
       ZZZ     422.5938
    Hexadecapole Moments (Debye-Ang^3)
      XXXX   -1583.5654   XXXY      28.2325   XXYY    -355.6543
      XYYY      24.9834   YYYY    -113.7558   XXXZ    -604.3939
      XXYZ      16.7623   XYYZ    -258.1411   YYYZ      67.6090
      XXZZ    -682.6113   XYZZ      -8.6182   YYZZ    -582.9363
      XZZZ    -561.4000   YZZZ      36.1477   ZZZZ   -2879.2531
 -----------------------------------------------------------------
Archival summary:
1\1\nid00471\OPT\ProcedureUnspecified\BasisUnspecified\286\bwood\WedMay3102:25:352017WedMay3102:25:352017\0\\#,OPT,ProcedureUnspecified,BasisUnspecified,\\0,1\S\C,1,1.73533\H,2,1.08127,1,119.853\C,2,1.36968,1,111.596,3,-179.956,0\H,4,1.08397,2,123.394,1,-179.963,0\C,4,1.42484,2,112.831,1,-0.344457,0\H,6,1.08434,4,123.51,2,-179.124,0\C,6,1.3802,4,113.606,2,0.0191071,0\C,8,1.45224,6,129.025,4,179.963,0\C,9,1.38022,8,129.015,6,170,0\H,10,1.08437,9,122.878,8,-0.843555,0\C,10,1.42485,9,113.595,8,-179.959,0\H,12,1.08398,10,123.785,9,179.633,0\C,12,1.36966,10,112.827,9,0.0185193,0\H,14,1.08131,12,128.541,10,179.73,0\S,14,1.73539,12,111.612,10,-0.34639,0\\\@

 Total job time:  48.58s(wall), 48.02s(cpu) 
 Wed May 31 02:25:35 2017

        *************************************************************
        *                                                           *
        *  Thank you very much for using Q-Chem.  Have a nice day.  *
        *                                                           *
        *************************************************************


0 sent ACK to 0 
now end server 0 ... 
