srun -N 1 --ntasks-per-node 16 --cpus-per-task 4 --cpu_bind=cores --nodelist nid00447 /global/project/projectdirs/jcesr/qchem/qc44/cnl_qc441/dist/exe/qcprog.cori.haswell.exe .pt_n2_neutral_0.0.in.48849.qcin.1 /global/cscratch1/sd/bwood/qchem/nx/qchem48849/
Process 1 of 16 is on nid00447 - thread support 0
Process 2 of 16 is on nid00447 - thread support 0
Process 3 of 16 is on nid00447 - thread support 0
Process 4 of 16 is on nid00447 - thread support 0
Process 5 of 16 is on nid00447 - thread support 0
Process 6 of 16 is on nid00447 - thread support 0
Process 0 of 16 is on nid00447 - thread support 0
initial socket setup ...start
Process 15 of 16 is on nid00447 - thread support 0
initial socket setup ...done 
now start server 0 ... 
nid00447 10.128.1
Q-Chem Developer Version! Running on 10.128.1.*
                  Welcome to Q-Chem
     A Quantum Leap Into The Future Of Chemistry


 Q-Chem 4.4, Q-Chem, Inc., Pleasanton, CA (2016)

 Y. Shao,  Z. Gan,  E. Epifanovsky,  A. T. B. Gilbert,  M. Wormit,  
 J. Kussmann,  A. W. Lange,  A. Behn,  J. Deng,  X. Feng,  D. Ghosh,  
 M. Goldey,  P. R. Horn,  L. D. Jacobson,  I. Kaliman,  F. Rob,  
 R. Z. Khaliullin,  T. Kus,  A. Landau,  J. Liu,  E. I. Proynov,  Y. M. Rhee,  
 R. M. Richard,  M. A. Rohrdanz,  R. P. Steele,  E. J. Sundstrom,  
 H. L. Woodcock III,  P. M. Zimmerman,  D. Zuev,  B. Albrecht,  E. Alguire,  
 B. Austin,  S. A. Baeppler,  G. J. O. Beran,  Y. A. Bernard,  
 E. J. Berquist,  K. Brandhorst,  K. B. Bravaya,  S. T. Brown,  D. Casanova,  
 C.-M. Chang,  Y. Chen,  S. H. Chien,  K. D. Closser,  M. P. Coons,  
 D. L. Crittenden,  S. Dasgupta,  M. Diedenhofen,  R. A. DiStasio Jr.,  
 H. Do,  A. D. Dutoi,  R. G. Edgar,  P.-T. Fang,  S. Fatehi,  Q. Feng,  
 L. Fusti-Molnar,  A. Ghysels,  A. Golubeva-Zadorozhnaya,  J. Gomes,  
 A. Gunina,  M. W. D. Hanson-Heine,  P. H. P. Harbach,  A. W. Hauser,  
 J. E. Herr,  E. G. Hohenstein,  Z. C. Holden,  K. Hui,  T.-C. Jagau,  H. Ji,  
 B. Kaduk,  K. Khistyaev,  Jaehoon Kim,  Jihan Kim,  R. A. King,  
 P. Klunzinger,  K. Koh,  D. Kosenkov,  T. Kowalczyk,  C. M. Krauter,  
 A. Kunitsa,  K. U. Lao,  A. Laurent,  K. V. Lawler,  J. Lee,  D. Lefrancois,  
 S. Lehtola,  S. V. Levchenko,  C. Y. Lin,  Y.-S. Lin,  F. Liu,  E. Livshits,  
 R. C. Lochan,  A. Luenser,  P. Manohar,  S. F. Manzer,  S.-P. Mao,  Y. Mao,  
 N. Mardirossian,  A. V. Marenich,  L. A. Martinez-Martinez,  S. A. Maurer,  
 N. J. Mayhall,  J.-M. Mewes,  A. F. Morrison,  K. Nanda,  T. S. Nguyen-Beck,  
 C. M. Oana,  R. Olivares-Amaya,  D. P. O'Neill,  J. A. Parkhill,  
 T. M. Perrine,  R. Peverati,  P. A. Pieniazek,  F. Plasser,  A. Prociuk,  
 D. R. Rehn,  E. Rosta,  N. J. Russ,  N. Sergueev,  S. M. Sharada,  
 S. Sharma,  D. W. Small,  A. Sodt,  T. Stauch,  T. Stein,  D. Stuck,  
 Y.-C. Su,  A. J. W. Thom,  T. Tsuchimochi,  L. Vogt,  O. Vydrov,  T. Wang,  
 M. A. Watson,  J. Wenzel,  A. White,  C. F. Williams,  V. Vanovschi,  
 K. Yao,  S. Yeganeh,  S. R. Yost,  Z.-Q. You,  I. Y. Zhang,  X. Zhang,  
 Y. Zhao,  B. R. Brooks,  G. K. L. Chan,  D. M. Chipman,  C. J. Cramer,  
 W. A. Goddard III,  M. S. Gordon,  W. J. Hehre,  A. Klamt,  
 H. F. Schaefer III,  M. W. Schmidt,  C. D. Sherrill,  D. G. Truhlar,  
 A. Warshel,  X. Xu,  A. Aspuru-Guzik,  R. Baer,  A. T. Bell,  N. A. Besley,  
 J.-D. Chai,  A. Dreuw,  B. D. Dunietz,  T. R. Furlani,  S. R. Gwaltney,  
 C.-P. Hsu,  Y. Jung,  J. Kong,  D. S. Lambrecht,  W. Liang,  C. Ochsenfeld,  
 V. A. Rassolov,  L. V. Slipchenko,  J. E. Subotnik,  T. Van Voorhis,  
 J. M. Herbert,  A. I. Krylov,  P. M. W. Gill,  M. Head-Gordon

 Contributors to earlier versions of Q-Chem not listed above: 
 R. D. Adamson,  J. Baker,  E. F. C. Byrd,  A. K. Chakraborty,  C.-L. Cheng,  
 H. Dachsel,  R. J. Doerksen,  G. Hawkins,  A. Heyden,  S. Hirata,  
 G. Kedziora,  F. J. Keil,  C. Kelley,  P. P. Korambath,  W. Kurlancheek,  
 A. M. Lee,  M. S. Lee,  D. Liotard,  I. Lotan,  P. E. Maslen,  N. Nair,  
 D. Neuhauser,  R. Olson,  B. Peters,  J. Ritchie,  N. E. Schultz,  
 N. Shenvi,  A. C. Simmonett,  K. S. Thanthiriwatte,  Q. Wu,  W. Zhang

 Please cite Q-Chem as follows:
 Y. Shao et al., Mol. Phys. 113, 184-215 (2015)
 DOI: 10.1080/00268976.2014.952696

 Q-Chem 4.4.2 for Intel X86 EM64T Linux

 Parts of Q-Chem use Armadillo 5.200.1 (Boston Tea Smuggler).
 http://arma.sourceforge.net/

 Q-Chem begins on Wed May 31 02:24:48 2017  

Host: nid00447
0

     Scratch files written to /global/cscratch1/sd/bwood/qchem/nx/qchem48849.0//
 Parallel job on  16  processors

Checking the input file for inconsistencies... 	...done.

--------------------------------------------------------------
User input:
--------------------------------------------------------------
$molecule
 0  1
 S           0.00238887        0.06077275        0.00183269
 C           1.73707619        0.03315849        0.00323229
 H           2.27612737        0.05289032        0.94042557
 C           2.24169204       -0.01546201       -1.26965798
 H           3.30285780       -0.04005365       -1.48972496
 C           1.22479222       -0.01612968       -2.26811464
 H           1.42674790       -0.02650987       -3.33334501
 C          -0.05393771        0.02880388       -1.75170966
 C          -1.32450815        0.04889988       -2.45636342
 C          -1.56413539        0.02797616       -3.81510527
 H          -0.76907258       -0.02507099       -4.55055018
 C          -2.94948362        0.04896661       -4.14865348
 H          -3.32543470        0.02891802       -5.16519343
 C          -3.76145477        0.08416475       -3.04565841
 H          -4.84206678        0.09781436       -3.00600201
 S          -2.84128305        0.11001166       -1.57523288
$end


$rem
         jobtype = opt
        exchange = b3lyp
           basis = 6-31++g**
  max_scf_cycles = 150
      mem_static = 775
       mem_total = 7750
      sym_ignore = true
        symmetry = false
          thresh = 12
$end


$opt
CONSTRAINT
tors 6 8 9 10 0.0
ENDCONSTRAINT
$end

--------------------------------------------------------------
 ----------------------------------------------------------------
             Standard Nuclear Orientation (Angstroms)
    I     Atom           X                Y                Z
 ----------------------------------------------------------------
    1      S       0.0023888700     0.0607727500     0.0018326900
    2      C       1.7370761900     0.0331584900     0.0032322900
    3      H       2.2761273700     0.0528903200     0.9404255700
    4      C       2.2416920400    -0.0154620100    -1.2696579800
    5      H       3.3028578000    -0.0400536500    -1.4897249600
    6      C       1.2247922200    -0.0161296800    -2.2681146400
    7      H       1.4267479000    -0.0265098700    -3.3333450100
    8      C      -0.0539377100     0.0288038800    -1.7517096600
    9      C      -1.3245081500     0.0488998800    -2.4563634200
   10      C      -1.5641353900     0.0279761600    -3.8151052700
   11      H      -0.7690725800    -0.0250709900    -4.5505501800
   12      C      -2.9494836200     0.0489666100    -4.1486534800
   13      H      -3.3254347000     0.0289180200    -5.1651934300
   14      C      -3.7614547700     0.0841647500    -3.0456584100
   15      H      -4.8420667800     0.0978143600    -3.0060020100
   16      S      -2.8412830500     0.1100116600    -1.5752328800
 ----------------------------------------------------------------
 Nuclear Repulsion Energy =   633.1684960200 hartrees
 There are       43 alpha and       43 beta electrons
 Requested basis set is 6-31++G(d,p)
 There are 76 shells and 234 basis functions

 Total QAlloc Memory Limit   7750 MB
 Mega-Array Size       758 MB
 MEM_STATIC part       775 MB
 A cutoff of  1.0D-12 yielded   2529 shell pairs
 There are     24877 function pairs

 Q-Chem warning in module /project/projectdirs/jcesr/qchem/qc44/cnl_qc441/compile/cori/qc_src/libqints/qchem/aobasis.C, line 68:

 Using reconstructed effective core potential

 
 -------------------------------------------------------
 OpenMP Integral Computing Module                       
 Release: version 1.0, May 2013, Q-Chem Inc. Pittsburgh 
 -------------------------------------------------------
 Integral Job Info:
 Integral job number is                      11
 Integral operator is                         1
 short-range coefficients                     0
 long-range coefficients              100000000
 Omega coefficients                           0
 if combine SR and LR in K                    0
 Integral screening is                        0
 Integral computing path is                   2
 max size of driver memory is            800000
 size of driver memory is                593474
 size of scratch memory is             15166112
 max col of scratch BK array               1296
 max len of scratch array in speh3          155
 max len of scratch index in speh4           18
 max int batch size is                      520
 min int batch size is                       52
 fixed nKL is                                52
 max L of basis functions is                  2
 order of int derivative is                   0
 number of shells is                         76
 number of basis is                         234
 number of cartesian basis is               234
 number of contracted shell pairs          2529
 number of primitive shell pairs           8247
 maxK2 (contraction) of shell pair           36
 max number of K2 of shell pair               1
 max number of CS2 of shell pair            260
 max number of PS2 of shell pair           1500
 mem total for path MDJ                   51992
 -------------------------------------------------------
 Smallest overlap matrix eigenvalue = 5.36E-07
 Linear dependence detected in AO basis
 Number of orthogonalized atomic orbitals = 233
 Maximum deviation from orthogonality = 1.633E-10

 Scale SEOQF with 1.000000e-01/1.000000e-01/1.000000e-02

 Standard Electronic Orientation quadrupole field applied
 Nucleus-field energy     =     0.0000000095 hartrees
 Guess from superposition of atomic densities
 Warning:  Energy on first SCF cycle will be non-variational
 A restricted hybrid HF-DFT SCF calculation will be
 performed using Pulay DIIS extrapolation
 Exchange:     0.2000 Hartree-Fock + 0.0800 Slater + 0.7200 B88
 Correlation:  0.1900 VWN1RPA + 0.8100 LYP
 Using SG-1 standard quadrature grid
 SCF converges when DIIS error is below 1.0E-08
 ---------------------------------------
  Cycle       Energy         DIIS Error
 ---------------------------------------
    1   -1107.1815439586      4.42E-02
    2   -1104.6628649716      4.81E-03
    3   -1104.3751385610      7.60E-03
    4   -1104.8283840348      1.08E-03
    5   -1104.8368285974      4.92E-04
    6   -1104.8384386073      1.49E-04
    7   -1104.8385948659      4.53E-05
    8   -1104.8386063729      1.91E-05
    9   -1104.8386091786      2.57E-06
   10   -1104.8386092303      5.23E-07
   11   -1104.8386092317      2.53E-07
   12   -1104.8386092315      3.58E-08
   13   -1104.8386092322      1.93E-08
   14   -1104.8386092318      8.01E-09 Convergence criterion met
 ---------------------------------------
 SCF time:  CPU 7.91 s  wall 7.39 s
 SCF   energy in the final basis set = -1104.8386092318
 Total energy in the final basis set = -1104.8386092318
 
 --------------------------------------------------------------
 
                    Orbital Energies (a.u.)
 --------------------------------------------------------------
 
 Alpha MOs
 -- Occupied --
-88.919 -88.919 -10.240 -10.239 -10.225 -10.225 -10.205 -10.205
-10.204 -10.204  -7.979  -7.979  -5.943  -5.943  -5.940  -5.939
 -5.936  -5.936  -0.901  -0.878  -0.772  -0.750  -0.737  -0.705
 -0.604  -0.581  -0.553  -0.533  -0.528  -0.477  -0.421  -0.419
 -0.408  -0.404  -0.402  -0.376  -0.374  -0.361  -0.342  -0.284
 -0.266  -0.257  -0.211
 -- Virtual --
 -0.060  -0.015  -0.003   0.000   0.006   0.013   0.020   0.026
  0.027   0.036   0.041   0.044   0.053   0.061   0.066   0.073
  0.081   0.082   0.089   0.093   0.100   0.103   0.107   0.114
  0.116   0.122   0.128   0.128   0.137   0.138   0.144   0.151
  0.152   0.155   0.155   0.159   0.163   0.178   0.184   0.190
  0.191   0.195   0.198   0.205   0.208   0.214   0.233   0.238
  0.259   0.265   0.273   0.278   0.299   0.300   0.304   0.311
  0.312   0.314   0.343   0.345   0.366   0.379   0.395   0.436
  0.445   0.467   0.487   0.537   0.559   0.566   0.568   0.591
  0.592   0.624   0.643   0.654   0.655   0.669   0.672   0.687
  0.701   0.709   0.721   0.725   0.732   0.753   0.779   0.791
  0.808   0.816   0.830   0.836   0.884   0.926   0.926   0.942
  0.955   0.957   0.973   0.982   0.984   1.006   1.009   1.021
  1.022   1.033   1.079   1.086   1.109   1.127   1.143   1.169
  1.188   1.204   1.216   1.246   1.262   1.335   1.338   1.349
  1.356   1.369   1.371   1.454   1.500   1.538   1.555   1.600
  1.638   1.693   1.709   1.781   1.853   1.872   1.898   1.921
  1.923   1.981   1.993   2.016   2.021   2.073   2.098   2.120
  2.122   2.166   2.186   2.249   2.252   2.289   2.295   2.358
  2.366   2.411   2.453   2.479   2.481   2.493   2.509   2.542
  2.549   2.564   2.573   2.596   2.687   2.690   2.724   2.755
  2.803   2.851   2.962   2.986   3.138   3.219   3.269   3.272
  3.392   3.436   3.707   3.758   3.940   4.030   4.223   4.297
  4.316   4.343   4.400   4.556   4.645   4.738
 --------------------------------------------------------------
 
          Ground-State Mulliken Net Atomic Charges

     Atom                 Charge (a.u.)
  ----------------------------------------
      1 S                    -0.185007
      2 C                     0.037220
      3 H                     0.204265
      4 C                    -0.489689
      5 H                     0.117497
      6 C                     0.410757
      7 H                     0.106398
      8 C                    -0.201200
      9 C                    -0.194135
     10 C                     0.402981
     11 H                     0.105975
     12 C                    -0.487287
     13 H                     0.117360
     14 C                     0.035287
     15 H                     0.204282
     16 S                    -0.184703
  ----------------------------------------
  Sum of atomic charges =    -0.000000

 -----------------------------------------------------------------
                    Cartesian Multipole Moments
 -----------------------------------------------------------------
    Charge (ESU x 10^10)
                -0.0000
    Dipole Moment (Debye)
         X       0.4957      Y      -0.0330      Z      -0.8965
       Tot       1.0250
    Quadrupole Moments (Debye-Ang)
        XX     -63.3453     XY      -0.1279     YY     -78.9187
        XZ       2.6619     YZ       0.3193     ZZ     -62.7460
    Octopole Moments (Debye-Ang^2)
       XXX     157.6421    XXY      -2.8512    XYY      66.0559
       YYY     -11.3721    XXZ     107.8352    XYZ       0.3910
       YYZ     145.0107    XZZ      52.0404    YZZ      -4.6881
       ZZZ     343.9987
    Hexadecapole Moments (Debye-Ang^3)
      XXXX   -1821.6719   XXXY      15.9553   XXYY    -407.1926
      XYYY      24.3971   YYYY    -105.1716   XXXZ    -555.9809
      XXYZ       5.0930   XYYZ    -247.0855   YYYZ      19.5387
      XXZZ    -647.0652   XYZZ       7.7340   YYZZ    -461.5214
      XZZZ    -585.1489   YZZZ      23.8387   ZZZZ   -2097.1921
 -----------------------------------------------------------------
 Calculating analytic gradient of the SCF energy
 Gradient of SCF Energy
            1           2           3           4           5           6
    1  -0.0028435  -0.0003305   0.0001079   0.0006420   0.0000179  -0.0001789
    2  -0.0006234   0.0008213   0.0003452  -0.0008209   0.0000456  -0.0011430
    3  -0.0003811  -0.0005390   0.0000453   0.0004681   0.0000200   0.0011502
            7           8           9          10          11          12
    1  -0.0003682   0.0011496   0.0006459  -0.0009540   0.0004452  -0.0006599
    2   0.0007090   0.0004153  -0.0006532   0.0013754  -0.0007284   0.0007158
    3  -0.0003502  -0.0012985  -0.0015185   0.0005047   0.0000555  -0.0004104
           13          14          15          16
    1   0.0000006   0.0006857  -0.0001093   0.0017495
    2  -0.0000478  -0.0008164  -0.0003512   0.0007568
    3   0.0000381   0.0001324  -0.0000796   0.0021631
 Max gradient component =       2.843E-03
 RMS gradient           =       8.588E-04
 Gradient time:  CPU 2.16 s  wall 2.10 s
 Geometry Optimization Parameters
   NAtoms,    NIC,     NZ,  NCons,   NDum,   NFix, NCnnct, MaxDiis
       16     111       0       1       0       0       0       0


** CONSTRAINED OPTIMIZATION IN DELOCALIZED INTERNAL COORDINATES **
   Searching for a Minimum

   Optimization Cycle:   1

                       Coordinates (Angstroms)
     ATOM                X               Y               Z
      1  S         0.0023888700    0.0607727500    0.0018326900
      2  C         1.7370761900    0.0331584900    0.0032322900
      3  H         2.2761273700    0.0528903200    0.9404255700
      4  C         2.2416920400   -0.0154620100   -1.2696579800
      5  H         3.3028578000   -0.0400536500   -1.4897249600
      6  C         1.2247922200   -0.0161296800   -2.2681146400
      7  H         1.4267479000   -0.0265098700   -3.3333450100
      8  C        -0.0539377100    0.0288038800   -1.7517096600
      9  C        -1.3245081500    0.0488998800   -2.4563634200
     10  C        -1.5641353900    0.0279761600   -3.8151052700
     11  H        -0.7690725800   -0.0250709900   -4.5505501800
     12  C        -2.9494836200    0.0489666100   -4.1486534800
     13  H        -3.3254347000    0.0289180200   -5.1651934300
     14  C        -3.7614547700    0.0841647500   -3.0456584100
     15  H        -4.8420667800    0.0978143600   -3.0060020100
     16  S        -2.8412830500    0.1100116600   -1.5752328800
   Point Group: c1    Number of degrees of freedom:    42


   Energy is  -1104.838609232

              Constraints and their Current Values
                                        Value     Constraint
   Dihedral:        6   8   9  10       -0.000        0.000

 Attempting to Generate Delocalized Internal Coordinates

 41 Hessian modes will be used to form the next step
  Hessian Eigenvalues:
     0.045000    0.045000    0.045000    0.045000    0.045000    0.045000
     0.045002    0.045002    0.045003    0.045004    0.045011    0.045012
     0.159943    0.159949    0.159991    0.159992    0.160000    0.160000
     0.221282    0.221282    0.237835    0.237839    0.250000    0.250000
     0.294264    0.294663    0.312518    0.312618    0.354736    0.354850
     0.355125    0.355132    0.358226    0.358329    0.378510    0.404854
     0.404909    0.463547    0.463616    0.497922    0.497945

 Minimum Search - Taking Simple RFO Step
 Searching for Lamda that Minimizes Along All modes
 Value Taken    Lamda =  -0.00058094
 Step Taken.  Stepsize is  0.061815

                             Maximum     Tolerance    Cnvgd?
         Gradient           0.009384      0.000300      NO
         Displacement       0.037671      0.001200      NO
         Energy change     *********      0.000001      NO


 New Cartesian Coordinates Obtained by Inverse Iteration

 Displacement from previous Coordinates is:  0.268346
 ----------------------------------------------------------------
             Standard Nuclear Orientation (Angstroms)
    I     Atom           X                Y                Z
 ----------------------------------------------------------------
    1      S       0.0283536984     0.0674525343     0.0319720794
    2      C       1.7619386671     0.0295166914    -0.0007055555
    3      H       2.3200008885     0.0400235474     0.9252744449
    4      C       2.2380543651    -0.0094925581    -1.2845598487
    5      H       3.2941207722    -0.0367792918    -1.5275425462
    6      C       1.2010100045    -0.0084372874    -2.2613216832
    7      H       1.3850365926    -0.0239453334    -3.3293243572
    8      C      -0.0691809700     0.0329679022    -1.7214579023
    9      C      -1.3424779665     0.0464092092    -2.4271189290
   10      C      -1.5575998731     0.0206744783    -3.7905401026
   11      H      -0.7499905841    -0.0269440544    -4.5118419915
   12      C      -2.9352133814     0.0428717576    -4.1530674276
   13      H      -3.2888193516     0.0250487664    -5.1776933486
   14      C      -3.7714972858     0.0871442245    -3.0690824025
   15      H      -4.8524068310     0.1093471419    -3.0519069654
   16      S      -2.8810231048     0.1032929521    -1.5809042439
 ----------------------------------------------------------------
 Nuclear Repulsion Energy =   631.6276145779 hartrees
 There are       43 alpha and       43 beta electrons
 Applying Cartesian multipole field
    Component          Value
    ---------          -----
     (2,0,0)        1.00000E-11
     (0,2,0)        2.00000E-11
     (0,0,2)       -3.00000E-12
 Nucleus-field energy     =     0.0000000097 hartrees
 Requested basis set is 6-31++G(d,p)
 There are 76 shells and 234 basis functions
 A cutoff of  1.0D-12 yielded   2527 shell pairs
 There are     24869 function pairs

 Q-Chem warning in module /project/projectdirs/jcesr/qchem/qc44/cnl_qc441/compile/cori/qc_src/libqints/qchem/aobasis.C, line 68:

 Using reconstructed effective core potential

 Smallest overlap matrix eigenvalue = 5.27E-07
 Linear dependence detected in AO basis
 Number of orthogonalized atomic orbitals = 233
 Maximum deviation from orthogonality = 1.565E-10
 Guess MOs from SCF MO coefficient file
 Reading MOs from coefficient file
 Reading MOs from coefficient file
 A restricted hybrid HF-DFT SCF calculation will be
 performed using Pulay DIIS extrapolation
 Exchange:     0.2000 Hartree-Fock + 0.0800 Slater + 0.7200 B88
 Correlation:  0.1900 VWN1RPA + 0.8100 LYP
 Using SG-1 standard quadrature grid
 SCF converges when DIIS error is below 1.0E-08
 Geometry optimization detected.  Setting ReadMinima to 0
 Setting SaveMinima to 0
 ---------------------------------------
  Cycle       Energy         DIIS Error
 ---------------------------------------
    1   -1104.7938284673      1.37E-03
    2   -1104.8378623630      3.59E-04
    3   -1104.8343678581      7.63E-04
    4   -1104.8389040023      4.77E-05
    5   -1104.8389176976      1.75E-05
    6   -1104.8389195339      7.14E-06
    7   -1104.8389199506      1.70E-06
    8   -1104.8389199703      6.27E-07
    9   -1104.8389199731      9.42E-08
   10   -1104.8389199736      3.16E-08
   11   -1104.8389199737      1.22E-08
   12   -1104.8389199734      1.74E-09 Convergence criterion met
 ---------------------------------------
 SCF time:  CPU 6.82 s  wall 6.30 s
 SCF   energy in the final basis set = -1104.8389199734
 Total energy in the final basis set = -1104.8389199734
 
 --------------------------------------------------------------
 
                    Orbital Energies (a.u.)
 --------------------------------------------------------------
 
 Alpha MOs
 -- Occupied --
-88.920 -88.920 -10.240 -10.240 -10.225 -10.225 -10.205 -10.205
-10.204 -10.203  -7.979  -7.979  -5.944  -5.944  -5.940  -5.940
 -5.937  -5.937  -0.900  -0.878  -0.772  -0.750  -0.737  -0.706
 -0.604  -0.580  -0.553  -0.533  -0.528  -0.478  -0.422  -0.419
 -0.407  -0.403  -0.402  -0.377  -0.374  -0.360  -0.342  -0.285
 -0.266  -0.257  -0.211
 -- Virtual --
 -0.060  -0.014  -0.003  -0.000   0.006   0.013   0.019   0.026
  0.027   0.036   0.041   0.044   0.052   0.061   0.066   0.073
  0.081   0.082   0.087   0.092   0.100   0.102   0.107   0.114
  0.115   0.122   0.127   0.128   0.137   0.138   0.144   0.150
  0.152   0.154   0.155   0.160   0.162   0.178   0.184   0.190
  0.191   0.195   0.198   0.205   0.208   0.213   0.233   0.237
  0.258   0.266   0.273   0.277   0.300   0.301   0.303   0.311
  0.312   0.313   0.344   0.345   0.366   0.380   0.394   0.438
  0.443   0.465   0.488   0.536   0.556   0.565   0.567   0.591
  0.593   0.625   0.643   0.653   0.656   0.667   0.669   0.684
  0.702   0.708   0.722   0.724   0.732   0.754   0.780   0.791
  0.807   0.814   0.831   0.834   0.883   0.925   0.926   0.943
  0.956   0.958   0.974   0.984   0.984   1.007   1.014   1.020
  1.026   1.030   1.078   1.086   1.107   1.125   1.145   1.168
  1.187   1.202   1.216   1.245   1.263   1.338   1.340   1.346
  1.355   1.368   1.369   1.449   1.498   1.539   1.550   1.597
  1.640   1.693   1.709   1.781   1.854   1.872   1.899   1.920
  1.923   1.982   1.994   2.012   2.018   2.073   2.096   2.122
  2.123   2.165   2.184   2.247   2.249   2.292   2.295   2.358
  2.366   2.413   2.454   2.478   2.484   2.492   2.509   2.541
  2.547   2.562   2.574   2.598   2.687   2.688   2.722   2.754
  2.806   2.854   2.960   2.980   3.140   3.218   3.270   3.273
  3.394   3.436   3.706   3.758   3.941   4.027   4.224   4.296
  4.315   4.343   4.398   4.551   4.644   4.735
 --------------------------------------------------------------
 
          Ground-State Mulliken Net Atomic Charges

     Atom                 Charge (a.u.)
  ----------------------------------------
      1 S                    -0.163959
      2 C                     0.029257
      3 H                     0.203536
      4 C                    -0.501430
      5 H                     0.117382
      6 C                     0.415260
      7 H                     0.103605
      8 C                    -0.202848
      9 C                    -0.197464
     10 C                     0.407326
     11 H                     0.103082
     12 C                    -0.499292
     13 H                     0.117304
     14 C                     0.027752
     15 H                     0.203574
     16 S                    -0.163085
  ----------------------------------------
  Sum of atomic charges =    -0.000000

 -----------------------------------------------------------------
                    Cartesian Multipole Moments
 -----------------------------------------------------------------
    Charge (ESU x 10^10)
                -0.0000
    Dipole Moment (Debye)
         X       0.5099      Y      -0.0334      Z      -0.9208
       Tot       1.0531
    Quadrupole Moments (Debye-Ang)
        XX     -63.3302     XY      -0.2052     YY     -78.9321
        XZ       2.7608     YZ       0.2699     ZZ     -62.7453
    Octopole Moments (Debye-Ang^2)
       XXX     158.4711    XXY      -2.6557    XYY      66.3567
       YYY     -11.3925    XXZ     107.0525    XYZ       0.5556
       YYZ     144.4966    XZZ      52.0695    YZZ      -4.5727
       ZZZ     342.5807
    Hexadecapole Moments (Debye-Ang^3)
      XXXX   -1837.1385   XXXY      13.2478   XXYY    -410.3074
      XYYY      23.1328   YYYY    -105.1413   XXXZ    -556.7943
      XXYZ       3.8326   XYYZ    -248.5306   YYYZ      18.7835
      XXZZ    -647.3385   XYZZ       6.6623   YYZZ    -460.4650
      XZZZ    -588.3376   YZZZ      22.6242   ZZZZ   -2092.9615
 -----------------------------------------------------------------
 Calculating analytic gradient of the SCF energy
 Gradient of SCF Energy
            1           2           3           4           5           6
    1   0.0001663   0.0003078   0.0001583   0.0001942  -0.0000282  -0.0004244
    2   0.0000304   0.0000467   0.0000868  -0.0000105   0.0000080  -0.0008041
    3   0.0004230   0.0000789  -0.0000379   0.0006769   0.0000880   0.0005980
            7           8           9          10          11          12
    1  -0.0002091   0.0006699   0.0006239  -0.0001719   0.0001993  -0.0006934
    2   0.0004656   0.0002233  -0.0003419   0.0008917  -0.0004758   0.0000165
    3  -0.0001233  -0.0011895  -0.0013038   0.0007237   0.0001119   0.0001470
           13          14          15          16
    1  -0.0000260  -0.0003422  -0.0000493  -0.0003751
    2  -0.0000080  -0.0000295  -0.0000986  -0.0000006
    3   0.0000484  -0.0001580  -0.0001657   0.0000824
 Max gradient component =       1.304E-03
 RMS gradient           =       4.304E-04
 Gradient time:  CPU 2.16 s  wall 2.11 s
 Geometry Optimization Parameters
   NAtoms,    NIC,     NZ,  NCons,   NDum,   NFix, NCnnct, MaxDiis
       16     111       0       1       0       0       0       0

 Cartesian Hessian Update
 Hessian Updated using BFGS Update


** CONSTRAINED OPTIMIZATION IN DELOCALIZED INTERNAL COORDINATES **
   Searching for a Minimum

   Optimization Cycle:   2

                       Coordinates (Angstroms)
     ATOM                X               Y               Z
      1  S         0.0283536984    0.0674525343    0.0319720794
      2  C         1.7619386671    0.0295166914   -0.0007055555
      3  H         2.3200008885    0.0400235474    0.9252744449
      4  C         2.2380543651   -0.0094925581   -1.2845598487
      5  H         3.2941207722   -0.0367792918   -1.5275425462
      6  C         1.2010100045   -0.0084372874   -2.2613216832
      7  H         1.3850365926   -0.0239453334   -3.3293243572
      8  C        -0.0691809700    0.0329679022   -1.7214579023
      9  C        -1.3424779665    0.0464092092   -2.4271189290
     10  C        -1.5575998731    0.0206744783   -3.7905401026
     11  H        -0.7499905841   -0.0269440544   -4.5118419915
     12  C        -2.9352133814    0.0428717576   -4.1530674276
     13  H        -3.2888193516    0.0250487664   -5.1776933486
     14  C        -3.7714972858    0.0871442245   -3.0690824025
     15  H        -4.8524068310    0.1093471419   -3.0519069654
     16  S        -2.8810231048    0.1032929521   -1.5809042439
   Point Group: c1    Number of degrees of freedom:    42


   Energy is  -1104.838919973

              Constraints and their Current Values
                                        Value     Constraint
   Dihedral:        6   8   9  10       -0.000        0.000
 Hessian Updated using BFGS Update

 41 Hessian modes will be used to form the next step
  Hessian Eigenvalues:
     0.041235    0.045000    0.045000    0.045000    0.045000    0.045000
     0.045001    0.045002    0.045003    0.045004    0.045012    0.045662
     0.157345    0.159947    0.159992    0.159992    0.160000    0.160047
     0.210818    0.221283    0.221832    0.237837    0.249992    0.258668
     0.294448    0.308024    0.312586    0.312842    0.354663    0.354825
     0.355130    0.355139    0.358219    0.358323    0.389212    0.404874
     0.411930    0.462687    0.463683    0.497915    0.499863

 Minimum Search - Taking Simple RFO Step
 Searching for Lamda that Minimizes Along All modes
 Value Taken    Lamda =  -0.00004311
 Step Taken.  Stepsize is  0.021761

                             Maximum     Tolerance    Cnvgd?
         Gradient           0.001596      0.000300      NO
         Displacement       0.011837      0.001200      NO
         Energy change     -0.000311      0.000001      NO


 New Cartesian Coordinates Obtained by Inverse Iteration

 Displacement from previous Coordinates is:  0.054287
 ----------------------------------------------------------------
             Standard Nuclear Orientation (Angstroms)
    I     Atom           X                Y                Z
 ----------------------------------------------------------------
    1      S       0.0291224385     0.0692023023     0.0364299762
    2      C       1.7622963595     0.0296954906    -0.0039584576
    3      H       2.3227127407     0.0374692074     0.9205216338
    4      C       2.2346545597    -0.0077621781    -1.2897016100
    5      H       3.2897868103    -0.0368573026    -1.5368244116
    6      C       1.1947285016    -0.0059072382    -2.2619041111
    7      H       1.3758901875    -0.0262960635    -3.3301543234
    8      C      -0.0732933755     0.0343189440    -1.7153673712
    9      C      -1.3455648847     0.0454343328    -2.4202328056
   10      C      -1.5539220819     0.0180921187    -3.7853416283
   11      H      -0.7442902287    -0.0245534704    -4.5044078500
   12      C      -2.9290803508     0.0410937391    -4.1528303151
   13      H      -3.2788472660     0.0250874731    -5.1788727799
   14      C      -3.7688246412     0.0868030280    -3.0711744245
   15      H      -4.8496334138     0.1117819834    -3.0569392716
   16      S      -2.8854297152     0.1015483132    -1.5790630302
 ----------------------------------------------------------------
 Nuclear Repulsion Energy =   631.7648579992 hartrees
 There are       43 alpha and       43 beta electrons
 Applying Cartesian multipole field
    Component          Value
    ---------          -----
     (2,0,0)        1.00000E-11
     (0,2,0)        2.00000E-11
     (0,0,2)       -3.00000E-12
 Nucleus-field energy     =     0.0000000097 hartrees
 Requested basis set is 6-31++G(d,p)
 There are 76 shells and 234 basis functions
 A cutoff of  1.0D-12 yielded   2527 shell pairs
 There are     24869 function pairs

 Q-Chem warning in module /project/projectdirs/jcesr/qchem/qc44/cnl_qc441/compile/cori/qc_src/libqints/qchem/aobasis.C, line 68:

 Using reconstructed effective core potential

 Smallest overlap matrix eigenvalue = 5.18E-07
 Linear dependence detected in AO basis
 Number of orthogonalized atomic orbitals = 233
 Maximum deviation from orthogonality = 7.998E-11
 Guess MOs from SCF MO coefficient file
 Reading MOs from coefficient file
 Reading MOs from coefficient file
 A restricted hybrid HF-DFT SCF calculation will be
 performed using Pulay DIIS extrapolation
 Exchange:     0.2000 Hartree-Fock + 0.0800 Slater + 0.7200 B88
 Correlation:  0.1900 VWN1RPA + 0.8100 LYP
 Using SG-1 standard quadrature grid
 SCF converges when DIIS error is below 1.0E-08
 Geometry optimization detected.  Setting ReadMinima to 0
 Setting SaveMinima to 0
 ---------------------------------------
  Cycle       Energy         DIIS Error
 ---------------------------------------
    1   -1104.8324499322      3.19E-04
    2   -1104.8389054765      6.71E-05
    3   -1104.8387778223      1.45E-04
    4   -1104.8389412767      9.11E-06
    5   -1104.8389417079      4.86E-06
    6   -1104.8389418797      1.07E-06
    7   -1104.8389418874      4.74E-07
    8   -1104.8389418882      8.10E-08
    9   -1104.8389418893      2.71E-08
   10   -1104.8389418896      6.79E-09 Convergence criterion met
 ---------------------------------------
 SCF time:  CPU 5.80 s  wall 6.31 s
 SCF   energy in the final basis set = -1104.8389418896
 Total energy in the final basis set = -1104.8389418896
 
 --------------------------------------------------------------
 
                    Orbital Energies (a.u.)
 --------------------------------------------------------------
 
 Alpha MOs
 -- Occupied --
-88.920 -88.920 -10.240 -10.240 -10.225 -10.225 -10.205 -10.205
-10.203 -10.203  -7.980  -7.980  -5.944  -5.944  -5.940  -5.940
 -5.937  -5.937  -0.901  -0.878  -0.772  -0.750  -0.737  -0.705
 -0.604  -0.580  -0.553  -0.533  -0.528  -0.477  -0.422  -0.419
 -0.407  -0.403  -0.402  -0.377  -0.374  -0.360  -0.343  -0.284
 -0.266  -0.257  -0.211
 -- Virtual --
 -0.060  -0.014  -0.003  -0.000   0.006   0.013   0.019   0.026
  0.026   0.036   0.041   0.044   0.052   0.061   0.066   0.073
  0.081   0.082   0.087   0.093   0.100   0.102   0.107   0.114
  0.114   0.123   0.127   0.128   0.137   0.138   0.144   0.150
  0.152   0.154   0.155   0.160   0.162   0.178   0.184   0.190
  0.191   0.196   0.199   0.205   0.208   0.213   0.233   0.237
  0.258   0.266   0.273   0.278   0.301   0.302   0.303   0.312
  0.312   0.313   0.343   0.345   0.366   0.379   0.395   0.438
  0.443   0.465   0.488   0.535   0.556   0.565   0.567   0.592
  0.593   0.626   0.643   0.653   0.656   0.667   0.669   0.684
  0.703   0.708   0.722   0.724   0.732   0.755   0.781   0.791
  0.807   0.814   0.831   0.834   0.883   0.926   0.926   0.943
  0.955   0.958   0.974   0.984   0.984   1.007   1.016   1.020
  1.027   1.030   1.078   1.087   1.107   1.125   1.146   1.168
  1.188   1.203   1.217   1.245   1.262   1.339   1.341   1.346
  1.355   1.366   1.369   1.448   1.498   1.539   1.549   1.597
  1.641   1.693   1.709   1.782   1.854   1.873   1.899   1.920
  1.923   1.984   1.994   2.012   2.018   2.074   2.096   2.121
  2.124   2.166   2.184   2.247   2.250   2.293   2.297   2.358
  2.366   2.414   2.455   2.478   2.485   2.492   2.509   2.543
  2.547   2.562   2.574   2.598   2.687   2.688   2.722   2.754
  2.808   2.855   2.959   2.980   3.140   3.218   3.270   3.273
  3.394   3.437   3.707   3.759   3.941   4.027   4.225   4.297
  4.314   4.343   4.399   4.551   4.644   4.735
 --------------------------------------------------------------
 
          Ground-State Mulliken Net Atomic Charges

     Atom                 Charge (a.u.)
  ----------------------------------------
      1 S                    -0.160001
      2 C                     0.025260
      3 H                     0.203175
      4 C                    -0.501459
      5 H                     0.117341
      6 C                     0.415858
      7 H                     0.102846
      8 C                    -0.201844
      9 C                    -0.196996
     10 C                     0.407161
     11 H                     0.102289
     12 C                    -0.499116
     13 H                     0.117281
     14 C                     0.023723
     15 H                     0.203210
     16 S                    -0.158728
  ----------------------------------------
  Sum of atomic charges =    -0.000000

 -----------------------------------------------------------------
                    Cartesian Multipole Moments
 -----------------------------------------------------------------
    Charge (ESU x 10^10)
                -0.0000
    Dipole Moment (Debye)
         X       0.5081      Y      -0.0331      Z      -0.9181
       Tot       1.0499
    Quadrupole Moments (Debye-Ang)
        XX     -63.3926     XY      -0.2425     YY     -78.9231
        XZ       2.7100     YZ       0.2493     ZZ     -62.7521
    Octopole Moments (Debye-Ang^2)
       XXX     158.9093    XXY      -2.6081    XYY      66.4064
       YYY     -11.3921    XXZ     107.1180    XYZ       0.6488
       YYZ     144.3695    XZZ      52.2757    YZZ      -4.4847
       ZZZ     342.1987
    Hexadecapole Moments (Debye-Ang^3)
      XXXX   -1837.7566   XXXY      12.2790   XXYY    -410.0177
      XYYY      22.6092   YYYY    -105.1040   XXXZ    -557.2308
      XXYZ       3.4601   XYYZ    -248.2592   YYYZ      18.4689
      XXZZ    -647.3890   XYZZ       6.1175   YYZZ    -459.9722
      XZZZ    -588.1135   YZZZ      21.8613   ZZZZ   -2090.0738
 -----------------------------------------------------------------
 Calculating analytic gradient of the SCF energy
 Gradient of SCF Energy
            1           2           3           4           5           6
    1  -0.0001073  -0.0001979   0.0000039   0.0000250  -0.0000012  -0.0000639
    2   0.0001085  -0.0000379   0.0000133   0.0001076  -0.0000427  -0.0004691
    3   0.0005953  -0.0002099  -0.0000409  -0.0000385  -0.0000481   0.0001329
            7           8           9          10          11          12
    1   0.0000127   0.0001889   0.0001985  -0.0000242   0.0000236  -0.0000147
    2   0.0002677   0.0001950  -0.0002256   0.0004774  -0.0002747  -0.0001076
    3  -0.0000522  -0.0003922  -0.0004019   0.0001334  -0.0000270  -0.0000331
           13          14          15          16
    1   0.0000588   0.0002762   0.0000379  -0.0004163
    2   0.0000373   0.0000411  -0.0000186  -0.0000716
    3  -0.0000407   0.0000342  -0.0000332   0.0004220
 Max gradient component =       5.953E-04
 RMS gradient           =       2.071E-04
 Gradient time:  CPU 2.18 s  wall 2.11 s
 Geometry Optimization Parameters
   NAtoms,    NIC,     NZ,  NCons,   NDum,   NFix, NCnnct, MaxDiis
       16     111       0       1       0       0       0       0

 Cartesian Hessian Update
 Hessian Updated using BFGS Update


** CONSTRAINED OPTIMIZATION IN DELOCALIZED INTERNAL COORDINATES **
   Searching for a Minimum

   Optimization Cycle:   3

                       Coordinates (Angstroms)
     ATOM                X               Y               Z
      1  S         0.0291224385    0.0692023023    0.0364299762
      2  C         1.7622963595    0.0296954906   -0.0039584576
      3  H         2.3227127407    0.0374692074    0.9205216338
      4  C         2.2346545597   -0.0077621781   -1.2897016100
      5  H         3.2897868103   -0.0368573026   -1.5368244116
      6  C         1.1947285016   -0.0059072382   -2.2619041111
      7  H         1.3758901875   -0.0262960635   -3.3301543234
      8  C        -0.0732933755    0.0343189440   -1.7153673712
      9  C        -1.3455648847    0.0454343328   -2.4202328056
     10  C        -1.5539220819    0.0180921187   -3.7853416283
     11  H        -0.7442902287   -0.0245534704   -4.5044078500
     12  C        -2.9290803508    0.0410937391   -4.1528303151
     13  H        -3.2788472660    0.0250874731   -5.1788727799
     14  C        -3.7688246412    0.0868030280   -3.0711744245
     15  H        -4.8496334138    0.1117819834   -3.0569392716
     16  S        -2.8854297152    0.1015483132   -1.5790630302
   Point Group: c1    Number of degrees of freedom:    42


   Energy is  -1104.838941890

              Constraints and their Current Values
                                        Value     Constraint
   Dihedral:        6   8   9  10        0.000        0.000
 Hessian Updated using BFGS Update

 38 Hessian modes will be used to form the next step
  Hessian Eigenvalues:
     0.032292    0.045000    0.045001    0.045002    0.045003    0.045004
     0.045011    0.045058    0.045886    0.156139    0.159947    0.159992
     0.160000    0.160006    0.160744    0.217713    0.221307    0.229314
     0.237837    0.250018    0.288243    0.294440    0.297779    0.312570
     0.313720    0.354467    0.354809    0.355129    0.355183    0.358263
     0.358431    0.389290    0.404878    0.444988    0.463104    0.465335
     0.497927    0.501226

 Minimum Search - Taking Simple RFO Step
 Searching for Lamda that Minimizes Along All modes
 Value Taken    Lamda =  -0.00000653
 Step Taken.  Stepsize is  0.010663

                             Maximum     Tolerance    Cnvgd?
         Gradient           0.000412      0.000300      NO
         Displacement       0.005624      0.001200      NO
         Energy change     -0.000022      0.000001      NO


 New Cartesian Coordinates Obtained by Inverse Iteration

 Displacement from previous Coordinates is:  0.009009
 ----------------------------------------------------------------
             Standard Nuclear Orientation (Angstroms)
    I     Atom           X                Y                Z
 ----------------------------------------------------------------
    1      S       0.0295486474     0.0693046967     0.0355200494
    2      C       1.7627147355     0.0302584081    -0.0036198652
    3      H       2.3225337720     0.0375688537     0.9212687180
    4      C       2.2349453870    -0.0074311090    -1.2894679266
    5      H       3.2901184497    -0.0371360405    -1.5363102816
    6      C       1.1950320240    -0.0054038355    -2.2618944369
    7      H       1.3765238027    -0.0290470108    -3.3299199846
    8      C      -0.0732834573     0.0345842377    -1.7153349297
    9      C      -1.3456013299     0.0452272563    -2.4201613912
   10      C      -1.5541182177     0.0175760925    -3.7855598309
   11      H      -0.7446862910    -0.0217938520    -4.5048929049
   12      C      -2.9294197391     0.0407427616    -4.1529366817
   13      H      -3.2795412376     0.0253700811    -5.1788503217
   14      C      -3.7693307555     0.0862054039    -3.0713380158
   15      H      -4.8501619667     0.1117311141    -3.0564178421
   16      S      -2.8849681835     0.1013936221    -1.5799051345
 ----------------------------------------------------------------
 Nuclear Repulsion Energy =   631.8020368171 hartrees
 There are       43 alpha and       43 beta electrons
 Applying Cartesian multipole field
    Component          Value
    ---------          -----
     (2,0,0)        1.00000E-11
     (0,2,0)        2.00000E-11
     (0,0,2)       -3.00000E-12
 Nucleus-field energy     =     0.0000000097 hartrees
 Requested basis set is 6-31++G(d,p)
 There are 76 shells and 234 basis functions
 A cutoff of  1.0D-12 yielded   2527 shell pairs
 There are     24869 function pairs

 Q-Chem warning in module /project/projectdirs/jcesr/qchem/qc44/cnl_qc441/compile/cori/qc_src/libqints/qchem/aobasis.C, line 68:

 Using reconstructed effective core potential

 Smallest overlap matrix eigenvalue = 5.19E-07
 Linear dependence detected in AO basis
 Number of orthogonalized atomic orbitals = 233
 Maximum deviation from orthogonality = 9.998E-11
 Guess MOs from SCF MO coefficient file
 Reading MOs from coefficient file
 Reading MOs from coefficient file
 A restricted hybrid HF-DFT SCF calculation will be
 performed using Pulay DIIS extrapolation
 Exchange:     0.2000 Hartree-Fock + 0.0800 Slater + 0.7200 B88
 Correlation:  0.1900 VWN1RPA + 0.8100 LYP
 Using SG-1 standard quadrature grid
 SCF converges when DIIS error is below 1.0E-08
 Geometry optimization detected.  Setting ReadMinima to 0
 Setting SaveMinima to 0
 ---------------------------------------
  Cycle       Energy         DIIS Error
 ---------------------------------------
    1   -1104.8393219209      3.90E-05
    2   -1104.8389457372      7.18E-06
    3   -1104.8389446134      1.43E-05
    4   -1104.8389461347      1.48E-06
    5   -1104.8389461468      7.16E-07
    6   -1104.8389461516      2.04E-07
    7   -1104.8389461501      6.04E-08
    8   -1104.8389461518      1.71E-08
    9   -1104.8389461520      4.41E-09 Convergence criterion met
 ---------------------------------------
 SCF time:  CPU 5.11 s  wall 4.73 s
 SCF   energy in the final basis set = -1104.8389461520
 Total energy in the final basis set = -1104.8389461520
 
 --------------------------------------------------------------
 
                    Orbital Energies (a.u.)
 --------------------------------------------------------------
 
 Alpha MOs
 -- Occupied --
-88.920 -88.920 -10.240 -10.240 -10.225 -10.225 -10.205 -10.205
-10.203 -10.203  -7.980  -7.980  -5.944  -5.944  -5.940  -5.940
 -5.937  -5.937  -0.901  -0.878  -0.772  -0.750  -0.737  -0.705
 -0.604  -0.580  -0.553  -0.533  -0.528  -0.477  -0.422  -0.419
 -0.407  -0.403  -0.402  -0.377  -0.374  -0.360  -0.343  -0.284
 -0.266  -0.257  -0.211
 -- Virtual --
 -0.060  -0.014  -0.003  -0.000   0.006   0.013   0.019   0.026
  0.026   0.036   0.041   0.044   0.052   0.061   0.066   0.073
  0.081   0.082   0.087   0.093   0.100   0.102   0.107   0.114
  0.114   0.123   0.127   0.128   0.137   0.138   0.144   0.150
  0.152   0.154   0.155   0.160   0.162   0.178   0.184   0.190
  0.191   0.196   0.199   0.205   0.208   0.213   0.233   0.237
  0.258   0.266   0.273   0.278   0.300   0.302   0.303   0.312
  0.312   0.313   0.344   0.345   0.366   0.379   0.395   0.438
  0.443   0.465   0.488   0.535   0.557   0.565   0.567   0.592
  0.593   0.626   0.643   0.653   0.656   0.667   0.669   0.684
  0.703   0.708   0.722   0.724   0.732   0.755   0.781   0.791
  0.807   0.814   0.831   0.834   0.883   0.926   0.926   0.943
  0.955   0.958   0.974   0.984   0.985   1.007   1.016   1.020
  1.027   1.030   1.078   1.088   1.107   1.125   1.146   1.168
  1.188   1.203   1.217   1.245   1.262   1.339   1.341   1.346
  1.355   1.366   1.369   1.448   1.498   1.539   1.549   1.597
  1.641   1.693   1.709   1.782   1.853   1.874   1.899   1.920
  1.923   1.984   1.994   2.012   2.018   2.074   2.096   2.121
  2.124   2.166   2.184   2.247   2.250   2.292   2.298   2.358
  2.366   2.414   2.455   2.478   2.485   2.492   2.509   2.543
  2.547   2.562   2.574   2.599   2.687   2.688   2.722   2.753
  2.808   2.855   2.959   2.980   3.140   3.218   3.270   3.273
  3.394   3.437   3.707   3.759   3.941   4.027   4.225   4.297
  4.314   4.343   4.399   4.551   4.644   4.735
 --------------------------------------------------------------
 
          Ground-State Mulliken Net Atomic Charges

     Atom                 Charge (a.u.)
  ----------------------------------------
      1 S                    -0.160258
      2 C                     0.025957
      3 H                     0.203268
      4 C                    -0.502248
      5 H                     0.117342
      6 C                     0.416722
      7 H                     0.102904
      8 C                    -0.202378
      9 C                    -0.197633
     10 C                     0.407676
     11 H                     0.102342
     12 C                    -0.499852
     13 H                     0.117283
     14 C                     0.024411
     15 H                     0.203310
     16 S                    -0.158845
  ----------------------------------------
  Sum of atomic charges =    -0.000000

 -----------------------------------------------------------------
                    Cartesian Multipole Moments
 -----------------------------------------------------------------
    Charge (ESU x 10^10)
                -0.0000
    Dipole Moment (Debye)
         X       0.5072      Y      -0.0330      Z      -0.9166
       Tot       1.0481
    Quadrupole Moments (Debye-Ang)
        XX     -63.3845     XY      -0.2555     YY     -78.9214
        XZ       2.7190     YZ       0.2417     ZZ     -62.7615
    Octopole Moments (Debye-Ang^2)
       XXX     158.8217    XXY      -2.6002    XYY      66.3906
       YYY     -11.3891    XXZ     107.1168    XYZ       0.6903
       YYZ     144.3925    XZZ      52.2577    YZZ      -4.4404
       ZZZ     342.3150
    Hexadecapole Moments (Debye-Ang^3)
      XXXX   -1837.5999   XXXY      12.0359   XXYY    -410.0436
      XYYY      22.4666   YYYY    -105.0944   XXXZ    -557.1744
      XXYZ       3.3986   XYYZ    -248.3102   YYYZ      18.3958
      XXZZ    -647.4003   XYZZ       5.9130   YYZZ    -460.0372
      XZZZ    -588.2738   YZZZ      21.5442   ZZZZ   -2090.6149
 -----------------------------------------------------------------
 Calculating analytic gradient of the SCF energy
 Gradient of SCF Energy
            1           2           3           4           5           6
    1   0.0000379  -0.0000514   0.0000043   0.0000358  -0.0000030  -0.0000435
    2   0.0000300   0.0000022  -0.0000011   0.0000843  -0.0000568  -0.0002615
    3   0.0000811  -0.0000439   0.0000079   0.0000046  -0.0000047  -0.0000313
            7           8           9          10          11          12
    1   0.0000213  -0.0001125   0.0001198   0.0000656  -0.0000320  -0.0000387
    2   0.0001469   0.0001902  -0.0001903   0.0002522  -0.0001462  -0.0000815
    3   0.0000193  -0.0000808   0.0000631   0.0000023   0.0000009  -0.0000146
           13          14          15          16
    1   0.0000132   0.0000827  -0.0000080  -0.0000919
    2   0.0000552   0.0000010   0.0000004  -0.0000250
    3  -0.0000067  -0.0000059  -0.0000058   0.0000144
 Max gradient component =       2.615E-04
 RMS gradient           =       8.503E-05
 Gradient time:  CPU 2.21 s  wall 2.12 s
 Geometry Optimization Parameters
   NAtoms,    NIC,     NZ,  NCons,   NDum,   NFix, NCnnct, MaxDiis
       16     111       0       1       0       0       0       0

 Cartesian Hessian Update
 Hessian Updated using BFGS Update


** CONSTRAINED OPTIMIZATION IN DELOCALIZED INTERNAL COORDINATES **
   Searching for a Minimum

   Optimization Cycle:   4

                       Coordinates (Angstroms)
     ATOM                X               Y               Z
      1  S         0.0295486474    0.0693046967    0.0355200494
      2  C         1.7627147355    0.0302584081   -0.0036198652
      3  H         2.3225337720    0.0375688537    0.9212687180
      4  C         2.2349453870   -0.0074311090   -1.2894679266
      5  H         3.2901184497   -0.0371360405   -1.5363102816
      6  C         1.1950320240   -0.0054038355   -2.2618944369
      7  H         1.3765238027   -0.0290470108   -3.3299199846
      8  C        -0.0732834573    0.0345842377   -1.7153349297
      9  C        -1.3456013299    0.0452272563   -2.4201613912
     10  C        -1.5541182177    0.0175760925   -3.7855598309
     11  H        -0.7446862910   -0.0217938520   -4.5048929049
     12  C        -2.9294197391    0.0407427616   -4.1529366817
     13  H        -3.2795412376    0.0253700811   -5.1788503217
     14  C        -3.7693307555    0.0862054039   -3.0713380158
     15  H        -4.8501619667    0.1117311141   -3.0564178421
     16  S        -2.8849681835    0.1013936221   -1.5799051345
   Point Group: c1    Number of degrees of freedom:    42


   Energy is  -1104.838946152

              Constraints and their Current Values
                                        Value     Constraint
   Dihedral:        6   8   9  10        0.000        0.000
 Hessian Updated using BFGS Update

 37 Hessian modes will be used to form the next step
  Hessian Eigenvalues:
     0.022159    0.044239    0.045000    0.045000    0.045001    0.045004
     0.045007    0.045971    0.158404    0.159757    0.159954    0.159992
     0.160000    0.160494    0.220419    0.221277    0.226012    0.237835
     0.249999    0.286137    0.294281    0.295034    0.312565    0.316878
     0.354786    0.355054    0.355130    0.355563    0.358278    0.359238
     0.391039    0.404897    0.443464    0.463705    0.473376    0.497922
     0.502795

 Minimum Search - Taking Simple RFO Step
 Searching for Lamda that Minimizes Along All modes
 Value Taken    Lamda =  -0.00000180
 Step Taken.  Stepsize is  0.008061

                             Maximum     Tolerance    Cnvgd?
         Gradient           0.000219      0.000300     YES
         Displacement       0.004447      0.001200      NO
         Energy change     -0.000004      0.000001      NO


 New Cartesian Coordinates Obtained by Inverse Iteration

 Displacement from previous Coordinates is:  0.009504
 ----------------------------------------------------------------
             Standard Nuclear Orientation (Angstroms)
    I     Atom           X                Y                Z
 ----------------------------------------------------------------
    1      S       0.0292487883     0.0693797711     0.0347005034
    2      C       1.7624522225     0.0305998135    -0.0033778313
    3      H       2.3216945893     0.0380234639     0.9218384747
    4      C       2.2351317326    -0.0074243257    -1.2890924242
    5      H       3.2904293940    -0.0370776832    -1.5354076798
    6      C       1.1956768252    -0.0055007917    -2.2620001533
    7      H       1.3774949311    -0.0317619420    -3.3299230673
    8      C      -0.0728877438     0.0345635771    -1.7158475960
    9      C      -1.3453725335     0.0453086745    -2.4207608049
   10      C      -1.5543682341     0.0177038707    -3.7861639197
   11      H      -0.7450833798    -0.0190677571    -4.5058306943
   12      C      -2.9298285772     0.0407050984    -4.1528981796
   13      H      -3.2804928059     0.0252552917    -5.1786265968
   14      C      -3.7694240366     0.0858339052    -3.0709607496
   15      H      -4.8502314453     0.1112725427    -3.0553800487
   16      S      -2.8841340869     0.1013371711    -1.5800900125
 ----------------------------------------------------------------
 Nuclear Repulsion Energy =   631.8325286907 hartrees
 There are       43 alpha and       43 beta electrons
 Applying Cartesian multipole field
    Component          Value
    ---------          -----
     (2,0,0)        1.00000E-11
     (0,2,0)        2.00000E-11
     (0,0,2)       -3.00000E-12
 Nucleus-field energy     =     0.0000000097 hartrees
 Requested basis set is 6-31++G(d,p)
 There are 76 shells and 234 basis functions
 A cutoff of  1.0D-12 yielded   2527 shell pairs
 There are     24869 function pairs

 Q-Chem warning in module /project/projectdirs/jcesr/qchem/qc44/cnl_qc441/compile/cori/qc_src/libqints/qchem/aobasis.C, line 68:

 Using reconstructed effective core potential

 Smallest overlap matrix eigenvalue = 5.20E-07
 Linear dependence detected in AO basis
 Number of orthogonalized atomic orbitals = 233
 Maximum deviation from orthogonality = 5.712E-11
 Guess MOs from SCF MO coefficient file
 Reading MOs from coefficient file
 Reading MOs from coefficient file
 A restricted hybrid HF-DFT SCF calculation will be
 performed using Pulay DIIS extrapolation
 Exchange:     0.2000 Hartree-Fock + 0.0800 Slater + 0.7200 B88
 Correlation:  0.1900 VWN1RPA + 0.8100 LYP
 Using SG-1 standard quadrature grid
 SCF converges when DIIS error is below 1.0E-08
 Geometry optimization detected.  Setting ReadMinima to 0
 Setting SaveMinima to 0
 ---------------------------------------
  Cycle       Energy         DIIS Error
 ---------------------------------------
    1   -1104.8398391720      3.62E-05
    2   -1104.8389467848      7.50E-06
    3   -1104.8389451572      1.64E-05
    4   -1104.8389472436      1.08E-06
    5   -1104.8389472506      3.64E-07
    6   -1104.8389472515      1.91E-07
    7   -1104.8389472520      5.44E-08
    8   -1104.8389472525      1.64E-08
    9   -1104.8389472513      3.36E-09 Convergence criterion met
 ---------------------------------------
 SCF time:  CPU 5.16 s  wall 5.05 s
 SCF   energy in the final basis set = -1104.8389472513
 Total energy in the final basis set = -1104.8389472513
 
 --------------------------------------------------------------
 
                    Orbital Energies (a.u.)
 --------------------------------------------------------------
 
 Alpha MOs
 -- Occupied --
-88.920 -88.920 -10.240 -10.240 -10.225 -10.225 -10.205 -10.205
-10.203 -10.203  -7.980  -7.980  -5.944  -5.944  -5.940  -5.940
 -5.937  -5.937  -0.901  -0.878  -0.772  -0.750  -0.737  -0.705
 -0.604  -0.580  -0.553  -0.533  -0.528  -0.477  -0.422  -0.419
 -0.407  -0.403  -0.402  -0.377  -0.374  -0.360  -0.343  -0.284
 -0.266  -0.257  -0.211
 -- Virtual --
 -0.060  -0.014  -0.003  -0.000   0.006   0.013   0.019   0.026
  0.026   0.036   0.041   0.044   0.052   0.061   0.066   0.073
  0.081   0.082   0.087   0.093   0.100   0.102   0.107   0.114
  0.114   0.123   0.127   0.128   0.137   0.138   0.144   0.150
  0.152   0.154   0.155   0.160   0.162   0.178   0.184   0.190
  0.191   0.196   0.199   0.205   0.208   0.213   0.233   0.237
  0.258   0.266   0.273   0.278   0.300   0.302   0.303   0.312
  0.312   0.313   0.344   0.345   0.366   0.379   0.394   0.438
  0.443   0.465   0.488   0.535   0.557   0.565   0.567   0.592
  0.593   0.626   0.643   0.653   0.656   0.667   0.669   0.684
  0.703   0.708   0.722   0.724   0.732   0.755   0.781   0.791
  0.807   0.814   0.831   0.834   0.883   0.926   0.926   0.943
  0.955   0.958   0.974   0.984   0.985   1.007   1.016   1.020
  1.027   1.030   1.078   1.088   1.107   1.125   1.146   1.168
  1.188   1.203   1.217   1.245   1.262   1.339   1.341   1.346
  1.355   1.366   1.369   1.448   1.498   1.539   1.550   1.597
  1.641   1.694   1.709   1.782   1.853   1.874   1.899   1.920
  1.923   1.983   1.994   2.012   2.019   2.074   2.096   2.121
  2.124   2.166   2.184   2.246   2.250   2.292   2.298   2.358
  2.366   2.414   2.455   2.478   2.485   2.491   2.509   2.543
  2.547   2.561   2.574   2.599   2.687   2.688   2.722   2.753
  2.807   2.854   2.959   2.979   3.140   3.218   3.270   3.273
  3.394   3.437   3.707   3.759   3.941   4.027   4.225   4.297
  4.314   4.343   4.399   4.551   4.644   4.735
 --------------------------------------------------------------
 
          Ground-State Mulliken Net Atomic Charges

     Atom                 Charge (a.u.)
  ----------------------------------------
      1 S                    -0.160690
      2 C                     0.026239
      3 H                     0.203310
      4 C                    -0.502304
      5 H                     0.117345
      6 C                     0.416928
      7 H                     0.102984
      8 C                    -0.202504
      9 C                    -0.197724
     10 C                     0.407828
     11 H                     0.102425
     12 C                    -0.499901
     13 H                     0.117285
     14 C                     0.024689
     15 H                     0.203354
     16 S                    -0.159265
  ----------------------------------------
  Sum of atomic charges =    -0.000000

 -----------------------------------------------------------------
                    Cartesian Multipole Moments
 -----------------------------------------------------------------
    Charge (ESU x 10^10)
                -0.0000
    Dipole Moment (Debye)
         X       0.5065      Y      -0.0330      Z      -0.9154
       Tot       1.0468
    Quadrupole Moments (Debye-Ang)
        XX     -63.3824     XY      -0.2587     YY     -78.9209
        XZ       2.7193     YZ       0.2401     ZZ     -62.7652
    Octopole Moments (Debye-Ang^2)
       XXX     158.7730    XXY      -2.6066    XYY      66.3808
       YYY     -11.3899    XXZ     107.1344    XYZ       0.7043
       YYZ     144.4106    XZZ      52.2575    YZZ      -4.4242
       ZZZ     342.3840
    Hexadecapole Moments (Debye-Ang^3)
      XXXX   -1837.3283   XXXY      12.0212   XXYY    -410.0124
      XYYY      22.4236   YYYY    -105.0917   XXXZ    -557.1602
      XXYZ       3.4340   XYYZ    -248.3108   YYYZ      18.3771
      XXZZ    -647.4390   XYZZ       5.8508   YYZZ    -460.0868
      XZZZ    -588.3185   YZZZ      21.4160   ZZZZ   -2090.9259
 -----------------------------------------------------------------
 Calculating analytic gradient of the SCF energy
 Gradient of SCF Energy
            1           2           3           4           5           6
    1   0.0000264   0.0000069  -0.0000109  -0.0000058  -0.0000032   0.0000207
    2  -0.0000221   0.0000171  -0.0000030   0.0000528  -0.0000445  -0.0001192
    3  -0.0000895   0.0000309   0.0000095  -0.0000165   0.0000067  -0.0000381
            7           8           9          10          11          12
    1   0.0000156  -0.0000653  -0.0000396   0.0000221  -0.0000135   0.0000225
    2   0.0000533   0.0001646  -0.0001569   0.0001090  -0.0000511  -0.0000531
    3   0.0000112   0.0000896   0.0001194  -0.0000526  -0.0000033  -0.0000031
           13          14          15          16
    1  -0.0000005  -0.0000252  -0.0000021   0.0000518
    2   0.0000433  -0.0000129   0.0000044   0.0000183
    3   0.0000007   0.0000037   0.0000080  -0.0000767
 Max gradient component =       1.646E-04
 RMS gradient           =       5.552E-05
 Gradient time:  CPU 2.20 s  wall 2.12 s
 Geometry Optimization Parameters
   NAtoms,    NIC,     NZ,  NCons,   NDum,   NFix, NCnnct, MaxDiis
       16     111       0       1       0       0       0       0

 Cartesian Hessian Update
 Hessian Updated using BFGS Update


** CONSTRAINED OPTIMIZATION IN DELOCALIZED INTERNAL COORDINATES **
   Searching for a Minimum

   Optimization Cycle:   5

                       Coordinates (Angstroms)
     ATOM                X               Y               Z
      1  S         0.0292487883    0.0693797711    0.0347005034
      2  C         1.7624522225    0.0305998135   -0.0033778313
      3  H         2.3216945893    0.0380234639    0.9218384747
      4  C         2.2351317326   -0.0074243257   -1.2890924242
      5  H         3.2904293940   -0.0370776832   -1.5354076798
      6  C         1.1956768252   -0.0055007917   -2.2620001533
      7  H         1.3774949311   -0.0317619420   -3.3299230673
      8  C        -0.0728877438    0.0345635771   -1.7158475960
      9  C        -1.3453725335    0.0453086745   -2.4207608049
     10  C        -1.5543682341    0.0177038707   -3.7861639197
     11  H        -0.7450833798   -0.0190677571   -4.5058306943
     12  C        -2.9298285772    0.0407050984   -4.1528981796
     13  H        -3.2804928059    0.0252552917   -5.1786265968
     14  C        -3.7694240366    0.0858339052   -3.0709607496
     15  H        -4.8502314453    0.1112725427   -3.0553800487
     16  S        -2.8841340869    0.1013371711   -1.5800900125
   Point Group: c1    Number of degrees of freedom:    42


   Energy is  -1104.838947251

              Constraints and their Current Values
                                        Value     Constraint
   Dihedral:        6   8   9  10        0.000        0.000
 Hessian Updated using BFGS Update

 38 Hessian modes will be used to form the next step
  Hessian Eigenvalues:
     0.016009    0.042501    0.045000    0.045000    0.045002    0.045004
     0.045012    0.045147    0.046939    0.156436    0.159950    0.159992
     0.159999    0.160072    0.160574    0.217108    0.221317    0.224750
     0.237846    0.250021    0.293423    0.294428    0.308255    0.312572
     0.324027    0.354783    0.355025    0.355130    0.355466    0.358279
     0.359121    0.390531    0.404895    0.443711    0.463687    0.484435
     0.497978    0.502817

 Minimum Search - Taking Simple RFO Step
 Searching for Lamda that Minimizes Along All modes
 Value Taken    Lamda =   0.00000000
 Step Taken.  Stepsize is  0.004089

                             Maximum     Tolerance    Cnvgd?
         Gradient           0.000094      0.000300     YES
         Displacement       0.002113      0.001200      NO
         Energy change     -0.000001      0.000001      NO


 New Cartesian Coordinates Obtained by Inverse Iteration

 Displacement from previous Coordinates is:  0.004784
 ----------------------------------------------------------------
             Standard Nuclear Orientation (Angstroms)
    I     Atom           X                Y                Z
 ----------------------------------------------------------------
    1      S       0.0291225689     0.0696771665     0.0345632113
    2      C       1.7623538360     0.0307195586    -0.0033314003
    3      H       2.3215369560     0.0384306441     0.9219150714
    4      C       2.2351750940    -0.0075992232    -1.2889756116
    5      H       3.2905161402    -0.0369898553    -1.5351496849
    6      C       1.1958391003    -0.0057986575    -2.2620110209
    7      H       1.3776444921    -0.0333360318    -3.3299142479
    8      C      -0.0727538665     0.0344385745    -1.7160390858
    9      C      -1.3452783397     0.0454731335    -2.4209907170
   10      C      -1.5544376811     0.0180331595    -3.7863279996
   11      H      -0.7451311074    -0.0174978530    -4.5060486744
   12      C      -2.9299465374     0.0408715421    -4.1528855625
   13      H      -3.2807525367     0.0251384753    -5.1785651037
   14      C      -3.7694145964     0.0856928853    -3.0708395406
   15      H      -4.8502233124     0.1108331197    -3.0551808768
   16      S      -2.8839445700     0.1010640418    -1.5800395365
 ----------------------------------------------------------------
 Nuclear Repulsion Energy =   631.8340922555 hartrees
 There are       43 alpha and       43 beta electrons
 Applying Cartesian multipole field
    Component          Value
    ---------          -----
     (2,0,0)        1.00000E-11
     (0,2,0)        2.00000E-11
     (0,0,2)       -3.00000E-12
 Nucleus-field energy     =     0.0000000097 hartrees
 Requested basis set is 6-31++G(d,p)
 There are 76 shells and 234 basis functions
 A cutoff of  1.0D-12 yielded   2527 shell pairs
 There are     24869 function pairs

 Q-Chem warning in module /project/projectdirs/jcesr/qchem/qc44/cnl_qc441/compile/cori/qc_src/libqints/qchem/aobasis.C, line 68:

 Using reconstructed effective core potential

 Smallest overlap matrix eigenvalue = 5.20E-07
 Linear dependence detected in AO basis
 Number of orthogonalized atomic orbitals = 233
 Maximum deviation from orthogonality = 1.183E-10
 Guess MOs from SCF MO coefficient file
 Reading MOs from coefficient file
 Reading MOs from coefficient file
 A restricted hybrid HF-DFT SCF calculation will be
 performed using Pulay DIIS extrapolation
 Exchange:     0.2000 Hartree-Fock + 0.0800 Slater + 0.7200 B88
 Correlation:  0.1900 VWN1RPA + 0.8100 LYP
 Using SG-1 standard quadrature grid
 SCF converges when DIIS error is below 1.0E-08
 Geometry optimization detected.  Setting ReadMinima to 0
 Setting SaveMinima to 0
 ---------------------------------------
  Cycle       Energy         DIIS Error
 ---------------------------------------
    1   -1104.8391870326      2.02E-05
    2   -1104.8389474691      2.37E-06
    3   -1104.8389473061      5.18E-06
    4   -1104.8389475174      3.77E-07
    5   -1104.8389475184      2.78E-07
    6   -1104.8389475179      6.29E-08
    7   -1104.8389475191      2.65E-08
    8   -1104.8389475194      4.40E-09 Convergence criterion met
 ---------------------------------------
 SCF time:  CPU 4.58 s  wall 4.31 s
 SCF   energy in the final basis set = -1104.8389475194
 Total energy in the final basis set = -1104.8389475194
 
 --------------------------------------------------------------
 
                    Orbital Energies (a.u.)
 --------------------------------------------------------------
 
 Alpha MOs
 -- Occupied --
-88.920 -88.920 -10.240 -10.240 -10.225 -10.225 -10.205 -10.205
-10.203 -10.203  -7.980  -7.980  -5.944  -5.944  -5.940  -5.940
 -5.937  -5.937  -0.901  -0.878  -0.772  -0.750  -0.737  -0.705
 -0.604  -0.580  -0.553  -0.533  -0.528  -0.477  -0.422  -0.419
 -0.407  -0.403  -0.402  -0.377  -0.374  -0.360  -0.343  -0.284
 -0.266  -0.257  -0.211
 -- Virtual --
 -0.060  -0.014  -0.003  -0.000   0.006   0.013   0.019   0.026
  0.026   0.036   0.041   0.044   0.052   0.061   0.066   0.073
  0.081   0.082   0.087   0.093   0.100   0.102   0.107   0.114
  0.114   0.123   0.127   0.128   0.137   0.138   0.144   0.150
  0.152   0.154   0.155   0.160   0.162   0.178   0.184   0.190
  0.191   0.196   0.199   0.205   0.208   0.213   0.233   0.237
  0.258   0.266   0.273   0.278   0.300   0.302   0.303   0.312
  0.312   0.313   0.344   0.345   0.366   0.379   0.394   0.438
  0.443   0.465   0.488   0.535   0.557   0.565   0.567   0.592
  0.593   0.626   0.643   0.653   0.656   0.667   0.669   0.684
  0.703   0.708   0.722   0.724   0.732   0.755   0.781   0.791
  0.807   0.814   0.831   0.834   0.883   0.926   0.926   0.943
  0.955   0.958   0.974   0.984   0.985   1.007   1.016   1.020
  1.027   1.030   1.078   1.088   1.107   1.125   1.146   1.168
  1.188   1.203   1.217   1.245   1.262   1.339   1.341   1.346
  1.355   1.366   1.369   1.448   1.498   1.539   1.550   1.597
  1.641   1.694   1.709   1.782   1.853   1.874   1.899   1.920
  1.923   1.983   1.994   2.012   2.019   2.074   2.096   2.121
  2.124   2.166   2.184   2.246   2.250   2.292   2.298   2.358
  2.366   2.414   2.455   2.478   2.485   2.491   2.509   2.543
  2.547   2.561   2.574   2.599   2.687   2.688   2.722   2.753
  2.807   2.854   2.959   2.980   3.140   3.218   3.270   3.273
  3.394   3.437   3.707   3.759   3.941   4.027   4.225   4.297
  4.314   4.343   4.399   4.551   4.644   4.735
 --------------------------------------------------------------
 
          Ground-State Mulliken Net Atomic Charges

     Atom                 Charge (a.u.)
  ----------------------------------------
      1 S                    -0.160816
      2 C                     0.026268
      3 H                     0.203311
      4 C                    -0.502227
      5 H                     0.117348
      6 C                     0.416854
      7 H                     0.102995
      8 C                    -0.202455
      9 C                    -0.197639
     10 C                     0.407807
     11 H                     0.102439
     12 C                    -0.499822
     13 H                     0.117288
     14 C                     0.024709
     15 H                     0.203353
     16 S                    -0.159414
  ----------------------------------------
  Sum of atomic charges =    -0.000000

 -----------------------------------------------------------------
                    Cartesian Multipole Moments
 -----------------------------------------------------------------
    Charge (ESU x 10^10)
                -0.0000
    Dipole Moment (Debye)
         X       0.5066      Y      -0.0330      Z      -0.9155
       Tot       1.0468
    Quadrupole Moments (Debye-Ang)
        XX     -63.3820     XY      -0.2565     YY     -78.9212
        XZ       2.7193     YZ       0.2415     ZZ     -62.7647
    Octopole Moments (Debye-Ang^2)
       XXX     158.7668    XXY      -2.6172    XYY      66.3803
       YYY     -11.3915    XXZ     107.1370    XYZ       0.7025
       YYZ     144.4133    XZZ      52.2550    YZZ      -4.4242
       ZZZ     342.3899
    Hexadecapole Moments (Debye-Ang^3)
      XXXX   -1837.2670   XXXY      12.0812   XXYY    -410.0064
      XYYY      22.4127   YYYY    -105.0914   XXXZ    -557.1484
      XXYZ       3.4844   XYYZ    -248.3092   YYYZ      18.3733
      XXZZ    -647.4391   XYZZ       5.8563   YYZZ    -460.0951
      XZZZ    -588.3030   YZZZ      21.3946   ZZZZ   -2090.9626
 -----------------------------------------------------------------
 Calculating analytic gradient of the SCF energy
 Gradient of SCF Energy
            1           2           3           4           5           6
    1   0.0000034   0.0000150  -0.0000090  -0.0000161  -0.0000005   0.0000207
    2  -0.0000277   0.0000066  -0.0000005   0.0000282  -0.0000239  -0.0000540
    3  -0.0000722   0.0000287   0.0000058  -0.0000125   0.0000072  -0.0000144
            7           8           9          10          11          12
    1   0.0000036  -0.0000059  -0.0000601  -0.0000012  -0.0000008   0.0000282
    2   0.0000134   0.0001279  -0.0001228   0.0000473  -0.0000117  -0.0000286
    3   0.0000047   0.0000742   0.0000543  -0.0000334   0.0000007   0.0000018
           13          14          15          16
    1  -0.0000019  -0.0000310   0.0000011   0.0000545
    2   0.0000223  -0.0000041   0.0000021   0.0000253
    3  -0.0000012   0.0000002   0.0000035  -0.0000473
 Max gradient component =       1.279E-04
 RMS gradient           =       3.786E-05
 Gradient time:  CPU 2.18 s  wall 2.11 s
 Geometry Optimization Parameters
   NAtoms,    NIC,     NZ,  NCons,   NDum,   NFix, NCnnct, MaxDiis
       16     111       0       1       0       0       0       0

 Cartesian Hessian Update
 Hessian Updated using BFGS Update


** CONSTRAINED OPTIMIZATION IN DELOCALIZED INTERNAL COORDINATES **
   Searching for a Minimum

   Optimization Cycle:   6

                       Coordinates (Angstroms)
     ATOM                X               Y               Z
      1  S         0.0291225689    0.0696771665    0.0345632113
      2  C         1.7623538360    0.0307195586   -0.0033314003
      3  H         2.3215369560    0.0384306441    0.9219150714
      4  C         2.2351750940   -0.0075992232   -1.2889756116
      5  H         3.2905161402   -0.0369898553   -1.5351496849
      6  C         1.1958391003   -0.0057986575   -2.2620110209
      7  H         1.3776444921   -0.0333360318   -3.3299142479
      8  C        -0.0727538665    0.0344385745   -1.7160390858
      9  C        -1.3452783397    0.0454731335   -2.4209907170
     10  C        -1.5544376811    0.0180331595   -3.7863279996
     11  H        -0.7451311074   -0.0174978530   -4.5060486744
     12  C        -2.9299465374    0.0408715421   -4.1528855625
     13  H        -3.2807525367    0.0251384753   -5.1785651037
     14  C        -3.7694145964    0.0856928853   -3.0708395406
     15  H        -4.8502233124    0.1108331197   -3.0551808768
     16  S        -2.8839445700    0.1010640418   -1.5800395365
   Point Group: c1    Number of degrees of freedom:    42


   Energy is  -1104.838947519

              Constraints and their Current Values
                                        Value     Constraint
   Dihedral:        6   8   9  10        0.000        0.000
 Hessian Updated using BFGS Update

 38 Hessian modes will be used to form the next step
  Hessian Eigenvalues:
     0.011884    0.037790    0.045000    0.045000    0.045004    0.045011
     0.045032    0.045467    0.046534    0.154901    0.159951    0.159992
     0.160000    0.160273    0.160696    0.213988    0.221316    0.228325
     0.237845    0.250016    0.293871    0.294522    0.296142    0.312569
     0.315695    0.354784    0.354993    0.355130    0.355379    0.358279
     0.359067    0.394060    0.404897    0.444247    0.463683    0.471022
     0.497978    0.502631

 Minimum Search - Taking Simple RFO Step
 Searching for Lamda that Minimizes Along All modes
 Value Taken    Lamda =   0.00000000
 Step Taken.  Stepsize is  0.003290

                             Maximum     Tolerance    Cnvgd?
         Gradient           0.000061      0.000300     YES
         Displacement       0.001944      0.001200      NO
         Energy change     -0.000000      0.000001     YES

 Final energy is   -1104.83894751940     


 ******************************
 **  OPTIMIZATION CONVERGED  **
 ******************************

                       Coordinates (Angstroms)
     ATOM                X               Y               Z
      1  S         0.0291225689    0.0696771665    0.0345632113
      2  C         1.7623538360    0.0307195586   -0.0033314003
      3  H         2.3215369560    0.0384306441    0.9219150714
      4  C         2.2351750940   -0.0075992232   -1.2889756116
      5  H         3.2905161402   -0.0369898553   -1.5351496849
      6  C         1.1958391003   -0.0057986575   -2.2620110209
      7  H         1.3776444921   -0.0333360318   -3.3299142479
      8  C        -0.0727538665    0.0344385745   -1.7160390858
      9  C        -1.3452783397    0.0454731335   -2.4209907170
     10  C        -1.5544376811    0.0180331595   -3.7863279996
     11  H        -0.7451311074   -0.0174978530   -4.5060486744
     12  C        -2.9299465374    0.0408715421   -4.1528855625
     13  H        -3.2807525367    0.0251384753   -5.1785651037
     14  C        -3.7694145964    0.0856928853   -3.0708395406
     15  H        -4.8502233124    0.1108331197   -3.0551808768
     16  S        -2.8839445700    0.1010640418   -1.5800395365

Z-matrix Print:
$molecule
0 1
S 
C  1 1.734083
H  2 1.081123 1 119.874910
C  2 1.370368 1 111.468688 3 179.995361 0
H  4 1.084071 2 123.345725 1 -179.947791 0
C  4 1.423735 2 112.909292 1 0.002658 0
H  6 1.083618 4 123.436828 2 -179.977287 0
C  6 1.381677 4 113.592796 2 0.019180 0
C  8 1.454784 6 127.724518 4 -179.908301 0
C  9 1.381538 8 127.674181 6 0.000000 0
H  10 1.083622 9 122.954481 8 0.073406 0
C  10 1.423696 9 113.603372 8 -179.927471 0
H  12 1.084127 10 123.778741 9 179.971625 0
C  12 1.370233 10 112.899550 9 0.002773 0
H  14 1.081214 12 128.653811 10 179.999161 0
S  14 1.734006 12 111.491576 10 0.013997 0
$end

 
 --------------------------------------------------------------
 
                    Orbital Energies (a.u.)
 --------------------------------------------------------------
 
 Alpha MOs
 -- Occupied --
-88.920 -88.920 -10.240 -10.240 -10.225 -10.225 -10.205 -10.205
-10.203 -10.203  -7.980  -7.980  -5.944  -5.944  -5.940  -5.940
 -5.937  -5.937  -0.901  -0.878  -0.772  -0.750  -0.737  -0.705
 -0.604  -0.580  -0.553  -0.533  -0.528  -0.477  -0.422  -0.419
 -0.407  -0.403  -0.402  -0.377  -0.374  -0.360  -0.343  -0.284
 -0.266  -0.257  -0.211
 -- Virtual --
 -0.060  -0.014  -0.003  -0.000   0.006   0.013   0.019   0.026
  0.026   0.036   0.041   0.044   0.052   0.061   0.066   0.073
  0.081   0.082   0.087   0.093   0.100   0.102   0.107   0.114
  0.114   0.123   0.127   0.128   0.137   0.138   0.144   0.150
  0.152   0.154   0.155   0.160   0.162   0.178   0.184   0.190
  0.191   0.196   0.199   0.205   0.208   0.213   0.233   0.237
  0.258   0.266   0.273   0.278   0.300   0.302   0.303   0.312
  0.312   0.313   0.344   0.345   0.366   0.379   0.394   0.438
  0.443   0.465   0.488   0.535   0.557   0.565   0.567   0.592
  0.593   0.626   0.643   0.653   0.656   0.667   0.669   0.684
  0.703   0.708   0.722   0.724   0.732   0.755   0.781   0.791
  0.807   0.814   0.831   0.834   0.883   0.926   0.926   0.943
  0.955   0.958   0.974   0.984   0.985   1.007   1.016   1.020
  1.027   1.030   1.078   1.088   1.107   1.125   1.146   1.168
  1.188   1.203   1.217   1.245   1.262   1.339   1.341   1.346
  1.355   1.366   1.369   1.448   1.498   1.539   1.550   1.597
  1.641   1.694   1.709   1.782   1.853   1.874   1.899   1.920
  1.923   1.983   1.994   2.012   2.019   2.074   2.096   2.121
  2.124   2.166   2.184   2.246   2.250   2.292   2.298   2.358
  2.366   2.414   2.455   2.478   2.485   2.491   2.509   2.543
  2.547   2.561   2.574   2.599   2.687   2.688   2.722   2.753
  2.807   2.854   2.959   2.980   3.140   3.218   3.270   3.273
  3.394   3.437   3.707   3.759   3.941   4.027   4.225   4.297
  4.314   4.343   4.399   4.551   4.644   4.735
 --------------------------------------------------------------
 
          Ground-State Mulliken Net Atomic Charges

     Atom                 Charge (a.u.)
  ----------------------------------------
      1 S                    -0.160816
      2 C                     0.026268
      3 H                     0.203311
      4 C                    -0.502227
      5 H                     0.117348
      6 C                     0.416854
      7 H                     0.102995
      8 C                    -0.202455
      9 C                    -0.197639
     10 C                     0.407807
     11 H                     0.102439
     12 C                    -0.499822
     13 H                     0.117288
     14 C                     0.024709
     15 H                     0.203353
     16 S                    -0.159414
  ----------------------------------------
  Sum of atomic charges =    -0.000000

 -----------------------------------------------------------------
                    Cartesian Multipole Moments
 -----------------------------------------------------------------
    Charge (ESU x 10^10)
                -0.0000
    Dipole Moment (Debye)
         X       0.5066      Y      -0.0330      Z      -0.9155
       Tot       1.0468
    Quadrupole Moments (Debye-Ang)
        XX     -63.3820     XY      -0.2565     YY     -78.9212
        XZ       2.7193     YZ       0.2415     ZZ     -62.7647
    Octopole Moments (Debye-Ang^2)
       XXX     158.7668    XXY      -2.6172    XYY      66.3803
       YYY     -11.3915    XXZ     107.1370    XYZ       0.7025
       YYZ     144.4133    XZZ      52.2550    YZZ      -4.4242
       ZZZ     342.3899
    Hexadecapole Moments (Debye-Ang^3)
      XXXX   -1837.2670   XXXY      12.0812   XXYY    -410.0064
      XYYY      22.4127   YYYY    -105.0914   XXXZ    -557.1484
      XXYZ       3.4844   XYYZ    -248.3092   YYYZ      18.3733
      XXZZ    -647.4391   XYZZ       5.8563   YYZZ    -460.0951
      XZZZ    -588.3030   YZZZ      21.3946   ZZZZ   -2090.9626
 -----------------------------------------------------------------
Archival summary:
1\1\nid00447\OPT\ProcedureUnspecified\BasisUnspecified\286\bwood\WedMay3102:25:382017WedMay3102:25:382017\0\\#,OPT,ProcedureUnspecified,BasisUnspecified,\\0,1\S\C,1,1.73408\H,2,1.08112,1,119.875\C,2,1.37037,1,111.469,3,179.995,0\H,4,1.08407,2,123.346,1,-179.948,0\C,4,1.42373,2,112.909,1,0.00265772,0\H,6,1.08362,4,123.437,2,-179.977,0\C,6,1.38168,4,113.593,2,0.0191798,0\C,8,1.45478,6,127.725,4,-179.908,0\C,9,1.38154,8,127.674,6,0,0\H,10,1.08362,9,122.954,8,0.0734055,0\C,10,1.4237,9,113.603,8,-179.927,0\H,12,1.08413,10,123.779,9,179.972,0\C,12,1.37023,10,112.9,9,0.00277315,0\H,14,1.08121,12,128.654,10,179.999,0\S,14,1.73401,12,111.492,10,0.0139972,0\\\@

 Total job time:  49.71s(wall), 49.87s(cpu) 
 Wed May 31 02:25:38 2017

        *************************************************************
        *                                                           *
        *  Thank you very much for using Q-Chem.  Have a nice day.  *
        *                                                           *
        *************************************************************


0 sent ACK to 0 
now end server 0 ... 
