srun -N 1 --ntasks-per-node 1 --cpus-per-task 64 --cpu_bind=cores --nodelist nid01265 /global/project/projectdirs/jcesr/qchem/qc44/cnl_qc441/dist/exe/qcprog.cori.haswell.exe .pt_mp2_-140.0.in.29612.qcin.1 /dev/shm/eg_qchem/qchem29612/
Process 0 of 1 is on nid01265 - thread support 0
initial socket setup ...start
initial socket setup ...done 
now start server 0 ... 
nid01265 10.128.4
Q-Chem Developer Version! Running on 10.128.4.*
                  Welcome to Q-Chem
     A Quantum Leap Into The Future Of Chemistry


 Q-Chem 4.4, Q-Chem, Inc., Pleasanton, CA (2016)

 Y. Shao,  Z. Gan,  E. Epifanovsky,  A. T. B. Gilbert,  M. Wormit,  
 J. Kussmann,  A. W. Lange,  A. Behn,  J. Deng,  X. Feng,  D. Ghosh,  
 M. Goldey,  P. R. Horn,  L. D. Jacobson,  I. Kaliman,  F.Rob,  
 R. Z. Khaliullin,  T. Kus,  A. Landau,  J. Liu,  E. I. Proynov,  Y. M. Rhee,  
 R. M. Richard,  M. A. Rohrdanz,  R. P. Steele,  E. J. Sundstrom,  
 H. L. Woodcock III,  P. M. Zimmerman,  D. Zuev,  B. Albrecht,  E. Alguire,  
 B. Austin,  S. A. Baeppler,  G. J. O. Beran,  Y. A. Bernard,  E. Berquist,  
 K. Brandhorst,  K. B. Bravaya,  S. T. Brown,  D. Casanova,  C.-M. Chang,  
 Y. Chen,  S. H. Chien,  K. D. Closser,  M. P. Coons,  D. L. Crittenden,  
 S. Dasgupta,  M. Diedenhofen,  R. A. DiStasio Jr.,  H. Do,  A. D. Dutoi,  
 R. G. Edgar,  P.-T. Fang,  S. Fatehi,  Q. Feng,  L. Fusti-Molnar,  
 A. Ghysels,  A. Golubeva-Zadorozhnaya,  J. Gomes,  A. Gunina,  
 M. W. D. Hanson-Heine,  P. H. P. Harbach,  A. W. Hauser,  E. G. Hohenstein,  
 Z. C. Holden,  K. Hui,  T.-C. Jagau,  H. Ji,  B. Kaduk,  K. Khistyaev,  
 Jaehoon Kim,  Jihan Kim,  R. A. King,  P. Klunzinger,  D. Kosenkov,  
 T. Kowalczyk,  C. M. Krauter,  A. Kunitsa,  K. U. Lao,  A. Laurent,  
 K. V. Lawler,  D. Lefrancois,  S. Lehtola,  S. V. Levchenko,  C. Y. Lin,  
 Y.-S. Lin,  F. Liu,  E. Livshits,  R. C. Lochan,  A. Luenser,  P. Manohar,  
 S. F. Manzer,  S.-P. Mao,  Y. Mao,  N. Mardirossian,  A. V. Marenich,  
 L. A. Martinez-Martinez,  S. A. Maurer,  N. J. Mayhall,  J.-M. Mewes,  
 A. F. Morrison,  K. Nanda,  C. M. Oana,  R. Olivares-Amaya,  D. P. O'Neill,  
 J. A. Parkhill,  T. M. Perrine,  R. Peverati,  P. A. Pieniazek,  F. Plasser,  
 A. Prociuk,  D. R. Rehn,  E. Rosta,  N. J. Russ,  N. Sergueev,  
 S. M. Sharada,  S. Sharma,  D. W. Small,  A. Sodt,  T. Stauch,  T. Stein,  
 D. Stuck,  Y.-C. Su,  A. J. W. Thom,  T. Tsuchimochi,  L. Vogt,  O. Vydrov,  
 T. Wang,  M. A. Watson,  J. Wenzel,  A. White,  C. F. Williams,  
 V. Vanovschi,  S. Yeganeh,  S. R. Yost,  Z.-Q. You,  I. Y. Zhang,  X. Zhang,  
 Y. Zhao,  B. R. Brooks,  G. K. L. Chan,  D. M. Chipman,  C. J. Cramer,  
 W. A. Goddard III,  M. S. Gordon,  W. J. Hehre,  A. Klamt,  
 H. F. Schaefer III,  M. W. Schmidt,  C. D. Sherrill,  D. G. Truhlar,  
 A. Warshel,  X. Xu,  A. Aspuru-Guzik,  R. Baer,  A. T. Bell,  N. A. Besley,  
 J.-D. Chai,  A. Dreuw,  B. D. Dunietz,  T. R. Furlani,  S. R. Gwaltney,  
 C.-P. Hsu,  Y. Jung,  J. Kong,  D. S. Lambrecht,  W. Liang,  C. Ochsenfeld,  
 V. A. Rassolov,  L. V. Slipchenko,  J. E. Subotnik,  T. Van Voorhis,  
 J. M. Herbert,  A. I. Krylov,  P. M. W. Gill,  M. Head-Gordon

 Contributors to earlier versions of Q-Chem not listed above: 
 R. D. Adamson,  J. Baker,  E. F. C. Byrd,  A. K. Chakraborty,  C.-L. Cheng,  
 H. Dachsel,  R. J. Doerksen,  G. Hawkins,  A. Heyden,  S. Hirata,  
 G. Kedziora,  F. J. Keil,  C. Kelley,  P. P. Korambath,  W. Kurlancheek,  
 A. M. Lee,  M. S. Lee,  D. Liotard,  I. Lotan,  P. E. Maslen,  N. Nair,  
 D. Neuhauser,  R. Olson,  B. Peters,  J. Ritchie,  N. E. Schultz,  
 N. Shenvi,  A. C. Simmonett,  K. S. Thanthiriwatte,  Q. Wu,  W. Zhang

 Please cite Q-Chem as follows:
 Y. Shao et al., Mol. Phys. 113, 184-215 (2015)
 DOI: 10.1080/00268976.2014.952696

 Q-Chem 4.4.1 for Intel X86 EM64T Linux

 Parts of Q-Chem use Armadillo 5.200.1 (Boston Tea Smuggler).
 http://arma.sourceforge.net/

 Q-Chem begins on Mon Mar  6 14:00:23 2017  

Host: nid01196
0

     Scratch files written to /dev/shm/eg_qchem/qchem29612//
 Parallel job on  1  processors

Checking the input file for inconsistencies... 	...done.

--------------------------------------------------------------
User input:
--------------------------------------------------------------
$molecule
 0  1
 S           1.80900300       -1.15938900        0.25896800
 C           3.16466000       -0.14246800        0.05606700
 C           2.78757500        1.14089100       -0.25226100
 C           1.39402000        1.28822000       -0.33563400
 C           0.70898100        0.11689900       -0.08798100
 H           0.89277600        2.20524100       -0.58940400
 C          -0.70898100       -0.11689900       -0.08798100
 S          -1.71946910        0.61637464       -1.27143216
 C          -1.45966417       -0.89009451        0.77297591
 C          -3.12175837       -0.11772616       -0.63285261
 C          -2.82910267       -0.88902975        0.46428593
 H          -3.57441961       -1.43505899        1.01248044
 H           4.15569300       -0.53353100        0.17259300
 H           3.49202900        1.93475000       -0.41867900
 H          -4.07642660        0.05278806       -1.08912935
 H          -1.01745740       -1.44906050        1.57832209
$end


$rem
         jobtype = opt
        exchange = hf
           basis = cc-pvtz
  max_scf_cycles = 100
      mem_static = 6200
       mem_total = 62000
          method = mp2
$end


$opt
CONSTRAINT
tors 4 5 7 9 -140.0
ENDCONSTRAINT
$end

--------------------------------------------------------------
 Atom  10: ( -3.1581986356,  0.1560478781, -0.1203733545)
         ->( -3.1581986404,  0.1560478793, -0.1203733565)
 Atom  15: ( -4.1400689350,  0.5345145530, -0.3237171108)
         ->( -4.1400689387,  0.5345145532, -0.3237171045)
 ----------------------------------------------------------------
             Standard Nuclear Orientation (Angstroms)
    I     Atom           X                Y                Z
 ----------------------------------------------------------------
    1      S       1.7865820756    -1.1377691376    -0.3811307299
    2      C       3.1581986404    -0.1560478793    -0.1203733565
    3      C       2.8055042052     1.0837054959     0.3517365669
    4      C       1.4163318414     1.2342608968     0.4865907262
    5      C       0.7104690413     0.1074856999     0.1195230377
    6      H       0.9307143378     2.1352418348     0.8167138312
    7      C      -0.7104690414    -0.1074857018     0.1195230369
    8      S      -1.7865820780     1.1377691387    -0.3811307297
    9      C      -1.4163318386    -1.2342608987     0.4865907234
   10      C      -3.1581986404     0.1560478793    -0.1203733565
   11      C      -2.8055042072    -1.0837054940     0.3517365682
   12      H      -3.5232057656    -1.8497709598     0.5802331063
   13      H       4.1400689387    -0.5345145532    -0.3237171045
   14      H       3.5232057675     1.8497709627     0.5802331068
   15      H      -4.1400689387     0.5345145532    -0.3237171045
   16      H      -0.9307143379    -2.1352418358     0.8167138354
 ----------------------------------------------------------------
 Molecular Point Group                 C2    NOp =  2
 Largest Abelian Subgroup              C2    NOp =  2
 Nuclear Repulsion Energy =   636.2620855766 hartrees
 There are       43 alpha and       43 beta electrons
 Requested basis set is cc-pVTZ
 There are 140 shells and 392 basis functions

 Total QAlloc Memory Limit  62000 MB
 Mega-Array Size      6061 MB
 MEM_STATIC part      6200 MB
 A cutoff of  1.0D-11 yielded   8033 shell pairs
 There are     62501 function pairs (     81469 Cartesian)
 
 -------------------------------------------------------
 OpenMP Integral Computing Module                       
 Release: version 1.0, May 2013, Q-Chem Inc. Pittsburgh 
 -------------------------------------------------------
 Integral Job Info:
 Integral job number is                      11
 Integral operator is                         1
 short-range coefficients                     0
 long-range coefficients              100000000
 Omega coefficients                           0
 if combine SR and LR in K                    0
 Integral screening is                        0
 Integral computing path is                   2
 max size of driver memory is            800000
 size of driver memory is                776718
 size of scratch memory is             26248924
 max col of scratch BK array              10000
 max len of scratch array in speh3          662
 max len of scratch index in speh4           32
 max int batch size is                      520
 min int batch size is                       52
 fixed nKL is                                52
 max L of basis functions is                  3
 order of int derivative is                   0
 number of shells is                        140
 number of basis is                         448
 number of cartesian basis is               448
 number of contracted shell pairs          8033
 number of primitive shell pairs          28585
 maxK2 (contraction) of shell pair          121
 max number of K2 of shell pair               1
 max number of CS2 of shell pair           1056
 max number of PS2 of shell pair           3080
 mem total for path MDJ                  223748
 -------------------------------------------------------
 Smallest overlap matrix eigenvalue = 8.13E-05

 Scale SEOQF with 1.000000e-01/1.000000e-01/1.000000e+00

 Standard Electronic Orientation quadrupole field applied
 Nucleus-field energy     =     0.0000000087 hartrees
 Guess from superposition of atomic densities
 Warning:  Energy on first SCF cycle will be non-variational
 A restricted Hartree-Fock SCF calculation will be
 performed using Pulay DIIS extrapolation
 SCF converges when DIIS error is below 1.0E-08
 using 16 threads for integral computing 
 ---------------------------------------
  Cycle       Energy         DIIS Error
 ---------------------------------------
    1   -1105.9993426499      2.99E-02
    2   -1091.1189417357      1.70E-02
    3   -1099.5398891302      9.76E-03
    4   -1101.5213033194      1.71E-03
    5   -1101.5646316348      1.26E-03
    6   -1101.5970555340      2.14E-04
    7   -1101.5985232510      4.76E-05
    8   -1101.5986937032      2.28E-05
    9   -1101.5987355736      1.04E-05
   10   -1101.5987463651      3.86E-06
   11   -1101.5987477502      1.47E-06
   12   -1101.5987478978      3.81E-07
   13   -1101.5987479225      1.32E-07
   14   -1101.5987479256      3.84E-08
   15   -1101.5987479259      9.64E-09 Convergence criterion met
 ---------------------------------------
 SCF time:  CPU 607.10 s  wall 37.99 s
 SCF   energy in the final basis set = -1101.5987479259
 Total energy in the final basis set = -1101.5987479259
 
 Components of the MP2 correlation energy:
        aaaa  correlation energy =        -0.2322668769 au
        abab  correlation energy =        -1.3502540166 au
        bbbb  correlation energy =        -0.2322668769 au
        non-Brillouin singles    =        -0.0000000000 au

 Total  MP2   correlation energy =        -1.8147877703 au
        MP2         total energy =     -1103.4135356962 au

  Entering Z-vector solver.
   1         0           1      0.000264    0.000264
   2         0           1      0.000116    0.000116
   3         0           1      0.000049    0.000049
   4         0           1      0.000025    0.000025
   5         0           1      0.000006    0.000006
   6         0           1      0.000002    0.000002
   7         1           0      0.000000    0.000000    Roots Converged
 
 --------------------------------------------------------------
             Orbital Energies (a.u.) and Symmetries
 --------------------------------------------------------------
 Warning : Irrep of orbital(   1) could not be determined
 Warning : Irrep of orbital(   2) could not be determined
 
 Alpha MOs, Restricted
 -- Occupied --                  
-91.985 -91.985 -11.275 -11.274 -11.261 -11.261 -11.238 -11.238
  0 xxx   0 xxx   1 A     1 B     2 B     2 A     3 A     3 B                  
-11.237 -11.237  -8.986  -8.986  -6.667  -6.667  -6.667  -6.667
  4 B     4 A     5 A     5 B     6 B     6 A     7 A     7 B                  
 -6.666  -6.666  -1.196  -1.166  -1.036  -0.998  -0.986  -0.948
  8 B     8 A     9 A     9 B    10 A    10 B    11 A    11 B                  
 -0.809  -0.777  -0.748  -0.718  -0.706  -0.645  -0.571  -0.571
 12 A    12 B    13 A    13 B    14 A    14 B    15 A    15 B                  
 -0.560  -0.555  -0.545  -0.513  -0.512  -0.482  -0.469  -0.365
 16 A    16 B    17 A    17 B    18 A    18 B    19 A    20 A                  
 -0.351  -0.350  -0.286
 19 B    21 A    20 B                                                          
 -- Virtual --                   
  0.081   0.138   0.149   0.153   0.162   0.171   0.184   0.189
 22 A    21 B    22 B    23 A    24 A    23 B    24 B    25 A                  
  0.193   0.200   0.214   0.230   0.252   0.264   0.322   0.336
 26 A    25 B    27 A    26 B    27 B    28 A    28 B    29 A                  
  0.349   0.354   0.365   0.371   0.399   0.403   0.426   0.436
 30 A    29 B    30 B    31 A    32 A    31 B    32 B    33 A                  
  0.447   0.449   0.455   0.464   0.479   0.489   0.517   0.519
 33 B    34 A    34 B    35 A    36 A    35 B    37 A    36 B                  
  0.529   0.532   0.534   0.537   0.548   0.549   0.556   0.565
 37 B    38 A    38 B    39 A    39 B    40 A    40 B    41 B                  
  0.571   0.594   0.596   0.601   0.605   0.613   0.624   0.626
 41 A    42 A    42 B    43 A    43 B    44 A    44 B    45 A                  
  0.632   0.645   0.650   0.665   0.673   0.679   0.703   0.704
 45 B    46 B    46 A    47 A    48 A    47 B    48 B    49 A                  
  0.765   0.775   0.780   0.791   0.812   0.835   0.836   0.842
 50 A    49 B    50 B    51 A    51 B    52 B    53 B    52 A                  
  0.858   0.870   0.895   0.895   0.905   0.908   0.954   0.955
 54 B    53 A    55 B    54 A    55 A    56 A    56 B    57 A                  
  0.981   0.997   1.004   1.018   1.020   1.027   1.073   1.073
 58 A    57 B    59 A    58 B    60 A    59 B    61 A    60 B                  
  1.096   1.100   1.113   1.113   1.149   1.158   1.169   1.172
 61 B    62 A    63 A    62 B    63 B    64 A    64 B    65 A                  
  1.178   1.195   1.202   1.224   1.244   1.250   1.265   1.285
 65 B    66 A    66 B    67 A    67 B    68 A    68 B    69 A                  
  1.290   1.314   1.341   1.349   1.388   1.390   1.415   1.437
 69 B    70 A    71 A    70 B    71 B    72 A    72 B    73 A                  
  1.456   1.458   1.482   1.486   1.501   1.508   1.512   1.531
 73 B    74 A    74 B    75 A    75 B    76 B    76 A    77 A                  
  1.531   1.558   1.567   1.585   1.586   1.616   1.624   1.642
 77 B    78 A    78 B    79 A    79 B    80 A    80 B    81 A                  
  1.678   1.691   1.720   1.732   1.750   1.774   1.775   1.843
 81 B    82 B    82 A    83 B    83 A    84 B    84 A    85 A                  
  1.844   1.852   1.863   1.894   1.898   1.925   1.941   1.945
 85 B    86 A    86 B    87 B    87 A    88 B    88 A    89 B                  
  1.948   1.989   2.038   2.051   2.062   2.089   2.128   2.155
 89 A    90 B    90 A    91 B    91 A    92 A    92 B    93 A                  
  2.179   2.181   2.203   2.206   2.237   2.259   2.267   2.278
 93 B    94 A    94 B    95 B    95 A    96 A    96 B    97 A                  
  2.283   2.311   2.329   2.384   2.403   2.443   2.446   2.448
 97 B    98 B    98 A    99 B    99 A   100 A   100 B   101 A                  
  2.473   2.494   2.521   2.525   2.530   2.564   2.582   2.597
101 B   102 A   103 A   102 B   103 B   104 B   104 A   105 A                  
  2.636   2.672   2.696   2.705   2.717   2.734   2.751   2.763
105 B   106 B   106 A   107 B   108 B   107 A   108 A   109 B                  
  2.764   2.768   2.785   2.787   2.798   2.843   2.885   2.898
109 A   110 B   110 A   111 B   111 A   112 A   112 B   113 A                  
  2.903   2.928   2.947   2.957   2.998   3.011   3.015   3.022
113 B   114 B   114 A   115 A   115 B   116 B   116 A   117 A                  
  3.024   3.062   3.066   3.130   3.154   3.155   3.157   3.196
117 B   118 B   118 A   119 A   120 A   119 B   121 A   120 B                  
  3.204   3.209   3.243   3.251   3.267   3.268   3.273   3.287
122 A   121 B   123 A   122 B   124 A   123 B   125 A   124 B                  
  3.304   3.308   3.328   3.331   3.340   3.341   3.378   3.388
126 A   125 B   126 B   127 A   127 B   128 A   129 A   128 B                  
  3.417   3.422   3.429   3.441   3.443   3.450   3.467   3.484
129 B   130 A   130 B   131 B   131 A   132 A   133 A   132 B                  
  3.484   3.497   3.502   3.510   3.513   3.527   3.532   3.540
134 A   133 B   135 A   134 B   136 A   135 B   136 B   137 A                  
  3.546   3.562   3.575   3.589   3.594   3.607   3.642   3.664
137 B   138 A   139 A   140 A   138 B   141 A   139 B   140 B                  
  3.700   3.701   3.716   3.729   3.735   3.774   3.779   3.784
141 B   142 A   142 B   143 A   144 A   143 B   145 A   144 B                  
  3.830   3.849   3.859   3.882   3.890   3.908   3.928   3.935
145 B   146 A   146 B   147 A   147 B   148 A   149 A   148 B                  
  3.971   3.983   4.000   4.001   4.014   4.022   4.041   4.048
150 A   149 B   151 A   150 B   151 B   152 A   152 B   153 A                  
  4.088   4.112   4.120   4.143   4.147   4.173   4.182   4.189
153 B   154 A   154 B   155 A   155 B   156 A   156 B   157 A                  
  4.206   4.217   4.221   4.265   4.279   4.284   4.301   4.328
157 B   158 A   159 A   158 B   160 A   159 B   160 B   161 A                  
  4.351   4.364   4.374   4.412   4.421   4.461   4.519   4.540
162 A   161 B   163 A   162 B   163 B   164 A   165 A   164 B                  
  4.546   4.575   4.606   4.616   4.644   4.669   4.689   4.696
165 B   166 A   167 A   166 B   167 B   168 A   168 B   169 A                  
  4.718   4.726   4.753   4.781   4.783   4.818   4.829   4.878
169 B   170 A   170 B   171 B   171 A   172 A   172 B   173 B                  
  4.894   4.982   4.987   5.002   5.036   5.054   5.063   5.083
173 A   174 A   174 B   175 B   175 A   176 B   176 A   177 B                  
  5.087   5.118   5.195   5.248   5.254   5.293   5.314   5.385
177 A   178 A   178 B   179 A   179 B   180 B   180 A   181 A                  
  5.398   5.414   5.427   5.500   5.556   5.605   5.642   5.673
181 B   182 A   182 B   183 A   183 B   184 A   185 A   184 B                  
  5.766   5.927   5.940   6.062   6.091   6.145   6.169   6.229
185 B   186 A   186 B   187 A   187 B   188 A   188 B   189 B                  
  6.255   6.549   6.566   6.740   6.745   9.518  10.798  11.787
189 A   190 A   190 B   191 A   191 B   192 A   192 B   193 A                  
 12.316  13.588  13.621  14.623  14.676
193 B   194 A   194 B   195 B   195 A                                          
 
 Beta MOs, Restricted
 -- Occupied --                  
-91.985 -91.985 -11.275 -11.274 -11.261 -11.261 -11.238 -11.238
  0 xxx   0 xxx   1 A     1 B     2 B     2 A     3 A     3 B                  
-11.237 -11.237  -8.986  -8.986  -6.667  -6.667  -6.667  -6.667
  4 B     4 A     5 A     5 B     6 B     6 A     7 A     7 B                  
 -6.666  -6.666  -1.196  -1.166  -1.036  -0.998  -0.986  -0.948
  8 B     8 A     9 A     9 B    10 A    10 B    11 A    11 B                  
 -0.809  -0.777  -0.748  -0.718  -0.706  -0.645  -0.571  -0.571
 12 A    12 B    13 A    13 B    14 A    14 B    15 A    15 B                  
 -0.560  -0.555  -0.545  -0.513  -0.512  -0.482  -0.469  -0.365
 16 A    16 B    17 A    17 B    18 A    18 B    19 A    20 A                  
 -0.351  -0.350  -0.286
 19 B    21 A    20 B                                                          
 -- Virtual --                   
  0.081   0.138   0.149   0.153   0.162   0.171   0.184   0.189
 22 A    21 B    22 B    23 A    24 A    23 B    24 B    25 A                  
  0.193   0.200   0.214   0.230   0.252   0.264   0.322   0.336
 26 A    25 B    27 A    26 B    27 B    28 A    28 B    29 A                  
  0.349   0.354   0.365   0.371   0.399   0.403   0.426   0.436
 30 A    29 B    30 B    31 A    32 A    31 B    32 B    33 A                  
  0.447   0.449   0.455   0.464   0.479   0.489   0.517   0.519
 33 B    34 A    34 B    35 A    36 A    35 B    37 A    36 B                  
  0.529   0.532   0.534   0.537   0.548   0.549   0.556   0.565
 37 B    38 A    38 B    39 A    39 B    40 A    40 B    41 B                  
  0.571   0.594   0.596   0.601   0.605   0.613   0.624   0.626
 41 A    42 A    42 B    43 A    43 B    44 A    44 B    45 A                  
  0.632   0.645   0.650   0.665   0.673   0.679   0.703   0.704
 45 B    46 B    46 A    47 A    48 A    47 B    48 B    49 A                  
  0.765   0.775   0.780   0.791   0.812   0.835   0.836   0.842
 50 A    49 B    50 B    51 A    51 B    52 B    53 B    52 A                  
  0.858   0.870   0.895   0.895   0.905   0.908   0.954   0.955
 54 B    53 A    55 B    54 A    55 A    56 A    56 B    57 A                  
  0.981   0.997   1.004   1.018   1.020   1.027   1.073   1.073
 58 A    57 B    59 A    58 B    60 A    59 B    61 A    60 B                  
  1.096   1.100   1.113   1.113   1.149   1.158   1.169   1.172
 61 B    62 A    63 A    62 B    63 B    64 A    64 B    65 A                  
  1.178   1.195   1.202   1.224   1.244   1.250   1.265   1.285
 65 B    66 A    66 B    67 A    67 B    68 A    68 B    69 A                  
  1.290   1.314   1.341   1.349   1.388   1.390   1.415   1.437
 69 B    70 A    71 A    70 B    71 B    72 A    72 B    73 A                  
  1.456   1.458   1.482   1.486   1.501   1.508   1.512   1.531
 73 B    74 A    74 B    75 A    75 B    76 B    76 A    77 A                  
  1.531   1.558   1.567   1.585   1.586   1.616   1.624   1.642
 77 B    78 A    78 B    79 A    79 B    80 A    80 B    81 A                  
  1.678   1.691   1.720   1.732   1.750   1.774   1.775   1.843
 81 B    82 B    82 A    83 B    83 A    84 B    84 A    85 A                  
  1.844   1.852   1.863   1.894   1.898   1.925   1.941   1.945
 85 B    86 A    86 B    87 B    87 A    88 B    88 A    89 B                  
  1.948   1.989   2.038   2.051   2.062   2.089   2.128   2.155
 89 A    90 B    90 A    91 B    91 A    92 A    92 B    93 A                  
  2.179   2.181   2.203   2.206   2.237   2.259   2.267   2.278
 93 B    94 A    94 B    95 B    95 A    96 A    96 B    97 A                  
  2.283   2.311   2.329   2.384   2.403   2.443   2.446   2.448
 97 B    98 B    98 A    99 B    99 A   100 A   100 B   101 A                  
  2.473   2.494   2.521   2.525   2.530   2.564   2.582   2.597
101 B   102 A   103 A   102 B   103 B   104 B   104 A   105 A                  
  2.636   2.672   2.696   2.705   2.717   2.734   2.751   2.763
105 B   106 B   106 A   107 B   108 B   107 A   108 A   109 B                  
  2.764   2.768   2.785   2.787   2.798   2.843   2.885   2.898
109 A   110 B   110 A   111 B   111 A   112 A   112 B   113 A                  
  2.903   2.928   2.947   2.957   2.998   3.011   3.015   3.022
113 B   114 B   114 A   115 A   115 B   116 B   116 A   117 A                  
  3.024   3.062   3.066   3.130   3.154   3.155   3.157   3.196
117 B   118 B   118 A   119 A   120 A   119 B   121 A   120 B                  
  3.204   3.209   3.243   3.251   3.267   3.268   3.273   3.287
122 A   121 B   123 A   122 B   124 A   123 B   125 A   124 B                  
  3.304   3.308   3.328   3.331   3.340   3.341   3.378   3.388
126 A   125 B   126 B   127 A   127 B   128 A   129 A   128 B                  
  3.417   3.422   3.429   3.441   3.443   3.450   3.467   3.484
129 B   130 A   130 B   131 B   131 A   132 A   133 A   132 B                  
  3.484   3.497   3.502   3.510   3.513   3.527   3.532   3.540
134 A   133 B   135 A   134 B   136 A   135 B   136 B   137 A                  
  3.546   3.562   3.575   3.589   3.594   3.607   3.642   3.664
137 B   138 A   139 A   140 A   138 B   141 A   139 B   140 B                  
  3.700   3.701   3.716   3.729   3.735   3.774   3.779   3.784
141 B   142 A   142 B   143 A   144 A   143 B   145 A   144 B                  
  3.830   3.849   3.859   3.882   3.890   3.908   3.928   3.935
145 B   146 A   146 B   147 A   147 B   148 A   149 A   148 B                  
  3.971   3.983   4.000   4.001   4.014   4.022   4.041   4.048
150 A   149 B   151 A   150 B   151 B   152 A   152 B   153 A                  
  4.088   4.112   4.120   4.143   4.147   4.173   4.182   4.189
153 B   154 A   154 B   155 A   155 B   156 A   156 B   157 A                  
  4.206   4.217   4.221   4.265   4.279   4.284   4.301   4.328
157 B   158 A   159 A   158 B   160 A   159 B   160 B   161 A                  
  4.351   4.364   4.374   4.412   4.421   4.461   4.519   4.540
162 A   161 B   163 A   162 B   163 B   164 A   165 A   164 B                  
  4.546   4.575   4.606   4.616   4.644   4.669   4.689   4.696
165 B   166 A   167 A   166 B   167 B   168 A   168 B   169 A                  
  4.718   4.726   4.753   4.781   4.783   4.818   4.829   4.878
169 B   170 A   170 B   171 B   171 A   172 A   172 B   173 B                  
  4.894   4.982   4.987   5.002   5.036   5.054   5.063   5.083
173 A   174 A   174 B   175 B   175 A   176 B   176 A   177 B                  
  5.087   5.118   5.195   5.248   5.254   5.293   5.314   5.385
177 A   178 A   178 B   179 A   179 B   180 B   180 A   181 A                  
  5.398   5.414   5.427   5.500   5.556   5.605   5.642   5.673
181 B   182 A   182 B   183 A   183 B   184 A   185 A   184 B                  
  5.766   5.927   5.940   6.062   6.091   6.145   6.169   6.229
185 B   186 A   186 B   187 A   187 B   188 A   188 B   189 B                  
  6.255   6.549   6.566   6.740   6.745   9.518  10.798  11.787
189 A   190 A   190 B   191 A   191 B   192 A   192 B   193 A                  
 12.316  13.588  13.621  14.623  14.676
193 B   194 A   194 B   195 B   195 A                                          
 --------------------------------------------------------------
 
          Ground-State Mulliken Net Atomic Charges

     Atom                 Charge (a.u.)
  ----------------------------------------
      1 S                     0.115983
      2 C                    -0.239297
      3 C                    -0.190743
      4 C                    -0.217040
      5 C                     0.002392
      6 H                     0.170649
      7 C                     0.002392
      8 S                     0.115983
      9 C                    -0.217039
     10 C                    -0.239300
     11 C                    -0.190740
     12 H                     0.174004
     13 H                     0.184051
     14 H                     0.174003
     15 H                     0.184051
     16 H                     0.170649
  ----------------------------------------
  Sum of atomic charges =    -0.000000

 -----------------------------------------------------------------
                    Cartesian Multipole Moments
 -----------------------------------------------------------------
    Charge (ESU x 10^10)
                -0.0000
    Dipole Moment (Debye)
         X       0.0000      Y      -0.0000      Z       0.1908
       Tot       0.1908
    Quadrupole Moments (Debye-Ang)
        XX     -61.2549     XY       1.0194     YY     -68.9195
        XZ      -0.0000     YZ       0.0000     ZZ     -76.8768
    Octopole Moments (Debye-Ang^2)
       XXX       0.0000    XXY       0.0000    XYY      -0.0000
       YYY      -0.0000    XXZ      -5.1774    XYZ       7.8538
       YYZ       4.7490    XZZ       0.0000    YZZ       0.0000
       ZZZ      -3.5819
    Hexadecapole Moments (Debye-Ang^3)
      XXXX   -1834.4439   XXXY     -16.0953   XXYY    -407.3464
      XYYY      10.3706   YYYY    -509.6474   XXXZ      -0.0000
      XXYZ      -0.0000   XYYZ      -0.0000   YYYZ      -0.0000
      XXZZ    -406.0078   XYZZ      -4.9639   YYZZ    -113.1406
      XZZZ      -0.0000   YZZZ       0.0000   ZZZZ    -154.9927
 -----------------------------------------------------------------
 DrvMan is completing analytic gradient of the MP2 energy
 MP2 relaxed dipole moment
            1
    1   0.0000000
    2  -0.0000000
    3   0.0750503
	Magnitude:	 0.075 au	 0.191 Debye
 MP2 energy read as -1103.413536
 Full Analytical Gradient of MP2 Energy (in au.)
             1             2             3             4             5
    1    0.00013239    0.00009480    0.00008317    0.00039454   -0.00205719
    2   -0.00081960    0.00111926   -0.00065633   -0.00115276    0.00015938
    3    0.00125260   -0.00151753    0.00163948    0.00310195   -0.00207362
             6             7             8             9            10
    1    0.00009035    0.00205719   -0.00013239   -0.00039454   -0.00009480
    2    0.00069816   -0.00015938    0.00081960    0.00115276   -0.00111926
    3   -0.00154868   -0.00207362    0.00125260    0.00310195   -0.00151753
            11            12            13            14            15
    1   -0.00008317    0.00002433   -0.00012452   -0.00002433    0.00012452
    2    0.00065633   -0.00001901    0.00024285    0.00001901   -0.00024285
    3    0.00163948   -0.00005103   -0.00080317   -0.00005103   -0.00080317
            16
    1   -0.00009035
    2   -0.00069816
    3   -0.00154868
 Gradient time:  CPU 1.56 s  wall 0.10 s
 Geometry Optimization Parameters
   NAtoms,    NIC,     NZ,  NCons,   NDum,   NFix, NCnnct, MaxDiis
       16     111       0       1       0       0       0       0


** CONSTRAINED OPTIMIZATION IN DELOCALIZED INTERNAL COORDINATES **
   Searching for a Minimum

   Optimization Cycle:   1

                       Coordinates (Angstroms)
     ATOM                X               Y               Z
      1  S         1.7865820768   -1.1377691381   -0.3811307298
      2  C         3.1581986404   -0.1560478793   -0.1203733565
      3  C         2.8055042062    1.0837054949    0.3517365675
      4  C         1.4163318400    1.2342608978    0.4865907248
      5  C         0.7104690413    0.1074857009    0.1195230373
      6  H         0.9307143379    2.1352418353    0.8167138333
      7  C        -0.7104690413   -0.1074857009    0.1195230373
      8  S        -1.7865820768    1.1377691381   -0.3811307298
      9  C        -1.4163318400   -1.2342608978    0.4865907248
     10  C        -3.1581986404    0.1560478793   -0.1203733565
     11  C        -2.8055042062   -1.0837054949    0.3517365675
     12  H        -3.5232057665   -1.8497709613    0.5802331066
     13  H         4.1400689387   -0.5345145532   -0.3237171045
     14  H         3.5232057665    1.8497709613    0.5802331066
     15  H        -4.1400689387    0.5345145532   -0.3237171045
     16  H        -0.9307143379   -2.1352418353    0.8167138333
   Point Group: c2    Number of degrees of freedom:    22


   Energy is  -1103.413535696

              Constraints and their Current Values
                                        Value     Constraint
   Dihedral:        4   5   7   9     -140.000     -140.000

 Attempting to Generate Delocalized Internal Coordinates

 21 Hessian modes will be used to form the next step
  Hessian Eigenvalues:
     0.045000    0.045000    0.045000    0.045002    0.045003    0.045012
     0.159945    0.159993    0.160000    0.221308    0.238060    0.249999
     0.326324    0.340049    0.365509    0.366895    0.370094    0.399848
     0.435412    0.463135    0.495504

 Minimum Search - Taking Simple RFO Step
 Searching for Lamda that Minimizes Along All modes
 Value Taken    Lamda =  -0.00043864
 Step Taken.  Stepsize is  0.097284

                             Maximum     Tolerance    Cnvgd?
         Gradient           0.003154      0.000300      NO
         Displacement       0.071403      0.001200      NO
         Energy change     *********      0.000001      NO


 New Cartesian Coordinates Obtained by Inverse Iteration

 Displacement from previous Coordinates is:  0.171099
 ----------------------------------------------------------------
             Standard Nuclear Orientation (Angstroms)
    I     Atom           X                Y                Z
 ----------------------------------------------------------------
    1      S       1.7902926081    -1.1333401873    -0.3969571662
    2      C       3.1607802376    -0.1605116856    -0.1022799769
    3      C       2.8033764106     1.0866414356     0.3471113091
    4      C       1.4128066973     1.2390120849     0.4667412920
    5      C       0.7110319788     0.1101530126     0.0998176382
    6      H       0.9235499876     2.1350935466     0.8044196228
    7      C      -0.7110319788    -0.1101530126     0.0998176382
    8      S      -1.7902926081     1.1333401873    -0.3969571662
    9      C      -1.4128066973    -1.2390120849     0.4667412920
   10      C      -3.1607802376     0.1605116856    -0.1022799769
   11      C      -2.8033764106    -1.0866414356     0.3471113091
   12      H      -3.5197525488    -1.8502069167     0.5878996837
   13      H       4.1454400932    -0.5460700874    -0.2771763240
   14      H       3.5197525488     1.8502069167     0.5878996837
   15      H      -4.1454400932     0.5460700874    -0.2771763240
   16      H      -0.9235499876    -2.1350935466     0.8044196228
 ----------------------------------------------------------------
 Molecular Point Group                 C2    NOp =  2
 Largest Abelian Subgroup              C2    NOp =  2
 Nuclear Repulsion Energy =   636.2231178765 hartrees
 There are       43 alpha and       43 beta electrons
 Applying Cartesian multipole field
    Component          Value
    ---------          -----
     (2,0,0)        1.00000E-11
     (0,2,0)        2.00000E-11
     (0,0,2)       -3.00000E-10
 Nucleus-field energy     =     0.0000000087 hartrees
 Requested basis set is cc-pVTZ
 There are 140 shells and 392 basis functions
 A cutoff of  1.0D-11 yielded   8033 shell pairs
 There are     62501 function pairs (     81469 Cartesian)
 Smallest overlap matrix eigenvalue = 8.25E-05
 Guess MOs from SCF MO coefficient file
 Reading MOs from coefficient file
 Reading MOs from coefficient file
 A restricted Hartree-Fock SCF calculation will be
 performed using Pulay DIIS extrapolation
 SCF converges when DIIS error is below 1.0E-08
 Geometry optimization detected.  Setting ReadMinima to 0
 Setting SaveMinima to 0
 using 16 threads for integral computing 
 ---------------------------------------
  Cycle       Energy         DIIS Error
 ---------------------------------------
    1   -1101.5977366316      3.80E-04
    2   -1101.5990530953      4.46E-05
    3   -1101.5991502189      1.64E-05
    4   -1101.5991682984      5.09E-06
    5   -1101.5991697558      1.97E-06
    6   -1101.5991700050      7.10E-07
    7   -1101.5991700427      2.41E-07
    8   -1101.5991700461      1.11E-07
    9   -1101.5991700467      4.24E-08
   10   -1101.5991700464      1.62E-08
   11   -1101.5991700452      6.25E-09 Convergence criterion met
 ---------------------------------------
 SCF time:  CPU 724.34 s  wall 45.31 s
 SCF   energy in the final basis set = -1101.5991700452
 Total energy in the final basis set = -1101.5991700452
 
 Components of the MP2 correlation energy:
        aaaa  correlation energy =        -0.2322674149 au
        abab  correlation energy =        -1.3502129509 au
        bbbb  correlation energy =        -0.2322674149 au
        non-Brillouin singles    =        -0.0000000000 au

 Total  MP2   correlation energy =        -1.8147477807 au
        MP2         total energy =     -1103.4139178260 au

  Entering Z-vector solver.
   1         0           1      0.000264    0.000264
   2         0           1      0.000116    0.000116
   3         0           1      0.000049    0.000049
   4         0           1      0.000024    0.000024
   5         0           1      0.000006    0.000006
   6         0           1      0.000002    0.000002
   7         1           0      0.000000    0.000000    Roots Converged
 
 --------------------------------------------------------------
             Orbital Energies (a.u.) and Symmetries
 --------------------------------------------------------------
 
 Alpha MOs, Restricted
 -- Occupied --                  
-91.985 -91.985 -11.275 -11.274 -11.261 -11.261 -11.238 -11.238
  1 A     1 B     2 A     2 B     3 B     3 A     4 A     4 B                  
-11.237 -11.237  -8.986  -8.986  -6.667  -6.667  -6.667  -6.667
  5 B     5 A     6 A     6 B     7 B     7 A     8 A     8 B                  
 -6.666  -6.666  -1.196  -1.167  -1.035  -0.998  -0.986  -0.948
  9 B     9 A    10 A    10 B    11 A    11 B    12 A    12 B                  
 -0.809  -0.777  -0.748  -0.718  -0.706  -0.645  -0.571  -0.571
 13 A    13 B    14 A    14 B    15 A    15 B    16 A    16 B                  
 -0.560  -0.555  -0.545  -0.513  -0.512  -0.482  -0.469  -0.365
 17 A    17 B    18 A    18 B    19 A    19 B    20 A    21 A                  
 -0.351  -0.350  -0.287
 20 B    22 A    21 B                                                          
 -- Virtual --                   
  0.081   0.139   0.149   0.153   0.163   0.170   0.184   0.190
 23 A    22 B    23 B    24 A    25 A    24 B    25 B    26 A                  
  0.193   0.199   0.212   0.230   0.252   0.262   0.322   0.336
 27 A    26 B    28 A    27 B    28 B    29 A    29 B    30 A                  
  0.349   0.353   0.366   0.371   0.401   0.403   0.425   0.436
 31 A    30 B    31 B    32 A    33 A    32 B    33 B    34 A                  
  0.448   0.449   0.456   0.463   0.478   0.490   0.517   0.522
 34 B    35 A    35 B    36 A    37 A    36 B    38 A    37 B                  
  0.530   0.530   0.533   0.534   0.548   0.551   0.555   0.564
 38 B    39 A    39 B    40 A    40 B    41 A    41 B    42 B                  
  0.571   0.594   0.595   0.602   0.606   0.613   0.625   0.626
 42 A    43 B    43 A    44 A    44 B    45 A    45 B    46 A                  
  0.630   0.645   0.649   0.668   0.674   0.679   0.703   0.704
 46 B    47 B    47 A    48 A    49 A    48 B    49 B    50 A                  
  0.765   0.776   0.779   0.791   0.813   0.834   0.838   0.841
 51 A    50 B    51 B    52 A    52 B    53 B    54 B    53 A                  
  0.854   0.873   0.894   0.899   0.903   0.910   0.954   0.956
 55 B    54 A    55 A    56 B    56 A    57 A    58 A    57 B                  
  0.977   0.997   1.003   1.016   1.020   1.029   1.072   1.077
 59 A    58 B    60 A    59 B    61 A    60 B    62 A    61 B                  
  1.095   1.102   1.110   1.111   1.149   1.158   1.172   1.172
 62 B    63 A    64 A    63 B    64 B    65 A    65 B    66 A                  
  1.178   1.195   1.201   1.224   1.243   1.249   1.262   1.288
 66 B    67 A    67 B    68 A    68 B    69 A    69 B    70 A                  
  1.291   1.312   1.342   1.349   1.388   1.389   1.415   1.436
 70 B    71 A    72 A    71 B    73 A    72 B    73 B    74 A                  
  1.456   1.458   1.480   1.486   1.501   1.511   1.514   1.530
 74 B    75 A    75 B    76 A    76 B    77 B    77 A    78 A                  
  1.532   1.559   1.568   1.584   1.585   1.616   1.624   1.642
 78 B    79 A    79 B    80 B    80 A    81 A    81 B    82 A                  
  1.677   1.693   1.719   1.736   1.749   1.774   1.775   1.842
 82 B    83 B    83 A    84 B    84 A    85 B    85 A    86 A                  
  1.846   1.853   1.863   1.894   1.900   1.923   1.942   1.945
 86 B    87 A    87 B    88 B    88 A    89 B    89 A    90 B                  
  1.948   1.990   2.037   2.052   2.063   2.090   2.127   2.154
 90 A    91 B    91 A    92 B    92 A    93 A    93 B    94 A                  
  2.179   2.182   2.203   2.206   2.239   2.260   2.268   2.277
 94 B    95 A    95 B    96 B    96 A    97 A    97 B    98 A                  
  2.283   2.309   2.327   2.383   2.403   2.445   2.446   2.448
 98 B    99 B    99 A   100 B   100 A   101 A   101 B   102 A                  
  2.474   2.493   2.519   2.525   2.530   2.564   2.584   2.598
102 B   103 A   104 A   103 B   104 B   105 B   105 A   106 A                  
  2.636   2.672   2.697   2.705   2.716   2.736   2.750   2.765
106 B   107 B   107 A   108 B   109 B   108 A   109 A   110 A                  
  2.765   2.769   2.785   2.785   2.798   2.839   2.888   2.898
110 B   111 B   111 A   112 B   112 A   113 A   113 B   114 A                  
  2.904   2.924   2.947   2.957   2.997   3.010   3.014   3.022
114 B   115 B   115 A   116 A   116 B   117 B   117 A   118 A                  
  3.024   3.062   3.067   3.128   3.152   3.154   3.159   3.197
118 B   119 B   119 A   120 A   121 A   120 B   122 A   121 B                  
  3.205   3.209   3.244   3.250   3.266   3.266   3.272   3.288
123 A   122 B   124 A   123 B   124 B   125 A   126 A   125 B                  
  3.305   3.308   3.328   3.330   3.340   3.340   3.377   3.390
127 A   126 B   127 B   128 A   129 A   128 B   130 A   129 B                  
  3.419   3.421   3.431   3.441   3.443   3.451   3.463   3.485
130 B   131 A   131 B   132 B   132 A   133 A   134 A   135 A                  
  3.486   3.496   3.502   3.510   3.515   3.526   3.533   3.538
133 B   134 B   136 A   135 B   137 A   136 B   137 B   138 A                  
  3.547   3.562   3.574   3.591   3.595   3.607   3.643   3.664
138 B   139 A   140 A   141 A   139 B   142 A   140 B   141 B                  
  3.698   3.700   3.719   3.730   3.737   3.774   3.781   3.783
143 A   142 B   143 B   144 A   145 A   144 B   146 A   145 B                  
  3.829   3.847   3.859   3.883   3.891   3.907   3.929   3.937
146 B   147 A   147 B   148 A   148 B   149 A   150 A   149 B                  
  3.970   3.985   3.996   4.004   4.014   4.022   4.036   4.048
151 A   150 B   152 A   151 B   152 B   153 A   153 B   154 A                  
  4.086   4.114   4.120   4.143   4.150   4.171   4.180   4.190
154 B   155 A   155 B   156 A   156 B   157 A   157 B   158 A                  
  4.204   4.214   4.223   4.264   4.279   4.285   4.301   4.326
158 B   159 A   160 A   159 B   161 A   160 B   161 B   162 A                  
  4.353   4.363   4.375   4.412   4.424   4.461   4.521   4.538
163 A   162 B   164 A   163 B   164 B   165 A   166 A   165 B                  
  4.544   4.574   4.605   4.614   4.644   4.669   4.694   4.697
166 B   167 A   168 A   167 B   168 B   169 A   169 B   170 A                  
  4.715   4.727   4.753   4.781   4.781   4.815   4.831   4.877
170 B   171 A   171 B   172 B   172 A   173 A   173 B   174 B                  
  4.894   4.985   4.985   5.003   5.033   5.055   5.065   5.084
174 A   175 A   175 B   176 B   176 A   177 B   177 A   178 B                  
  5.084   5.119   5.194   5.249   5.251   5.292   5.314   5.385
178 A   179 A   179 B   180 A   180 B   181 B   181 A   182 A                  
  5.397   5.413   5.427   5.501   5.556   5.605   5.641   5.674
182 B   183 A   183 B   184 A   184 B   185 A   186 A   185 B                  
  5.766   5.927   5.940   6.061   6.091   6.146   6.169   6.231
186 B   187 A   187 B   188 A   188 B   189 A   189 B   190 B                  
  6.254   6.551   6.567   6.737   6.746   9.518  10.787  11.786
190 A   191 A   191 B   192 A   192 B   193 A   193 B   194 A                  
 12.297  13.591  13.614  14.621  14.680
194 B   195 A   195 B   196 B   196 A                                          
 
 Beta MOs, Restricted
 -- Occupied --                  
-91.985 -91.985 -11.275 -11.274 -11.261 -11.261 -11.238 -11.238
  1 A     1 B     2 A     2 B     3 B     3 A     4 A     4 B                  
-11.237 -11.237  -8.986  -8.986  -6.667  -6.667  -6.667  -6.667
  5 B     5 A     6 A     6 B     7 B     7 A     8 A     8 B                  
 -6.666  -6.666  -1.196  -1.167  -1.035  -0.998  -0.986  -0.948
  9 B     9 A    10 A    10 B    11 A    11 B    12 A    12 B                  
 -0.809  -0.777  -0.748  -0.718  -0.706  -0.645  -0.571  -0.571
 13 A    13 B    14 A    14 B    15 A    15 B    16 A    16 B                  
 -0.560  -0.555  -0.545  -0.513  -0.512  -0.482  -0.469  -0.365
 17 A    17 B    18 A    18 B    19 A    19 B    20 A    21 A                  
 -0.351  -0.350  -0.287
 20 B    22 A    21 B                                                          
 -- Virtual --                   
  0.081   0.139   0.149   0.153   0.163   0.170   0.184   0.190
 23 A    22 B    23 B    24 A    25 A    24 B    25 B    26 A                  
  0.193   0.199   0.212   0.230   0.252   0.262   0.322   0.336
 27 A    26 B    28 A    27 B    28 B    29 A    29 B    30 A                  
  0.349   0.353   0.366   0.371   0.401   0.403   0.425   0.436
 31 A    30 B    31 B    32 A    33 A    32 B    33 B    34 A                  
  0.448   0.449   0.456   0.463   0.478   0.490   0.517   0.522
 34 B    35 A    35 B    36 A    37 A    36 B    38 A    37 B                  
  0.530   0.530   0.533   0.534   0.548   0.551   0.555   0.564
 38 B    39 A    39 B    40 A    40 B    41 A    41 B    42 B                  
  0.571   0.594   0.595   0.602   0.606   0.613   0.625   0.626
 42 A    43 B    43 A    44 A    44 B    45 A    45 B    46 A                  
  0.630   0.645   0.649   0.668   0.674   0.679   0.703   0.704
 46 B    47 B    47 A    48 A    49 A    48 B    49 B    50 A                  
  0.765   0.776   0.779   0.791   0.813   0.834   0.838   0.841
 51 A    50 B    51 B    52 A    52 B    53 B    54 B    53 A                  
  0.854   0.873   0.894   0.899   0.903   0.910   0.954   0.956
 55 B    54 A    55 A    56 B    56 A    57 A    58 A    57 B                  
  0.977   0.997   1.003   1.016   1.020   1.029   1.072   1.077
 59 A    58 B    60 A    59 B    61 A    60 B    62 A    61 B                  
  1.095   1.102   1.110   1.111   1.149   1.158   1.172   1.172
 62 B    63 A    64 A    63 B    64 B    65 A    65 B    66 A                  
  1.178   1.195   1.201   1.224   1.243   1.249   1.262   1.288
 66 B    67 A    67 B    68 A    68 B    69 A    69 B    70 A                  
  1.291   1.312   1.342   1.349   1.388   1.389   1.415   1.436
 70 B    71 A    72 A    71 B    73 A    72 B    73 B    74 A                  
  1.456   1.458   1.480   1.486   1.501   1.511   1.514   1.530
 74 B    75 A    75 B    76 A    76 B    77 B    77 A    78 A                  
  1.532   1.559   1.568   1.584   1.585   1.616   1.624   1.642
 78 B    79 A    79 B    80 B    80 A    81 A    81 B    82 A                  
  1.677   1.693   1.719   1.736   1.749   1.774   1.775   1.842
 82 B    83 B    83 A    84 B    84 A    85 B    85 A    86 A                  
  1.846   1.853   1.863   1.894   1.900   1.923   1.942   1.945
 86 B    87 A    87 B    88 B    88 A    89 B    89 A    90 B                  
  1.948   1.990   2.037   2.052   2.063   2.090   2.127   2.154
 90 A    91 B    91 A    92 B    92 A    93 A    93 B    94 A                  
  2.179   2.182   2.203   2.206   2.239   2.260   2.268   2.277
 94 B    95 A    95 B    96 B    96 A    97 A    97 B    98 A                  
  2.283   2.309   2.327   2.383   2.403   2.445   2.446   2.448
 98 B    99 B    99 A   100 B   100 A   101 A   101 B   102 A                  
  2.474   2.493   2.519   2.525   2.530   2.564   2.584   2.598
102 B   103 A   104 A   103 B   104 B   105 B   105 A   106 A                  
  2.636   2.672   2.697   2.705   2.716   2.736   2.750   2.765
106 B   107 B   107 A   108 B   109 B   108 A   109 A   110 A                  
  2.765   2.769   2.785   2.785   2.798   2.839   2.888   2.898
110 B   111 B   111 A   112 B   112 A   113 A   113 B   114 A                  
  2.904   2.924   2.947   2.957   2.997   3.010   3.014   3.022
114 B   115 B   115 A   116 A   116 B   117 B   117 A   118 A                  
  3.024   3.062   3.067   3.128   3.152   3.154   3.159   3.197
118 B   119 B   119 A   120 A   121 A   120 B   122 A   121 B                  
  3.205   3.209   3.244   3.250   3.266   3.266   3.272   3.288
123 A   122 B   124 A   123 B   124 B   125 A   126 A   125 B                  
  3.305   3.308   3.328   3.330   3.340   3.340   3.377   3.390
127 A   126 B   127 B   128 A   129 A   128 B   130 A   129 B                  
  3.419   3.421   3.431   3.441   3.443   3.451   3.463   3.485
130 B   131 A   131 B   132 B   132 A   133 A   134 A   135 A                  
  3.486   3.496   3.502   3.510   3.515   3.526   3.533   3.538
133 B   134 B   136 A   135 B   137 A   136 B   137 B   138 A                  
  3.547   3.562   3.574   3.591   3.595   3.607   3.643   3.664
138 B   139 A   140 A   141 A   139 B   142 A   140 B   141 B                  
  3.698   3.700   3.719   3.730   3.737   3.774   3.781   3.783
143 A   142 B   143 B   144 A   145 A   144 B   146 A   145 B                  
  3.829   3.847   3.859   3.883   3.891   3.907   3.929   3.937
146 B   147 A   147 B   148 A   148 B   149 A   150 A   149 B                  
  3.970   3.985   3.996   4.004   4.014   4.022   4.036   4.048
151 A   150 B   152 A   151 B   152 B   153 A   153 B   154 A                  
  4.086   4.114   4.120   4.143   4.150   4.171   4.180   4.190
154 B   155 A   155 B   156 A   156 B   157 A   157 B   158 A                  
  4.204   4.214   4.223   4.264   4.279   4.285   4.301   4.326
158 B   159 A   160 A   159 B   161 A   160 B   161 B   162 A                  
  4.353   4.363   4.375   4.412   4.424   4.461   4.521   4.538
163 A   162 B   164 A   163 B   164 B   165 A   166 A   165 B                  
  4.544   4.574   4.605   4.614   4.644   4.669   4.694   4.697
166 B   167 A   168 A   167 B   168 B   169 A   169 B   170 A                  
  4.715   4.727   4.753   4.781   4.781   4.815   4.831   4.877
170 B   171 A   171 B   172 B   172 A   173 A   173 B   174 B                  
  4.894   4.985   4.985   5.003   5.033   5.055   5.065   5.084
174 A   175 A   175 B   176 B   176 A   177 B   177 A   178 B                  
  5.084   5.119   5.194   5.249   5.251   5.292   5.314   5.385
178 A   179 A   179 B   180 A   180 B   181 B   181 A   182 A                  
  5.397   5.413   5.427   5.501   5.556   5.605   5.641   5.674
182 B   183 A   183 B   184 A   184 B   185 A   186 A   185 B                  
  5.766   5.927   5.940   6.061   6.091   6.146   6.169   6.231
186 B   187 A   187 B   188 A   188 B   189 A   189 B   190 B                  
  6.254   6.551   6.567   6.737   6.746   9.518  10.787  11.786
190 A   191 A   191 B   192 A   192 B   193 A   193 B   194 A                  
 12.297  13.591  13.614  14.621  14.680
194 B   195 A   195 B   196 B   196 A                                          
 --------------------------------------------------------------
 
          Ground-State Mulliken Net Atomic Charges

     Atom                 Charge (a.u.)
  ----------------------------------------
      1 S                     0.116418
      2 C                    -0.237925
      3 C                    -0.193257
      4 C                    -0.216892
      5 C                     0.001315
      6 H                     0.171539
      7 C                     0.001315
      8 S                     0.116418
      9 C                    -0.216892
     10 C                    -0.237925
     11 C                    -0.193257
     12 H                     0.174374
     13 H                     0.184428
     14 H                     0.174374
     15 H                     0.184428
     16 H                     0.171539
  ----------------------------------------
  Sum of atomic charges =     0.000000

 -----------------------------------------------------------------
                    Cartesian Multipole Moments
 -----------------------------------------------------------------
    Charge (ESU x 10^10)
                 0.0000
    Dipole Moment (Debye)
         X       0.0000      Y      -0.0000      Z       0.2502
       Tot       0.2502
    Quadrupole Moments (Debye-Ang)
        XX     -61.2324     XY       0.9128     YY     -68.9523
        XZ      -0.0000     YZ      -0.0000     ZZ     -76.8679
    Octopole Moments (Debye-Ang^2)
       XXX       0.0000    XXY      -0.0000    XYY       0.0000
       YYY      -0.0000    XXZ      -3.1195    XYZ       7.7899
       YYZ       5.4002    XZZ      -0.0000    YZZ      -0.0000
       ZZZ      -1.6010
    Hexadecapole Moments (Debye-Ang^3)
      XXXX   -1834.4577   XXXY     -18.3176   XXYY    -407.4595
      XYYY      10.2611   YYYY    -509.9499   XXXZ      -0.0000
      XXYZ       0.0000   XYYZ      -0.0000   YYYZ      -0.0000
      XXZZ    -406.9459   XYZZ      -4.7222   YYZZ    -112.9992
      XZZZ      -0.0000   YZZZ       0.0000   ZZZZ    -154.3522
 -----------------------------------------------------------------
 DrvMan is completing analytic gradient of the MP2 energy
 MP2 relaxed dipole moment
            1
    1   0.0000000
    2  -0.0000000
    3   0.0984518
	Magnitude:	 0.098 au	 0.250 Debye
 MP2 energy read as -1103.413918
 Full Analytical Gradient of MP2 Energy (in au.)
             1             2             3             4             5
    1    0.00002362    0.00009793    0.00001517    0.00013321   -0.00029388
    2    0.00007194    0.00015153    0.00001468   -0.00092043    0.00062639
    3   -0.00052397    0.00025102   -0.00022559    0.00226399   -0.00065305
             6             7             8             9            10
    1   -0.00000430    0.00029388   -0.00002362   -0.00013321   -0.00009793
    2    0.00038850   -0.00062639   -0.00007194    0.00092043   -0.00015153
    3   -0.00092842   -0.00065305   -0.00052397    0.00226399    0.00025102
            11            12            13            14            15
    1   -0.00001517    0.00000747   -0.00002966   -0.00000747    0.00002966
    2   -0.00001468   -0.00000225   -0.00000830    0.00000225    0.00000830
    3   -0.00022559    0.00001126   -0.00019525    0.00001126   -0.00019525
            16
    1    0.00000430
    2   -0.00038850
    3   -0.00092842
 Gradient time:  CPU 1.54 s  wall 0.10 s
 Geometry Optimization Parameters
   NAtoms,    NIC,     NZ,  NCons,   NDum,   NFix, NCnnct, MaxDiis
       16     111       0       1       0       0       0       0

 Cartesian Hessian Update
 Hessian Updated using BFGS Update


** CONSTRAINED OPTIMIZATION IN DELOCALIZED INTERNAL COORDINATES **
   Searching for a Minimum

   Optimization Cycle:   2

                       Coordinates (Angstroms)
     ATOM                X               Y               Z
      1  S         1.7902926081   -1.1333401873   -0.3969571662
      2  C         3.1607802376   -0.1605116856   -0.1022799769
      3  C         2.8033764106    1.0866414356    0.3471113091
      4  C         1.4128066973    1.2390120849    0.4667412920
      5  C         0.7110319788    0.1101530126    0.0998176382
      6  H         0.9235499876    2.1350935466    0.8044196228
      7  C        -0.7110319788   -0.1101530126    0.0998176382
      8  S        -1.7902926081    1.1333401873   -0.3969571662
      9  C        -1.4128066973   -1.2390120849    0.4667412920
     10  C        -3.1607802376    0.1605116856   -0.1022799769
     11  C        -2.8033764106   -1.0866414356    0.3471113091
     12  H        -3.5197525488   -1.8502069167    0.5878996837
     13  H         4.1454400932   -0.5460700874   -0.2771763240
     14  H         3.5197525488    1.8502069167    0.5878996837
     15  H        -4.1454400932    0.5460700874   -0.2771763240
     16  H        -0.9235499876   -2.1350935466    0.8044196228
   Point Group: c2    Number of degrees of freedom:    22


   Energy is  -1103.413917826

              Constraints and their Current Values
                                        Value     Constraint
   Dihedral:        4   5   7   9     -140.000     -140.000
 Hessian Updated using BFGS Update

 21 Hessian modes will be used to form the next step
  Hessian Eigenvalues:
     0.029664    0.045000    0.045000    0.045001    0.045005    0.057553
     0.159699    0.159991    0.160058    0.221302    0.237885    0.250183
     0.326081    0.339960    0.365495    0.366895    0.370100    0.400730
     0.435470    0.462908    0.495542

 Minimum Search - Taking Simple RFO Step
 Searching for Lamda that Minimizes Along All modes
 Value Taken    Lamda =  -0.00006615
 Step Taken.  Stepsize is  0.045626

                             Maximum     Tolerance    Cnvgd?
         Gradient           0.000989      0.000300      NO
         Displacement       0.025460      0.001200      NO
         Energy change     -0.000382      0.000001      NO


 New Cartesian Coordinates Obtained by Inverse Iteration

 Displacement from previous Coordinates is:  0.060370
 ----------------------------------------------------------------
             Standard Nuclear Orientation (Angstroms)
    I     Atom           X                Y                Z
 ----------------------------------------------------------------
    1      S       1.7918250488    -1.1340883037    -0.3984154680
    2      C       3.1610905254    -0.1615241654    -0.0983712736
    3      C       2.8020132225     1.0872728242     0.3455691538
    4      C       1.4109048126     1.2408850955     0.4570602210
    5      C       0.7110257474     0.1109995100     0.0900281907
    6      H       0.9201797650     2.1329119166     0.8030201133
    7      C      -0.7110257474    -0.1109995100     0.0900281907
    8      S      -1.7918250488     1.1340883037    -0.3984154680
    9      C      -1.4109048126    -1.2408850955     0.4570602210
   10      C      -3.1610905254     0.1615241654    -0.0983712736
   11      C      -2.8020132225    -1.0872728242     0.3455691538
   12      H      -3.5177868356    -1.8493781609     0.5927124703
   13      H       4.1468628179    -0.5491532654    -0.2620273287
   14      H       3.5177868356     1.8493781609     0.5927124703
   15      H      -4.1468628179     0.5491532654    -0.2620273287
   16      H      -0.9201797650    -2.1329119166     0.8030201133
 ----------------------------------------------------------------
 Molecular Point Group                 C2    NOp =  2
 Largest Abelian Subgroup              C2    NOp =  2
 Nuclear Repulsion Energy =   636.2493076576 hartrees
 There are       43 alpha and       43 beta electrons
 Applying Cartesian multipole field
    Component          Value
    ---------          -----
     (2,0,0)        1.00000E-11
     (0,2,0)        2.00000E-11
     (0,0,2)       -3.00000E-10
 Nucleus-field energy     =     0.0000000089 hartrees
 Requested basis set is cc-pVTZ
 There are 140 shells and 392 basis functions
 A cutoff of  1.0D-11 yielded   8031 shell pairs
 There are     62491 function pairs (     81457 Cartesian)
 Smallest overlap matrix eigenvalue = 8.22E-05
 Guess MOs from SCF MO coefficient file
 Reading MOs from coefficient file
 Reading MOs from coefficient file
 A restricted Hartree-Fock SCF calculation will be
 performed using Pulay DIIS extrapolation
 SCF converges when DIIS error is below 1.0E-08
 Geometry optimization detected.  Setting ReadMinima to 0
 Setting SaveMinima to 0
 using 16 threads for integral computing 
 ---------------------------------------
  Cycle       Energy         DIIS Error
 ---------------------------------------
    1   -1101.5989062192      1.29E-04
    2   -1101.5991832313      1.60E-05
    3   -1101.5991953773      6.03E-06
    4   -1101.5991975810      2.49E-06
    5   -1101.5991978804      8.27E-07
    6   -1101.5991979197      3.38E-07
    7   -1101.5991979254      1.55E-07
    8   -1101.5991979255      5.27E-08
    9   -1101.5991979254      2.37E-08
   10   -1101.5991979251      6.83E-09 Convergence criterion met
 ---------------------------------------
 SCF time:  CPU 655.00 s  wall 40.97 s
 SCF   energy in the final basis set = -1101.5991979251
 Total energy in the final basis set = -1101.5991979251
 
 Components of the MP2 correlation energy:
        aaaa  correlation energy =        -0.2322757781 au
        abab  correlation energy =        -1.3502127662 au
        bbbb  correlation energy =        -0.2322757781 au
        non-Brillouin singles    =        -0.0000000000 au

 Total  MP2   correlation energy =        -1.8147643225 au
        MP2         total energy =     -1103.4139622476 au

  Entering Z-vector solver.
   1         0           1      0.000264    0.000264
   2         0           1      0.000116    0.000116
   3         0           1      0.000049    0.000049
   4         0           1      0.000024    0.000024
   5         0           1      0.000006    0.000006
   6         0           1      0.000002    0.000002
   7         1           0      0.000000    0.000000    Roots Converged
 
 --------------------------------------------------------------
             Orbital Energies (a.u.) and Symmetries
 --------------------------------------------------------------
 
 Alpha MOs, Restricted
 -- Occupied --                  
-91.985 -91.985 -11.275 -11.274 -11.261 -11.261 -11.238 -11.238
  1 A     1 B     2 A     2 B     3 B     3 A     4 A     4 B                  
-11.237 -11.237  -8.986  -8.986  -6.667  -6.667  -6.667  -6.667
  5 B     5 A     6 A     6 B     7 B     7 A     8 A     8 B                  
 -6.666  -6.666  -1.196  -1.167  -1.035  -0.998  -0.986  -0.948
  9 B     9 A    10 A    10 B    11 A    11 B    12 A    12 B                  
 -0.809  -0.778  -0.748  -0.718  -0.706  -0.645  -0.572  -0.571
 13 A    13 B    14 A    14 B    15 A    15 B    16 A    16 B                  
 -0.560  -0.555  -0.545  -0.513  -0.512  -0.482  -0.469  -0.365
 17 A    17 B    18 A    18 B    19 A    19 B    20 A    21 A                  
 -0.351  -0.350  -0.287
 20 B    22 A    21 B                                                          
 -- Virtual --                   
  0.080   0.139   0.149   0.153   0.163   0.170   0.184   0.190
 23 A    22 B    23 B    24 A    25 A    24 B    25 B    26 A                  
  0.193   0.199   0.212   0.230   0.252   0.262   0.321   0.336
 27 A    26 B    28 A    27 B    28 B    29 A    29 B    30 A                  
  0.349   0.353   0.366   0.371   0.401   0.403   0.425   0.436
 31 A    30 B    31 B    32 A    33 A    32 B    33 B    34 A                  
  0.448   0.450   0.456   0.463   0.477   0.490   0.517   0.522
 34 B    35 A    35 B    36 A    37 A    36 B    38 A    37 B                  
  0.530   0.531   0.533   0.534   0.548   0.552   0.556   0.564
 38 B    39 A    39 B    40 A    40 B    41 A    41 B    42 B                  
  0.571   0.594   0.595   0.603   0.606   0.613   0.625   0.626
 42 A    43 B    43 A    44 A    44 B    45 A    45 B    46 A                  
  0.629   0.645   0.648   0.668   0.675   0.679   0.703   0.704
 46 B    47 B    47 A    48 A    49 A    48 B    49 B    50 A                  
  0.766   0.776   0.779   0.792   0.813   0.834   0.840   0.840
 51 A    50 B    51 B    52 A    52 B    53 B    54 B    53 A                  
  0.852   0.873   0.893   0.900   0.901   0.912   0.955   0.956
 55 B    54 A    55 A    56 A    56 B    57 A    58 A    57 B                  
  0.976   0.996   1.004   1.015   1.020   1.029   1.073   1.079
 59 A    58 B    60 A    59 B    61 A    60 B    62 A    61 B                  
  1.095   1.103   1.110   1.110   1.149   1.157   1.172   1.172
 62 B    63 A    64 A    63 B    64 B    65 A    66 A    65 B                  
  1.178   1.195   1.201   1.224   1.243   1.248   1.261   1.290
 66 B    67 A    67 B    68 A    68 B    69 A    69 B    70 A                  
  1.293   1.312   1.342   1.350   1.388   1.390   1.414   1.436
 70 B    71 A    72 A    71 B    73 A    72 B    73 B    74 A                  
  1.456   1.457   1.479   1.485   1.501   1.512   1.515   1.530
 74 B    75 A    75 B    76 A    76 B    77 B    77 A    78 A                  
  1.531   1.560   1.568   1.583   1.584   1.616   1.623   1.642
 78 B    79 A    79 B    80 B    80 A    81 A    81 B    82 A                  
  1.677   1.693   1.718   1.738   1.747   1.775   1.775   1.842
 82 B    83 B    83 A    84 B    84 A    85 B    85 A    86 A                  
  1.845   1.853   1.865   1.894   1.900   1.923   1.943   1.946
 86 B    87 A    87 B    88 B    88 A    89 B    89 A    90 B                  
  1.947   1.990   2.036   2.052   2.064   2.089   2.128   2.154
 90 A    91 B    91 A    92 B    92 A    93 A    93 B    94 A                  
  2.179   2.183   2.202   2.206   2.238   2.263   2.269   2.277
 94 B    95 A    95 B    96 B    96 A    97 A    97 B    98 A                  
  2.281   2.308   2.326   2.383   2.403   2.445   2.446   2.448
 98 B    99 B    99 A   100 B   100 A   101 B   101 A   102 A                  
  2.474   2.494   2.519   2.526   2.530   2.565   2.584   2.599
102 B   103 A   104 A   103 B   104 B   105 B   105 A   106 A                  
  2.635   2.672   2.698   2.705   2.716   2.737   2.751   2.765
106 B   107 B   107 A   108 B   109 B   108 A   109 A   110 B                  
  2.765   2.770   2.784   2.785   2.797   2.839   2.889   2.898
110 A   111 B   112 B   111 A   112 A   113 A   113 B   114 A                  
  2.904   2.923   2.947   2.958   2.997   3.011   3.012   3.023
114 B   115 B   115 A   116 A   116 B   117 B   117 A   118 A                  
  3.023   3.062   3.066   3.127   3.152   3.154   3.160   3.197
118 B   119 B   119 A   120 A   121 A   120 B   122 A   121 B                  
  3.206   3.209   3.244   3.250   3.265   3.266   3.272   3.288
123 A   122 B   124 A   123 B   124 B   125 A   126 A   125 B                  
  3.305   3.307   3.329   3.329   3.339   3.341   3.377   3.391
127 A   126 B   128 A   127 B   128 B   129 A   130 A   129 B                  
  3.420   3.421   3.430   3.442   3.442   3.451   3.462   3.485
131 A   130 B   131 B   132 B   132 A   133 A   134 A   135 A                  
  3.485   3.497   3.502   3.510   3.516   3.526   3.533   3.537
133 B   134 B   136 A   135 B   137 A   136 B   137 B   138 A                  
  3.547   3.562   3.573   3.591   3.595   3.607   3.642   3.664
138 B   139 A   140 A   141 A   139 B   142 A   140 B   141 B                  
  3.696   3.699   3.722   3.730   3.737   3.773   3.783   3.783
143 A   142 B   143 B   144 A   145 A   144 B   146 A   145 B                  
  3.829   3.846   3.860   3.883   3.892   3.906   3.929   3.937
146 B   147 A   147 B   148 A   148 B   149 A   150 A   149 B                  
  3.970   3.986   3.993   4.004   4.015   4.022   4.034   4.049
151 A   150 B   152 A   151 B   152 B   153 A   153 B   154 A                  
  4.085   4.115   4.120   4.143   4.153   4.171   4.178   4.190
154 B   155 A   155 B   156 A   156 B   157 A   157 B   158 A                  
  4.204   4.213   4.224   4.263   4.278   4.287   4.302   4.326
158 B   159 A   160 A   159 B   161 A   160 B   161 B   162 A                  
  4.353   4.363   4.376   4.412   4.425   4.461   4.522   4.534
163 A   162 B   164 A   163 B   164 B   165 A   166 A   165 B                  
  4.543   4.575   4.605   4.613   4.644   4.670   4.696   4.697
166 B   167 A   168 A   167 B   168 B   169 A   169 B   170 A                  
  4.713   4.727   4.754   4.780   4.781   4.815   4.832   4.877
170 B   171 A   171 B   172 A   172 B   173 A   173 B   174 B                  
  4.894   4.984   4.987   5.003   5.031   5.056   5.066   5.082
174 A   175 B   175 A   176 B   176 A   177 B   177 A   178 A                  
  5.085   5.120   5.194   5.249   5.249   5.292   5.315   5.385
178 B   179 A   179 B   180 A   180 B   181 B   181 A   182 A                  
  5.397   5.413   5.427   5.501   5.555   5.605   5.641   5.674
182 B   183 A   183 B   184 A   184 B   185 A   186 A   185 B                  
  5.765   5.928   5.940   6.061   6.092   6.146   6.170   6.232
186 B   187 A   187 B   188 A   188 B   189 A   189 B   190 B                  
  6.255   6.552   6.567   6.736   6.746   9.518  10.786  11.784
190 A   191 A   191 B   192 A   192 B   193 A   193 B   194 A                  
 12.295  13.595  13.610  14.619  14.683
194 B   195 A   195 B   196 B   196 A                                          
 
 Beta MOs, Restricted
 -- Occupied --                  
-91.985 -91.985 -11.275 -11.274 -11.261 -11.261 -11.238 -11.238
  1 A     1 B     2 A     2 B     3 B     3 A     4 A     4 B                  
-11.237 -11.237  -8.986  -8.986  -6.667  -6.667  -6.667  -6.667
  5 B     5 A     6 A     6 B     7 B     7 A     8 A     8 B                  
 -6.666  -6.666  -1.196  -1.167  -1.035  -0.998  -0.986  -0.948
  9 B     9 A    10 A    10 B    11 A    11 B    12 A    12 B                  
 -0.809  -0.778  -0.748  -0.718  -0.706  -0.645  -0.572  -0.571
 13 A    13 B    14 A    14 B    15 A    15 B    16 A    16 B                  
 -0.560  -0.555  -0.545  -0.513  -0.512  -0.482  -0.469  -0.365
 17 A    17 B    18 A    18 B    19 A    19 B    20 A    21 A                  
 -0.351  -0.350  -0.287
 20 B    22 A    21 B                                                          
 -- Virtual --                   
  0.080   0.139   0.149   0.153   0.163   0.170   0.184   0.190
 23 A    22 B    23 B    24 A    25 A    24 B    25 B    26 A                  
  0.193   0.199   0.212   0.230   0.252   0.262   0.321   0.336
 27 A    26 B    28 A    27 B    28 B    29 A    29 B    30 A                  
  0.349   0.353   0.366   0.371   0.401   0.403   0.425   0.436
 31 A    30 B    31 B    32 A    33 A    32 B    33 B    34 A                  
  0.448   0.450   0.456   0.463   0.477   0.490   0.517   0.522
 34 B    35 A    35 B    36 A    37 A    36 B    38 A    37 B                  
  0.530   0.531   0.533   0.534   0.548   0.552   0.556   0.564
 38 B    39 A    39 B    40 A    40 B    41 A    41 B    42 B                  
  0.571   0.594   0.595   0.603   0.606   0.613   0.625   0.626
 42 A    43 B    43 A    44 A    44 B    45 A    45 B    46 A                  
  0.629   0.645   0.648   0.668   0.675   0.679   0.703   0.704
 46 B    47 B    47 A    48 A    49 A    48 B    49 B    50 A                  
  0.766   0.776   0.779   0.792   0.813   0.834   0.840   0.840
 51 A    50 B    51 B    52 A    52 B    53 B    54 B    53 A                  
  0.852   0.873   0.893   0.900   0.901   0.912   0.955   0.956
 55 B    54 A    55 A    56 A    56 B    57 A    58 A    57 B                  
  0.976   0.996   1.004   1.015   1.020   1.029   1.073   1.079
 59 A    58 B    60 A    59 B    61 A    60 B    62 A    61 B                  
  1.095   1.103   1.110   1.110   1.149   1.157   1.172   1.172
 62 B    63 A    64 A    63 B    64 B    65 A    66 A    65 B                  
  1.178   1.195   1.201   1.224   1.243   1.248   1.261   1.290
 66 B    67 A    67 B    68 A    68 B    69 A    69 B    70 A                  
  1.293   1.312   1.342   1.350   1.388   1.390   1.414   1.436
 70 B    71 A    72 A    71 B    73 A    72 B    73 B    74 A                  
  1.456   1.457   1.479   1.485   1.501   1.512   1.515   1.530
 74 B    75 A    75 B    76 A    76 B    77 B    77 A    78 A                  
  1.531   1.560   1.568   1.583   1.584   1.616   1.623   1.642
 78 B    79 A    79 B    80 B    80 A    81 A    81 B    82 A                  
  1.677   1.693   1.718   1.738   1.747   1.775   1.775   1.842
 82 B    83 B    83 A    84 B    84 A    85 B    85 A    86 A                  
  1.845   1.853   1.865   1.894   1.900   1.923   1.943   1.946
 86 B    87 A    87 B    88 B    88 A    89 B    89 A    90 B                  
  1.947   1.990   2.036   2.052   2.064   2.089   2.128   2.154
 90 A    91 B    91 A    92 B    92 A    93 A    93 B    94 A                  
  2.179   2.183   2.202   2.206   2.238   2.263   2.269   2.277
 94 B    95 A    95 B    96 B    96 A    97 A    97 B    98 A                  
  2.281   2.308   2.326   2.383   2.403   2.445   2.446   2.448
 98 B    99 B    99 A   100 B   100 A   101 B   101 A   102 A                  
  2.474   2.494   2.519   2.526   2.530   2.565   2.584   2.599
102 B   103 A   104 A   103 B   104 B   105 B   105 A   106 A                  
  2.635   2.672   2.698   2.705   2.716   2.737   2.751   2.765
106 B   107 B   107 A   108 B   109 B   108 A   109 A   110 B                  
  2.765   2.770   2.784   2.785   2.797   2.839   2.889   2.898
110 A   111 B   112 B   111 A   112 A   113 A   113 B   114 A                  
  2.904   2.923   2.947   2.958   2.997   3.011   3.012   3.023
114 B   115 B   115 A   116 A   116 B   117 B   117 A   118 A                  
  3.023   3.062   3.066   3.127   3.152   3.154   3.160   3.197
118 B   119 B   119 A   120 A   121 A   120 B   122 A   121 B                  
  3.206   3.209   3.244   3.250   3.265   3.266   3.272   3.288
123 A   122 B   124 A   123 B   124 B   125 A   126 A   125 B                  
  3.305   3.307   3.329   3.329   3.339   3.341   3.377   3.391
127 A   126 B   128 A   127 B   128 B   129 A   130 A   129 B                  
  3.420   3.421   3.430   3.442   3.442   3.451   3.462   3.485
131 A   130 B   131 B   132 B   132 A   133 A   134 A   135 A                  
  3.485   3.497   3.502   3.510   3.516   3.526   3.533   3.537
133 B   134 B   136 A   135 B   137 A   136 B   137 B   138 A                  
  3.547   3.562   3.573   3.591   3.595   3.607   3.642   3.664
138 B   139 A   140 A   141 A   139 B   142 A   140 B   141 B                  
  3.696   3.699   3.722   3.730   3.737   3.773   3.783   3.783
143 A   142 B   143 B   144 A   145 A   144 B   146 A   145 B                  
  3.829   3.846   3.860   3.883   3.892   3.906   3.929   3.937
146 B   147 A   147 B   148 A   148 B   149 A   150 A   149 B                  
  3.970   3.986   3.993   4.004   4.015   4.022   4.034   4.049
151 A   150 B   152 A   151 B   152 B   153 A   153 B   154 A                  
  4.085   4.115   4.120   4.143   4.153   4.171   4.178   4.190
154 B   155 A   155 B   156 A   156 B   157 A   157 B   158 A                  
  4.204   4.213   4.224   4.263   4.278   4.287   4.302   4.326
158 B   159 A   160 A   159 B   161 A   160 B   161 B   162 A                  
  4.353   4.363   4.376   4.412   4.425   4.461   4.522   4.534
163 A   162 B   164 A   163 B   164 B   165 A   166 A   165 B                  
  4.543   4.575   4.605   4.613   4.644   4.670   4.696   4.697
166 B   167 A   168 A   167 B   168 B   169 A   169 B   170 A                  
  4.713   4.727   4.754   4.780   4.781   4.815   4.832   4.877
170 B   171 A   171 B   172 A   172 B   173 A   173 B   174 B                  
  4.894   4.984   4.987   5.003   5.031   5.056   5.066   5.082
174 A   175 B   175 A   176 B   176 A   177 B   177 A   178 A                  
  5.085   5.120   5.194   5.249   5.249   5.292   5.315   5.385
178 B   179 A   179 B   180 A   180 B   181 B   181 A   182 A                  
  5.397   5.413   5.427   5.501   5.555   5.605   5.641   5.674
182 B   183 A   183 B   184 A   184 B   185 A   186 A   185 B                  
  5.765   5.928   5.940   6.061   6.092   6.146   6.170   6.232
186 B   187 A   187 B   188 A   188 B   189 A   189 B   190 B                  
  6.255   6.552   6.567   6.736   6.746   9.518  10.786  11.784
190 A   191 A   191 B   192 A   192 B   193 A   193 B   194 A                  
 12.295  13.595  13.610  14.619  14.683
194 B   195 A   195 B   196 B   196 A                                          
 --------------------------------------------------------------
 
          Ground-State Mulliken Net Atomic Charges

     Atom                 Charge (a.u.)
  ----------------------------------------
      1 S                     0.116464
      2 C                    -0.237923
      3 C                    -0.193617
      4 C                    -0.216710
      5 C                     0.001362
      6 H                     0.171615
      7 C                     0.001362
      8 S                     0.116464
      9 C                    -0.216710
     10 C                    -0.237923
     11 C                    -0.193617
     12 H                     0.174346
     13 H                     0.184463
     14 H                     0.174346
     15 H                     0.184463
     16 H                     0.171615
  ----------------------------------------
  Sum of atomic charges =    -0.000000

 -----------------------------------------------------------------
                    Cartesian Multipole Moments
 -----------------------------------------------------------------
    Charge (ESU x 10^10)
                 0.0000
    Dipole Moment (Debye)
         X       0.0000      Y       0.0000      Z       0.2931
       Tot       0.2931
    Quadrupole Moments (Debye-Ang)
        XX     -61.2315     XY       0.8599     YY     -68.9742
        XZ       0.0000     YZ      -0.0000     ZZ     -76.8536
    Octopole Moments (Debye-Ang^2)
       XXX       0.0000    XXY       0.0000    XYY      -0.0000
       YYY       0.0000    XXZ      -2.3250    XYZ       7.7833
       YYZ       5.6871    XZZ      -0.0000    YZZ       0.0000
       ZZZ      -0.9073
    Hexadecapole Moments (Debye-Ang^3)
      XXXX   -1834.1690   XXXY     -18.7735   XXYY    -407.5837
      XYYY      10.3394   YYYY    -510.8594   XXXZ      -0.0000
      XXYZ      -0.0000   XYYZ       0.0000   YYYZ      -0.0000
      XXZZ    -407.0054   XYZZ      -4.4016   YYZZ    -112.9335
      XZZZ       0.0000   YZZZ      -0.0000   ZZZZ    -153.5421
 -----------------------------------------------------------------
 DrvMan is completing analytic gradient of the MP2 energy
 MP2 relaxed dipole moment
            1
    1   0.0000000
    2   0.0000000
    3   0.1152986
	Magnitude:	 0.115 au	 0.293 Debye
 MP2 energy read as -1103.413962
 Full Analytical Gradient of MP2 Energy (in au.)
             1             2             3             4             5
    1    0.00001355   -0.00001251   -0.00002098    0.00002720    0.00015812
    2    0.00012207   -0.00005352    0.00013240   -0.00056960    0.00074016
    3   -0.00039116    0.00013838   -0.00039389    0.00147996   -0.00058443
             6             7             8             9            10
    1   -0.00002362   -0.00015812   -0.00001355   -0.00002720    0.00001251
    2    0.00014052   -0.00074016   -0.00012207    0.00056960    0.00005352
    3   -0.00039375   -0.00058443   -0.00039116    0.00147996    0.00013838
            11            12            13            14            15
    1    0.00002098    0.00000321   -0.00000690   -0.00000321    0.00000690
    2   -0.00013240    0.00003987   -0.00003452   -0.00003987    0.00003452
    3   -0.00039389    0.00013709    0.00000780    0.00013709    0.00000780
            16
    1    0.00002362
    2   -0.00014052
    3   -0.00039375
 Gradient time:  CPU 1.57 s  wall 0.10 s
 Geometry Optimization Parameters
   NAtoms,    NIC,     NZ,  NCons,   NDum,   NFix, NCnnct, MaxDiis
       16     111       0       1       0       0       0       0

 Cartesian Hessian Update
 Hessian Updated using BFGS Update


** CONSTRAINED OPTIMIZATION IN DELOCALIZED INTERNAL COORDINATES **
   Searching for a Minimum

   Optimization Cycle:   3

                       Coordinates (Angstroms)
     ATOM                X               Y               Z
      1  S         1.7918250488   -1.1340883037   -0.3984154680
      2  C         3.1610905254   -0.1615241654   -0.0983712736
      3  C         2.8020132225    1.0872728242    0.3455691538
      4  C         1.4109048126    1.2408850955    0.4570602210
      5  C         0.7110257474    0.1109995100    0.0900281907
      6  H         0.9201797650    2.1329119166    0.8030201133
      7  C        -0.7110257474   -0.1109995100    0.0900281907
      8  S        -1.7918250488    1.1340883037   -0.3984154680
[...]
         Gradient           0.000044      0.000300     YES
         Displacement       0.001389      0.001200      NO
         Energy change     -0.000001      0.000001     YES

 Final energy is   -1103.41397629857     


 ******************************
 **  OPTIMIZATION CONVERGED  **
 ******************************

                       Coordinates (Angstroms)
     ATOM                X               Y               Z
      1  S         1.7934112147   -1.1369775417   -0.3934192886
      2  C         3.1617086406   -0.1630611931   -0.0927620843
      3  C         2.8011573761    1.0871633102    0.3457921881
      4  C         1.4096180774    1.2421228484    0.4491831080
      5  C         0.7107171996    0.1114628469    0.0820389166
      6  H         0.9181827777    2.1321750976    0.7991989205
      7  C        -0.7107171996   -0.1114628469    0.0820389166
      8  S        -1.7934112147    1.1369775417   -0.3934192886
      9  C        -1.4096180774   -1.2421228484    0.4491831080
     10  C        -3.1617086406    0.1630611931   -0.0927620843
     11  C        -2.8011573761   -1.0871633102    0.3457921881
     12  H        -3.5161175063   -1.8506435199    0.5910290186
     13  H         4.1481207479   -0.5510824711   -0.2514847001
     14  H         3.5161175063    1.8506435199    0.5910290186
     15  H        -4.1481207479    0.5510824711   -0.2514847001
     16  H        -0.9181827777   -2.1321750976    0.7991989205

Z-matrix Print:
$molecule
0 1
S 
C  1 1.706208
H  2 1.071803 1 120.352429
C  2 1.373094 1 111.434137 3 -179.948161 0
H  4 1.074342 2 123.039586 1 -179.960511 0
C  4 1.403953 2 112.598998 1 -0.650809 0
H  6 1.075273 4 124.633498 2 -178.207130 0
C  6 1.379003 4 113.093429 2 0.335319 0
C  8 1.438809 6 128.882916 4 -178.715788 0
C  9 1.379003 8 128.882916 6 140.000000 0
H  10 1.075273 9 122.256480 8 -0.133926 0
C  10 1.403953 9 113.093429 8 -178.715788 0
H  12 1.074342 10 124.357518 9 179.634349 0
C  12 1.373094 10 112.598998 9 0.335319 0
H  14 1.071803 12 128.213410 10 179.406125 0
S  14 1.706208 12 111.434137 10 -0.650809 0
$end

 
 --------------------------------------------------------------
             Orbital Energies (a.u.) and Symmetries
 --------------------------------------------------------------
 
 Alpha MOs, Restricted
 -- Occupied --                  
-91.985 -91.985 -11.275 -11.274 -11.261 -11.261 -11.238 -11.238
  1 A     1 B     2 A     2 B     3 B     3 A     4 A     4 B                  
-11.237 -11.237  -8.986  -8.986  -6.667  -6.667  -6.667  -6.667
  5 B     5 A     6 A     6 B     7 B     7 A     8 A     8 B                  
 -6.666  -6.666  -1.196  -1.167  -1.035  -0.998  -0.986  -0.948
  9 B     9 A    10 A    10 B    11 A    11 B    12 A    12 B                  
 -0.809  -0.778  -0.748  -0.718  -0.706  -0.645  -0.572  -0.571
 13 A    13 B    14 A    14 B    15 A    15 B    16 A    16 B                  
 -0.559  -0.555  -0.545  -0.513  -0.512  -0.482  -0.469  -0.366
 17 A    17 B    18 A    18 B    19 A    19 B    20 A    21 A                  
 -0.351  -0.350  -0.286
 20 B    22 A    21 B                                                          
 -- Virtual --                   
  0.080   0.139   0.149   0.153   0.163   0.171   0.184   0.190
 23 A    22 B    23 B    24 A    25 A    24 B    25 B    26 A                  
  0.193   0.199   0.213   0.229   0.252   0.262   0.321   0.336
 27 A    26 B    28 A    27 B    28 B    29 A    29 B    30 A                  
  0.350   0.354   0.366   0.371   0.401   0.403   0.425   0.436
 31 A    30 B    31 B    32 A    33 A    32 B    33 B    34 A                  
  0.448   0.450   0.456   0.463   0.477   0.489   0.517   0.522
 34 B    35 A    35 B    36 A    37 A    36 B    38 A    37 B                  
  0.529   0.532   0.532   0.534   0.548   0.551   0.556   0.564
 38 B    39 A    39 B    40 A    40 B    41 A    41 B    42 B                  
  0.571   0.594   0.594   0.603   0.606   0.613   0.626   0.626
 42 A    43 B    43 A    44 A    44 B    45 A    45 B    46 A                  
  0.629   0.645   0.648   0.667   0.676   0.679   0.703   0.704
 46 B    47 B    47 A    48 A    49 A    48 B    49 B    50 A                  
  0.766   0.777   0.779   0.792   0.813   0.834   0.840   0.840
 51 A    50 B    51 B    52 A    52 B    53 B    53 A    54 B                  
  0.852   0.873   0.894   0.899   0.901   0.912   0.956   0.957
 55 B    54 A    55 A    56 A    56 B    57 A    58 A    57 B                  
  0.975   0.995   1.005   1.015   1.019   1.029   1.074   1.080
 59 A    58 B    60 A    59 B    61 A    60 B    62 A    61 B                  
  1.095   1.103   1.109   1.110   1.150   1.157   1.172   1.172
 62 B    63 A    63 B    64 A    64 B    65 A    65 B    66 A                  
  1.178   1.195   1.201   1.224   1.243   1.247   1.260   1.291
 66 B    67 A    67 B    68 A    68 B    69 A    69 B    70 A                  
  1.293   1.312   1.342   1.349   1.388   1.390   1.414   1.436
 70 B    71 A    72 A    71 B    73 A    72 B    73 B    74 A                  
  1.456   1.457   1.479   1.485   1.501   1.512   1.515   1.530
 74 B    75 A    75 B    76 A    76 B    77 B    77 A    78 A                  
  1.531   1.560   1.568   1.582   1.584   1.616   1.623   1.642
 78 B    79 A    79 B    80 B    80 A    81 A    81 B    82 A                  
  1.676   1.693   1.718   1.738   1.747   1.776   1.776   1.842
 82 B    83 B    83 A    84 B    84 A    85 A    85 B    86 A                  
  1.844   1.853   1.866   1.894   1.900   1.922   1.943   1.947
 86 B    87 A    87 B    88 B    88 A    89 B    89 A    90 A                  
  1.947   1.989   2.035   2.052   2.063   2.089   2.128   2.155
 90 B    91 B    91 A    92 B    92 A    93 A    93 B    94 A                  
  2.179   2.183   2.202   2.206   2.239   2.266   2.270   2.278
 94 B    95 A    95 B    96 B    96 A    97 A    97 B    98 A                  
  2.281   2.308   2.326   2.382   2.403   2.444   2.446   2.449
 98 B    99 B    99 A   100 B   100 A   101 B   101 A   102 A                  
  2.473   2.494   2.519   2.526   2.530   2.565   2.585   2.598
102 B   103 A   104 A   103 B   104 B   105 B   105 A   106 A                  
  2.634   2.671   2.698   2.705   2.716   2.739   2.751   2.765
106 B   107 B   107 A   108 B   109 B   108 A   109 A   110 B                  
  2.766   2.770   2.783   2.787   2.796   2.838   2.889   2.899
110 A   111 B   112 B   111 A   112 A   113 A   113 B   114 A                  
  2.904   2.922   2.948   2.959   2.997   3.009   3.012   3.023
114 B   115 B   115 A   116 A   116 B   117 A   117 B   118 B                  
  3.024   3.062   3.066   3.127   3.151   3.155   3.160   3.197
118 A   119 B   119 A   120 A   121 A   120 B   122 A   121 B                  
  3.207   3.209   3.244   3.249   3.265   3.266   3.272   3.290
123 A   122 B   124 A   123 B   124 B   125 A   126 A   125 B                  
  3.305   3.306   3.328   3.328   3.338   3.342   3.377   3.392
127 A   126 B   128 A   127 B   128 B   129 A   130 A   129 B                  
  3.419   3.423   3.429   3.441   3.442   3.452   3.461   3.485
131 A   130 B   131 B   132 A   132 B   133 A   134 A   133 B                  
  3.485   3.497   3.501   3.510   3.517   3.526   3.533   3.537
135 A   134 B   136 A   135 B   137 A   136 B   137 B   138 A                  
  3.547   3.562   3.573   3.591   3.595   3.608   3.640   3.664
138 B   139 A   140 A   141 A   139 B   142 A   140 B   141 B                  
  3.695   3.698   3.725   3.730   3.736   3.773   3.783   3.784
143 A   142 B   143 B   144 A   145 A   144 B   146 A   145 B                  
  3.829   3.844   3.862   3.884   3.891   3.906   3.928   3.938
146 B   147 A   147 B   148 A   148 B   149 A   150 A   149 B                  
  3.971   3.987   3.991   4.004   4.015   4.022   4.034   4.050
151 A   150 B   152 A   151 B   152 B   153 A   153 B   154 A                  
  4.084   4.115   4.120   4.142   4.154   4.171   4.177   4.190
154 B   155 A   155 B   156 A   156 B   157 A   157 B   158 A                  
  4.204   4.213   4.223   4.263   4.278   4.288   4.303   4.326
158 B   159 A   160 A   159 B   161 A   160 B   161 B   162 A                  
  4.354   4.362   4.376   4.411   4.425   4.461   4.523   4.533
163 A   162 B   164 A   163 B   164 B   165 A   166 A   165 B                  
  4.543   4.576   4.605   4.613   4.644   4.671   4.696   4.697
166 B   167 A   168 A   167 B   168 B   169 A   169 B   170 A                  
  4.712   4.727   4.755   4.778   4.781   4.816   4.834   4.877
170 B   171 A   171 B   172 A   172 B   173 A   173 B   174 B                  
  4.895   4.985   4.988   5.004   5.030   5.055   5.066   5.082
174 A   175 B   175 A   176 B   176 A   177 B   177 A   178 A                  
  5.085   5.121   5.194   5.249   5.249   5.292   5.316   5.385
178 B   179 A   179 B   180 B   180 A   181 B   181 A   182 A                  
  5.397   5.414   5.427   5.502   5.555   5.605   5.640   5.675
182 B   183 A   183 B   184 A   184 B   185 A   186 A   185 B                  
  5.765   5.928   5.939   6.062   6.093   6.147   6.169   6.234
186 B   187 A   187 B   188 A   188 B   189 A   189 B   190 B                  
  6.256   6.552   6.567   6.736   6.745   9.516  10.789  11.783
190 A   191 A   191 B   192 A   192 B   193 A   193 B   194 A                  
 12.300  13.602  13.609  14.617  14.687
194 B   195 A   195 B   196 B   196 A                                          
 
 Beta MOs, Restricted
 -- Occupied --                  
-91.985 -91.985 -11.275 -11.274 -11.261 -11.261 -11.238 -11.238
  1 A     1 B     2 A     2 B     3 B     3 A     4 A     4 B                  
-11.237 -11.237  -8.986  -8.986  -6.667  -6.667  -6.667  -6.667
  5 B     5 A     6 A     6 B     7 B     7 A     8 A     8 B                  
 -6.666  -6.666  -1.196  -1.167  -1.035  -0.998  -0.986  -0.948
  9 B     9 A    10 A    10 B    11 A    11 B    12 A    12 B                  
 -0.809  -0.778  -0.748  -0.718  -0.706  -0.645  -0.572  -0.571
 13 A    13 B    14 A    14 B    15 A    15 B    16 A    16 B                  
 -0.559  -0.555  -0.545  -0.513  -0.512  -0.482  -0.469  -0.366
 17 A    17 B    18 A    18 B    19 A    19 B    20 A    21 A                  
 -0.351  -0.350  -0.286
 20 B    22 A    21 B                                                          
 -- Virtual --                   
  0.080   0.139   0.149   0.153   0.163   0.171   0.184   0.190
 23 A    22 B    23 B    24 A    25 A    24 B    25 B    26 A                  
  0.193   0.199   0.213   0.229   0.252   0.262   0.321   0.336
 27 A    26 B    28 A    27 B    28 B    29 A    29 B    30 A                  
  0.350   0.354   0.366   0.371   0.401   0.403   0.425   0.436
 31 A    30 B    31 B    32 A    33 A    32 B    33 B    34 A                  
  0.448   0.450   0.456   0.463   0.477   0.489   0.517   0.522
 34 B    35 A    35 B    36 A    37 A    36 B    38 A    37 B                  
  0.529   0.532   0.532   0.534   0.548   0.551   0.556   0.564
 38 B    39 A    39 B    40 A    40 B    41 A    41 B    42 B                  
  0.571   0.594   0.594   0.603   0.606   0.613   0.626   0.626
 42 A    43 B    43 A    44 A    44 B    45 A    45 B    46 A                  
  0.629   0.645   0.648   0.667   0.676   0.679   0.703   0.704
 46 B    47 B    47 A    48 A    49 A    48 B    49 B    50 A                  
  0.766   0.777   0.779   0.792   0.813   0.834   0.840   0.840
 51 A    50 B    51 B    52 A    52 B    53 B    53 A    54 B                  
  0.852   0.873   0.894   0.899   0.901   0.912   0.956   0.957
 55 B    54 A    55 A    56 A    56 B    57 A    58 A    57 B                  
  0.975   0.995   1.005   1.015   1.019   1.029   1.074   1.080
 59 A    58 B    60 A    59 B    61 A    60 B    62 A    61 B                  
  1.095   1.103   1.109   1.110   1.150   1.157   1.172   1.172
 62 B    63 A    63 B    64 A    64 B    65 A    65 B    66 A                  
  1.178   1.195   1.201   1.224   1.243   1.247   1.260   1.291
 66 B    67 A    67 B    68 A    68 B    69 A    69 B    70 A                  
  1.293   1.312   1.342   1.349   1.388   1.390   1.414   1.436
 70 B    71 A    72 A    71 B    73 A    72 B    73 B    74 A                  
  1.456   1.457   1.479   1.485   1.501   1.512   1.515   1.530
 74 B    75 A    75 B    76 A    76 B    77 B    77 A    78 A                  
  1.531   1.560   1.568   1.582   1.584   1.616   1.623   1.642
 78 B    79 A    79 B    80 B    80 A    81 A    81 B    82 A                  
  1.676   1.693   1.718   1.738   1.747   1.776   1.776   1.842
 82 B    83 B    83 A    84 B    84 A    85 A    85 B    86 A                  
  1.844   1.853   1.866   1.894   1.900   1.922   1.943   1.947
 86 B    87 A    87 B    88 B    88 A    89 B    89 A    90 A                  
  1.947   1.989   2.035   2.052   2.063   2.089   2.128   2.155
 90 B    91 B    91 A    92 B    92 A    93 A    93 B    94 A                  
  2.179   2.183   2.202   2.206   2.239   2.266   2.270   2.278
 94 B    95 A    95 B    96 B    96 A    97 A    97 B    98 A                  
  2.281   2.308   2.326   2.382   2.403   2.444   2.446   2.449
 98 B    99 B    99 A   100 B   100 A   101 B   101 A   102 A                  
  2.473   2.494   2.519   2.526   2.530   2.565   2.585   2.598
102 B   103 A   104 A   103 B   104 B   105 B   105 A   106 A                  
  2.634   2.671   2.698   2.705   2.716   2.739   2.751   2.765
106 B   107 B   107 A   108 B   109 B   108 A   109 A   110 B                  
  2.766   2.770   2.783   2.787   2.796   2.838   2.889   2.899
110 A   111 B   112 B   111 A   112 A   113 A   113 B   114 A                  
  2.904   2.922   2.948   2.959   2.997   3.009   3.012   3.023
114 B   115 B   115 A   116 A   116 B   117 A   117 B   118 B                  
  3.024   3.062   3.066   3.127   3.151   3.155   3.160   3.197
118 A   119 B   119 A   120 A   121 A   120 B   122 A   121 B                  
  3.207   3.209   3.244   3.249   3.265   3.266   3.272   3.290
123 A   122 B   124 A   123 B   124 B   125 A   126 A   125 B                  
  3.305   3.306   3.328   3.328   3.338   3.342   3.377   3.392
127 A   126 B   128 A   127 B   128 B   129 A   130 A   129 B                  
  3.419   3.423   3.429   3.441   3.442   3.452   3.461   3.485
131 A   130 B   131 B   132 A   132 B   133 A   134 A   133 B                  
  3.485   3.497   3.501   3.510   3.517   3.526   3.533   3.537
135 A   134 B   136 A   135 B   137 A   136 B   137 B   138 A                  
  3.547   3.562   3.573   3.591   3.595   3.608   3.640   3.664
138 B   139 A   140 A   141 A   139 B   142 A   140 B   141 B                  
  3.695   3.698   3.725   3.730   3.736   3.773   3.783   3.784
143 A   142 B   143 B   144 A   145 A   144 B   146 A   145 B                  
  3.829   3.844   3.862   3.884   3.891   3.906   3.928   3.938
146 B   147 A   147 B   148 A   148 B   149 A   150 A   149 B                  
  3.971   3.987   3.991   4.004   4.015   4.022   4.034   4.050
151 A   150 B   152 A   151 B   152 B   153 A   153 B   154 A                  
  4.084   4.115   4.120   4.142   4.154   4.171   4.177   4.190
154 B   155 A   155 B   156 A   156 B   157 A   157 B   158 A                  
  4.204   4.213   4.223   4.263   4.278   4.288   4.303   4.326
158 B   159 A   160 A   159 B   161 A   160 B   161 B   162 A                  
  4.354   4.362   4.376   4.411   4.425   4.461   4.523   4.533
163 A   162 B   164 A   163 B   164 B   165 A   166 A   165 B                  
  4.543   4.576   4.605   4.613   4.644   4.671   4.696   4.697
166 B   167 A   168 A   167 B   168 B   169 A   169 B   170 A                  
  4.712   4.727   4.755   4.778   4.781   4.816   4.834   4.877
170 B   171 A   171 B   172 A   172 B   173 A   173 B   174 B                  
  4.895   4.985   4.988   5.004   5.030   5.055   5.066   5.082
174 A   175 B   175 A   176 B   176 A   177 B   177 A   178 A                  
  5.085   5.121   5.194   5.249   5.249   5.292   5.316   5.385
178 B   179 A   179 B   180 B   180 A   181 B   181 A   182 A                  
  5.397   5.414   5.427   5.502   5.555   5.605   5.640   5.675
182 B   183 A   183 B   184 A   184 B   185 A   186 A   185 B                  
  5.765   5.928   5.939   6.062   6.093   6.147   6.169   6.234
186 B   187 A   187 B   188 A   188 B   189 A   189 B   190 B                  
  6.256   6.552   6.567   6.736   6.745   9.516  10.789  11.783
190 A   191 A   191 B   192 A   192 B   193 A   193 B   194 A                  
 12.300  13.602  13.609  14.617  14.687
194 B   195 A   195 B   196 B   196 A                                          
 --------------------------------------------------------------
 
          Ground-State Mulliken Net Atomic Charges

     Atom                 Charge (a.u.)
  ----------------------------------------
      1 S                     0.116098
      2 C                    -0.237698
      3 C                    -0.194176
      4 C                    -0.216220
      5 C                     0.001657
      6 H                     0.171483
      7 C                     0.001657
      8 S                     0.116098
      9 C                    -0.216220
     10 C                    -0.237698
     11 C                    -0.194176
     12 H                     0.174355
     13 H                     0.184502
     14 H                     0.174355
     15 H                     0.184502
     16 H                     0.171483
  ----------------------------------------
  Sum of atomic charges =     0.000000

 -----------------------------------------------------------------
                    Cartesian Multipole Moments
 -----------------------------------------------------------------
    Charge (ESU x 10^10)
                -0.0000
    Dipole Moment (Debye)
         X      -0.0000      Y      -0.0000      Z       0.3126
       Tot       0.3126
    Quadrupole Moments (Debye-Ang)
        XX     -61.2233     XY       0.8443     YY     -68.9713
        XZ       0.0000     YZ       0.0000     ZZ     -76.8676
    Octopole Moments (Debye-Ang^2)
       XXX       0.0000    XXY      -0.0000    XYY       0.0000
       YYY      -0.0000    XXZ      -2.1232    XYZ       7.6964
       YYZ       5.6932    XZZ      -0.0000    YZZ       0.0000
       ZZZ      -0.9453
    Hexadecapole Moments (Debye-Ang^3)
      XXXX   -1834.2874   XXXY     -18.3317   XXYY    -407.6719
      XYYY      11.0247   YYYY    -512.1436   XXXZ       0.0000
      XXYZ       0.0000   XYYZ       0.0000   YYYZ       0.0000
      XXZZ    -407.1736   XYZZ      -4.0469   YYZZ    -112.9952
      XZZZ       0.0000   YZZZ       0.0000   ZZZZ    -152.1321
 -----------------------------------------------------------------
Archival summary:
1\1\nid01265\OPT\MP2\BasisUnspecified\286\MonMar616:29:182017MonMar616:29:182017\0\\#,OPT,MP2,BasisUnspecified,\\0,1\S\C,1,1.70621\H,2,1.0718,1,120.352\C,2,1.37309,1,111.434,3,-179.948,0\H,4,1.07434,2,123.04,1,-179.961,0\C,4,1.40395,2,112.599,1,-0.650809,0\H,6,1.07527,4,124.633,2,-178.207,0\C,6,1.379,4,113.093,2,0.335319,0\C,8,1.43881,6,128.883,4,-178.716,0\C,9,1.379,8,128.883,6,140,0\H,10,1.07527,9,122.256,8,-0.133926,0\C,10,1.40395,9,113.093,8,-178.716,0\H,12,1.07434,10,124.358,9,179.634,0\C,12,1.37309,10,112.599,9,0.335319,0\H,14,1.0718,12,128.213,10,179.406,0\S,14,1.70621,12,111.434,10,-0.650809,0\\HF=-1101.59918\MP2=-1103.41398\\@

 Total job time:  8935.34s(wall), 46474.57s(cpu) 
 Mon Mar  6 16:29:18 2017

        *************************************************************
        *                                                           *
        *  Thank you very much for using Q-Chem.  Have a nice day.  *
        *                                                           *
        *************************************************************


0 sent ACK to 0 
now end server 0 ... 
