srun -N 1 --ntasks-per-node 1 --cpus-per-task 64 --cpu_bind=cores --nodelist nid01256 /global/project/projectdirs/jcesr/qchem/qc44/cnl_qc441/dist/exe/qcprog.cori.haswell.exe .pt_mp2_-170.0.in.29824.qcin.1 /dev/shm/eg_qchem/qchem29824/
Process 0 of 1 is on nid01256 - thread support 0
initial socket setup ...start
initial socket setup ...done 
now start server 0 ... 
nid01256 10.128.4
Q-Chem Developer Version! Running on 10.128.4.*
                  Welcome to Q-Chem
     A Quantum Leap Into The Future Of Chemistry


 Q-Chem 4.4, Q-Chem, Inc., Pleasanton, CA (2016)

 Y. Shao,  Z. Gan,  E. Epifanovsky,  A. T. B. Gilbert,  M. Wormit,  
 J. Kussmann,  A. W. Lange,  A. Behn,  J. Deng,  X. Feng,  D. Ghosh,  
 M. Goldey,  P. R. Horn,  L. D. Jacobson,  I. Kaliman,  F.Rob,  
 R. Z. Khaliullin,  T. Kus,  A. Landau,  J. Liu,  E. I. Proynov,  Y. M. Rhee,  
 R. M. Richard,  M. A. Rohrdanz,  R. P. Steele,  E. J. Sundstrom,  
 H. L. Woodcock III,  P. M. Zimmerman,  D. Zuev,  B. Albrecht,  E. Alguire,  
 B. Austin,  S. A. Baeppler,  G. J. O. Beran,  Y. A. Bernard,  E. Berquist,  
 K. Brandhorst,  K. B. Bravaya,  S. T. Brown,  D. Casanova,  C.-M. Chang,  
 Y. Chen,  S. H. Chien,  K. D. Closser,  M. P. Coons,  D. L. Crittenden,  
 S. Dasgupta,  M. Diedenhofen,  R. A. DiStasio Jr.,  H. Do,  A. D. Dutoi,  
 R. G. Edgar,  P.-T. Fang,  S. Fatehi,  Q. Feng,  L. Fusti-Molnar,  
 A. Ghysels,  A. Golubeva-Zadorozhnaya,  J. Gomes,  A. Gunina,  
 M. W. D. Hanson-Heine,  P. H. P. Harbach,  A. W. Hauser,  E. G. Hohenstein,  
 Z. C. Holden,  K. Hui,  T.-C. Jagau,  H. Ji,  B. Kaduk,  K. Khistyaev,  
 Jaehoon Kim,  Jihan Kim,  R. A. King,  P. Klunzinger,  D. Kosenkov,  
 T. Kowalczyk,  C. M. Krauter,  A. Kunitsa,  K. U. Lao,  A. Laurent,  
 K. V. Lawler,  D. Lefrancois,  S. Lehtola,  S. V. Levchenko,  C. Y. Lin,  
 Y.-S. Lin,  F. Liu,  E. Livshits,  R. C. Lochan,  A. Luenser,  P. Manohar,  
 S. F. Manzer,  S.-P. Mao,  Y. Mao,  N. Mardirossian,  A. V. Marenich,  
 L. A. Martinez-Martinez,  S. A. Maurer,  N. J. Mayhall,  J.-M. Mewes,  
 A. F. Morrison,  K. Nanda,  C. M. Oana,  R. Olivares-Amaya,  D. P. O'Neill,  
 J. A. Parkhill,  T. M. Perrine,  R. Peverati,  P. A. Pieniazek,  F. Plasser,  
 A. Prociuk,  D. R. Rehn,  E. Rosta,  N. J. Russ,  N. Sergueev,  
 S. M. Sharada,  S. Sharma,  D. W. Small,  A. Sodt,  T. Stauch,  T. Stein,  
 D. Stuck,  Y.-C. Su,  A. J. W. Thom,  T. Tsuchimochi,  L. Vogt,  O. Vydrov,  
 T. Wang,  M. A. Watson,  J. Wenzel,  A. White,  C. F. Williams,  
 V. Vanovschi,  S. Yeganeh,  S. R. Yost,  Z.-Q. You,  I. Y. Zhang,  X. Zhang,  
 Y. Zhao,  B. R. Brooks,  G. K. L. Chan,  D. M. Chipman,  C. J. Cramer,  
 W. A. Goddard III,  M. S. Gordon,  W. J. Hehre,  A. Klamt,  
 H. F. Schaefer III,  M. W. Schmidt,  C. D. Sherrill,  D. G. Truhlar,  
 A. Warshel,  X. Xu,  A. Aspuru-Guzik,  R. Baer,  A. T. Bell,  N. A. Besley,  
 J.-D. Chai,  A. Dreuw,  B. D. Dunietz,  T. R. Furlani,  S. R. Gwaltney,  
 C.-P. Hsu,  Y. Jung,  J. Kong,  D. S. Lambrecht,  W. Liang,  C. Ochsenfeld,  
 V. A. Rassolov,  L. V. Slipchenko,  J. E. Subotnik,  T. Van Voorhis,  
 J. M. Herbert,  A. I. Krylov,  P. M. W. Gill,  M. Head-Gordon

 Contributors to earlier versions of Q-Chem not listed above: 
 R. D. Adamson,  J. Baker,  E. F. C. Byrd,  A. K. Chakraborty,  C.-L. Cheng,  
 H. Dachsel,  R. J. Doerksen,  G. Hawkins,  A. Heyden,  S. Hirata,  
 G. Kedziora,  F. J. Keil,  C. Kelley,  P. P. Korambath,  W. Kurlancheek,  
 A. M. Lee,  M. S. Lee,  D. Liotard,  I. Lotan,  P. E. Maslen,  N. Nair,  
 D. Neuhauser,  R. Olson,  B. Peters,  J. Ritchie,  N. E. Schultz,  
 N. Shenvi,  A. C. Simmonett,  K. S. Thanthiriwatte,  Q. Wu,  W. Zhang

 Please cite Q-Chem as follows:
 Y. Shao et al., Mol. Phys. 113, 184-215 (2015)
 DOI: 10.1080/00268976.2014.952696

 Q-Chem 4.4.1 for Intel X86 EM64T Linux

 Parts of Q-Chem use Armadillo 5.200.1 (Boston Tea Smuggler).
 http://arma.sourceforge.net/

 Q-Chem begins on Mon Mar  6 14:00:22 2017  

Host: nid01196
0

     Scratch files written to /dev/shm/eg_qchem/qchem29824//
 Parallel job on  1  processors

Checking the input file for inconsistencies... 	...done.

--------------------------------------------------------------
User input:
--------------------------------------------------------------
$molecule
 0  1
 S           1.80900300       -1.15938900        0.25896800
 C           3.16466000       -0.14246800        0.05606700
 C           2.78757500        1.14089100       -0.25226100
 C           1.39402000        1.28822000       -0.33563400
 C           0.70898100        0.11689900       -0.08798100
 H           0.89277600        2.20524100       -0.58940400
 C          -0.70898100       -0.11689900       -0.08798100
 S          -1.79638238        1.08284616       -0.66893096
 C          -1.40359724       -1.23013497        0.33724515
 C          -3.15754235        0.09930012       -0.36399856
 C          -2.79326680       -1.10637076        0.18183165
 H          -3.50309163       -1.86765620        0.44783107
 H           4.15569300       -0.53353100        0.17259300
 H           3.49202900        1.93475000       -0.41867900
 H          -4.14227347        0.45214285       -0.59736868
 H          -0.90946984       -2.10399448        0.72296518
$end


$rem
         jobtype = opt
        exchange = hf
           basis = cc-pvtz
  max_scf_cycles = 100
      mem_static = 6200
       mem_total = 62000
          method = mp2
$end


$opt
CONSTRAINT
tors 4 5 7 9 -170.0
ENDCONSTRAINT
$end

--------------------------------------------------------------
 Atom  11: ( -2.7826352535, -1.1632047493,  0.0870903922)
         ->( -2.7826352583, -1.1632047534,  0.0870903942)
 Atom  14: (  3.4826362917,  1.9764755993,  0.1395459481)
         ->(  3.4826362865,  1.9764755959,  0.1395459523)
 ----------------------------------------------------------------
             Standard Nuclear Orientation (Angstroms)
    I     Atom           X                Y                Z
 ----------------------------------------------------------------
    1      S       1.8170217588    -1.1917577815    -0.0917624973
    2      C       3.1668896617    -0.1486513449    -0.0380163861
    3      C       2.7826352583     1.1632047534     0.0870903942
    4      C       1.3876117992     1.3152636920     0.1250384792
    5      C       0.7087698581     0.1181724298     0.0314999628
    6      H       0.8798290037     2.2607253858     0.1945445439
    7      C      -0.7087698577    -0.1181724291     0.0314999629
    8      S      -1.8170217603     1.1917577800    -0.0917624960
    9      C      -1.3876117977    -1.3152636913     0.1250384838
   10      C      -3.1668896655     0.1486513426    -0.0380163878
   11      C      -2.7826352583    -1.1632047534     0.0870903942
   12      H      -3.4826362865    -1.9764755959     0.1395459523
   13      H       4.1600832299    -0.5466881010    -0.0995652502
   14      H       3.4826362865     1.9764755959     0.1395459523
   15      H      -4.1600832315     0.5466881012    -0.0995652536
   16      H      -0.8798290013    -2.2607253836     0.1945445431
 ----------------------------------------------------------------
 Molecular Point Group                 C2    NOp =  2
 Largest Abelian Subgroup              C2    NOp =  2
 Nuclear Repulsion Energy =   636.8153423636 hartrees
 There are       43 alpha and       43 beta electrons
 Requested basis set is cc-pVTZ
 There are 140 shells and 392 basis functions

 Total QAlloc Memory Limit  62000 MB
 Mega-Array Size      6061 MB
 MEM_STATIC part      6200 MB
 A cutoff of  1.0D-11 yielded   8025 shell pairs
 There are     62405 function pairs (     81373 Cartesian)
 
 -------------------------------------------------------
 OpenMP Integral Computing Module                       
 Release: version 1.0, May 2013, Q-Chem Inc. Pittsburgh 
 -------------------------------------------------------
 Integral Job Info:
 Integral job number is                      11
 Integral operator is                         1
 short-range coefficients                     0
 long-range coefficients              100000000
 Omega coefficients                           0
 if combine SR and LR in K                    0
 Integral screening is                        0
 Integral computing path is                   2
 max size of driver memory is            800000
 size of driver memory is                776718
 size of scratch memory is             26248924
 max col of scratch BK array              10000
 max len of scratch array in speh3          662
 max len of scratch index in speh4           32
 max int batch size is                      520
 min int batch size is                       52
 fixed nKL is                                52
 max L of basis functions is                  3
 order of int derivative is                   0
 number of shells is                        140
 number of basis is                         448
 number of cartesian basis is               448
 number of contracted shell pairs          8025
 number of primitive shell pairs          28593
 maxK2 (contraction) of shell pair          121
 max number of K2 of shell pair               1
 max number of CS2 of shell pair           1044
 max number of PS2 of shell pair           3080
 mem total for path MDJ                  223748
 -------------------------------------------------------
 Smallest overlap matrix eigenvalue = 6.44E-05

 Scale SEOQF with 1.000000e-01/1.000000e-01/1.000000e+00

 Standard Electronic Orientation quadrupole field applied
 Nucleus-field energy     =     0.0000000211 hartrees
 Guess from superposition of atomic densities
 Warning:  Energy on first SCF cycle will be non-variational
 A restricted Hartree-Fock SCF calculation will be
 performed using Pulay DIIS extrapolation
 SCF converges when DIIS error is below 1.0E-08
 using 16 threads for integral computing 
 ---------------------------------------
  Cycle       Energy         DIIS Error
 ---------------------------------------
    1   -1106.0422381700      2.98E-02
    2   -1092.8500482266      1.35E-02
    3   -1101.1513744599      4.34E-03
    4   -1101.5104270546      2.08E-03
    5   -1101.5912372082      5.66E-04
    6   -1101.5977500959      1.77E-04
    7   -1101.5985830536      4.73E-05
    8   -1101.5986888439      2.28E-05
    9   -1101.5987167583      9.16E-06
   10   -1101.5987234550      3.63E-06
   11   -1101.5987242929      1.27E-06
   12   -1101.5987243799      4.87E-07
   13   -1101.5987243838      1.30E-07
   14   -1101.5987243895      5.08E-08
   15   -1101.5987243922      1.54E-08
   16   -1101.5987243917      5.16E-09 Convergence criterion met
 ---------------------------------------
 SCF time:  CPU 652.93 s  wall 40.86 s
 SCF   energy in the final basis set = -1101.5987243917
 Total energy in the final basis set = -1101.5987243917
 
 Components of the MP2 correlation energy:
        aaaa  correlation energy =        -0.2323231264 au
        abab  correlation energy =        -1.3504805279 au
        bbbb  correlation energy =        -0.2323231264 au
        non-Brillouin singles    =        -0.0000000000 au

 Total  MP2   correlation energy =        -1.8151267808 au
        MP2         total energy =     -1103.4138511726 au

  Entering Z-vector solver.
   1         0           1      0.000264    0.000264
   2         0           1      0.000116    0.000116
   3         0           1      0.000049    0.000049
   4         0           1      0.000024    0.000024
   5         0           1      0.000006    0.000006
   6         0           1      0.000002    0.000002
   7         1           0      0.000000    0.000000    Roots Converged
 
 --------------------------------------------------------------
             Orbital Energies (a.u.) and Symmetries
 --------------------------------------------------------------
 
 Alpha MOs, Restricted
 -- Occupied --                  
-91.984 -91.984 -11.276 -11.275 -11.262 -11.262 -11.239 -11.239
  1 A     1 B     2 A     2 B     3 B     3 A     4 B     4 A                  
-11.237 -11.237  -8.986  -8.986  -6.667  -6.667  -6.667  -6.667
  5 A     5 B     6 A     6 B     7 B     7 A     8 A     8 B                  
 -6.666  -6.666  -1.197  -1.167  -1.036  -1.001  -0.985  -0.949
  9 B     9 A    10 A    10 B    11 A    11 B    12 A    12 B                  
 -0.810  -0.782  -0.744  -0.718  -0.708  -0.645  -0.572  -0.572
 13 A    13 B    14 A    14 B    15 A    15 B    16 A    16 B                  
 -0.557  -0.555  -0.551  -0.513  -0.513  -0.484  -0.465  -0.378
 17 A    17 B    18 A    18 B    19 A    19 B    20 A    21 A                  
 -0.356  -0.347  -0.277
 20 B    22 A    21 B                                                          
 -- Virtual --                   
  0.071   0.146   0.148   0.153   0.163   0.172   0.183   0.191
 23 A    22 B    23 B    24 A    25 A    24 B    25 B    26 A                  
  0.200   0.208   0.209   0.228   0.263   0.275   0.319   0.345
 27 A    26 B    28 A    27 B    28 B    29 A    29 B    30 A                  
  0.357   0.365   0.374   0.374   0.392   0.404   0.420   0.443
 31 A    30 B    31 B    32 A    33 A    32 B    33 B    34 B                  
  0.448   0.457   0.465   0.469   0.476   0.478   0.512   0.520
 34 A    35 B    35 A    36 A    36 B    37 A    38 A    37 B                  
  0.533   0.536   0.539   0.547   0.559   0.560   0.573   0.574
 39 A    38 B    39 B    40 A    41 A    40 B    41 B    42 A                  
  0.583   0.587   0.596   0.604   0.612   0.618   0.622   0.627
 42 B    43 A    43 B    44 B    45 B    44 A    45 A    46 B                  
  0.632   0.645   0.647   0.653   0.660   0.676   0.709   0.714
 46 A    47 B    47 A    48 A    49 A    48 B    50 A    49 B                  
  0.770   0.778   0.794   0.801   0.818   0.836   0.852   0.857
 51 A    50 B    51 B    52 A    52 B    53 B    54 B    53 A                  
  0.867   0.875   0.878   0.895   0.910   0.939   0.944   0.962
 55 B    56 B    54 A    55 A    56 A    57 B    57 A    58 A                  
  0.986   0.996   1.007   1.019   1.027   1.037   1.069   1.089
 58 B    59 A    60 A    59 B    60 B    61 A    62 A    61 B                  
  1.094   1.099   1.111   1.115   1.144   1.152   1.168   1.169
 63 A    62 B    64 A    63 B    64 B    65 B    65 A    66 B                  
  1.176   1.183   1.189   1.231   1.241   1.253   1.273   1.285
 66 A    67 B    67 A    68 A    69 A    68 B    69 B    70 B                  
  1.288   1.303   1.322   1.344   1.381   1.397   1.415   1.439
 70 A    71 A    71 B    72 A    73 A    72 B    74 A    73 B                  
  1.446   1.448   1.473   1.479   1.497   1.518   1.532   1.541
 74 B    75 A    76 A    75 B    76 B    77 A    77 B    78 A                  
  1.543   1.558   1.566   1.575   1.594   1.616   1.628   1.659
 78 B    79 B    79 A    80 B    80 A    81 A    81 B    82 A                  
  1.666   1.685   1.701   1.735   1.759   1.786   1.821   1.851
 82 B    83 B    83 A    84 B    84 A    85 A    85 B    86 B                  
  1.853   1.865   1.878   1.883   1.895   1.901   1.922   1.939
 86 A    87 A    87 B    88 A    88 B    89 A    89 B    90 A                  
  1.958   1.968   2.035   2.071   2.079   2.085   2.121   2.178
 90 B    91 B    91 A    92 A    92 B    93 A    93 B    94 A                  
  2.178   2.190   2.198   2.200   2.259   2.261   2.271   2.294
 94 B    95 B    96 B    95 A    97 B    96 A    97 A    98 B                  
  2.302   2.307   2.324   2.364   2.406   2.424   2.436   2.458
 99 B    98 A    99 A   100 B   100 A   101 B   101 A   102 B                  
  2.467   2.509   2.525   2.538   2.544   2.565   2.588   2.600
102 A   103 A   104 A   103 B   104 B   105 B   105 A   106 A                  
  2.632   2.645   2.693   2.696   2.730   2.739   2.750   2.755
106 B   107 B   108 B   107 A   109 B   108 A   110 B   109 A                  
  2.763   2.770   2.805   2.809   2.825   2.826   2.878   2.902
111 B   110 A   112 B   111 A   112 A   113 A   113 B   114 A                  
  2.914   2.934   2.943   2.965   2.990   3.008   3.013   3.016
114 B   115 B   115 A   116 B   116 A   117 B   118 B   117 A                  
  3.024   3.060   3.078   3.122   3.143   3.157   3.163   3.201
118 A   119 B   119 A   120 A   121 A   120 B   122 A   121 B                  
  3.203   3.214   3.239   3.247   3.255   3.271   3.280   3.280
123 A   122 B   123 B   124 B   124 A   125 A   125 B   126 A                  
  3.301   3.310   3.313   3.324   3.330   3.348   3.361   3.386
126 B   127 A   127 B   128 B   128 A   129 A   130 A   131 A                  
  3.389   3.425   3.433   3.439   3.450   3.468   3.475   3.477
129 B   130 B   131 B   132 A   133 A   134 A   132 B   135 A                  
  3.493   3.497   3.504   3.510   3.523   3.528   3.531   3.539
133 B   136 A   134 B   135 B   137 A   136 B   138 A   137 B                  
  3.550   3.555   3.557   3.574   3.601   3.622   3.638   3.665
139 A   140 A   138 B   141 A   139 B   142 A   140 B   141 B                  
  3.693   3.696   3.718   3.733   3.748   3.766   3.773   3.782
143 A   142 B   143 B   144 A   144 B   145 A   145 B   146 A                  
  3.829   3.838   3.865   3.882   3.900   3.901   3.936   3.937
146 B   147 A   147 B   148 A   148 B   149 A   150 A   149 B                  
  3.953   3.984   4.001   4.005   4.029   4.032   4.040   4.056
151 A   150 B   152 A   151 B   153 A   152 B   153 B   154 A                  
  4.078   4.100   4.115   4.123   4.157   4.175   4.178   4.191
155 A   154 B   155 B   156 B   156 A   157 A   157 B   158 A                  
  4.203   4.208   4.235   4.250   4.272   4.283   4.313   4.327
159 A   158 B   160 A   161 A   159 B   160 B   162 A   163 A                  
  4.328   4.364   4.382   4.411   4.421   4.468   4.511   4.529
161 B   162 B   164 A   163 B   164 B   165 A   166 A   165 B                  
  4.566   4.600   4.618   4.632   4.648   4.679   4.692   4.692
166 B   167 A   168 A   167 B   168 B   169 A   169 B   170 A                  
  4.718   4.736   4.741   4.773   4.786   4.804   4.832   4.871
171 A   170 B   172 A   171 B   172 B   173 B   173 A   174 B                  
  4.891   4.957   5.011   5.041   5.054   5.077   5.078   5.093
174 A   175 B   176 B   175 A   176 A   177 B   177 A   178 A                  
  5.109   5.154   5.181   5.250   5.267   5.290   5.320   5.395
178 B   179 A   179 B   180 A   180 B   181 B   181 A   182 A                  
  5.405   5.417   5.421   5.508   5.551   5.620   5.630   5.675
182 B   183 A   183 B   184 A   184 B   185 A   186 A   185 B                  
  5.764   5.936   5.939   6.083   6.099   6.161   6.171   6.287
186 B   187 B   187 A   188 A   188 B   189 B   189 A   190 B                  
  6.319   6.564   6.565   6.741   6.763   9.502  10.848  11.803
190 A   191 B   191 A   192 B   192 A   193 A   193 B   194 A                  
 12.406  13.636  13.782  14.631  14.777
194 B   195 B   195 A   196 B   196 A                                          
 
 Beta MOs, Restricted
 -- Occupied --                  
-91.984 -91.984 -11.276 -11.275 -11.262 -11.262 -11.239 -11.239
  1 A     1 B     2 A     2 B     3 B     3 A     4 B     4 A                  
-11.237 -11.237  -8.986  -8.986  -6.667  -6.667  -6.667  -6.667
  5 A     5 B     6 A     6 B     7 B     7 A     8 A     8 B                  
 -6.666  -6.666  -1.197  -1.167  -1.036  -1.001  -0.985  -0.949
  9 B     9 A    10 A    10 B    11 A    11 B    12 A    12 B                  
 -0.810  -0.782  -0.744  -0.718  -0.708  -0.645  -0.572  -0.572
 13 A    13 B    14 A    14 B    15 A    15 B    16 A    16 B                  
 -0.557  -0.555  -0.551  -0.513  -0.513  -0.484  -0.465  -0.378
 17 A    17 B    18 A    18 B    19 A    19 B    20 A    21 A                  
 -0.356  -0.347  -0.277
 20 B    22 A    21 B                                                          
 -- Virtual --                   
  0.071   0.146   0.148   0.153   0.163   0.172   0.183   0.191
 23 A    22 B    23 B    24 A    25 A    24 B    25 B    26 A                  
  0.200   0.208   0.209   0.228   0.263   0.275   0.319   0.345
 27 A    26 B    28 A    27 B    28 B    29 A    29 B    30 A                  
  0.357   0.365   0.374   0.374   0.392   0.404   0.420   0.443
 31 A    30 B    31 B    32 A    33 A    32 B    33 B    34 B                  
  0.448   0.457   0.465   0.469   0.476   0.478   0.512   0.520
 34 A    35 B    35 A    36 A    36 B    37 A    38 A    37 B                  
  0.533   0.536   0.539   0.547   0.559   0.560   0.573   0.574
 39 A    38 B    39 B    40 A    41 A    40 B    41 B    42 A                  
  0.583   0.587   0.596   0.604   0.612   0.618   0.622   0.627
 42 B    43 A    43 B    44 B    45 B    44 A    45 A    46 B                  
  0.632   0.645   0.647   0.653   0.660   0.676   0.709   0.714
 46 A    47 B    47 A    48 A    49 A    48 B    50 A    49 B                  
  0.770   0.778   0.794   0.801   0.818   0.836   0.852   0.857
 51 A    50 B    51 B    52 A    52 B    53 B    54 B    53 A                  
  0.867   0.875   0.878   0.895   0.910   0.939   0.944   0.962
 55 B    56 B    54 A    55 A    56 A    57 B    57 A    58 A                  
  0.986   0.996   1.007   1.019   1.027   1.037   1.069   1.089
 58 B    59 A    60 A    59 B    60 B    61 A    62 A    61 B                  
  1.094   1.099   1.111   1.115   1.144   1.152   1.168   1.169
 63 A    62 B    64 A    63 B    64 B    65 B    65 A    66 B                  
  1.176   1.183   1.189   1.231   1.241   1.253   1.273   1.285
 66 A    67 B    67 A    68 A    69 A    68 B    69 B    70 B                  
  1.288   1.303   1.322   1.344   1.381   1.397   1.415   1.439
 70 A    71 A    71 B    72 A    73 A    72 B    74 A    73 B                  
  1.446   1.448   1.473   1.479   1.497   1.518   1.532   1.541
 74 B    75 A    76 A    75 B    76 B    77 A    77 B    78 A                  
  1.543   1.558   1.566   1.575   1.594   1.616   1.628   1.659
 78 B    79 B    79 A    80 B    80 A    81 A    81 B    82 A                  
  1.666   1.685   1.701   1.735   1.759   1.786   1.821   1.851
 82 B    83 B    83 A    84 B    84 A    85 A    85 B    86 B                  
  1.853   1.865   1.878   1.883   1.895   1.901   1.922   1.939
 86 A    87 A    87 B    88 A    88 B    89 A    89 B    90 A                  
  1.958   1.968   2.035   2.071   2.079   2.085   2.121   2.178
 90 B    91 B    91 A    92 A    92 B    93 A    93 B    94 A                  
  2.178   2.190   2.198   2.200   2.259   2.261   2.271   2.294
 94 B    95 B    96 B    95 A    97 B    96 A    97 A    98 B                  
  2.302   2.307   2.324   2.364   2.406   2.424   2.436   2.458
 99 B    98 A    99 A   100 B   100 A   101 B   101 A   102 B                  
  2.467   2.509   2.525   2.538   2.544   2.565   2.588   2.600
102 A   103 A   104 A   103 B   104 B   105 B   105 A   106 A                  
  2.632   2.645   2.693   2.696   2.730   2.739   2.750   2.755
106 B   107 B   108 B   107 A   109 B   108 A   110 B   109 A                  
  2.763   2.770   2.805   2.809   2.825   2.826   2.878   2.902
111 B   110 A   112 B   111 A   112 A   113 A   113 B   114 A                  
  2.914   2.934   2.943   2.965   2.990   3.008   3.013   3.016
114 B   115 B   115 A   116 B   116 A   117 B   118 B   117 A                  
  3.024   3.060   3.078   3.122   3.143   3.157   3.163   3.201
118 A   119 B   119 A   120 A   121 A   120 B   122 A   121 B                  
  3.203   3.214   3.239   3.247   3.255   3.271   3.280   3.280
123 A   122 B   123 B   124 B   124 A   125 A   125 B   126 A                  
  3.301   3.310   3.313   3.324   3.330   3.348   3.361   3.386
126 B   127 A   127 B   128 B   128 A   129 A   130 A   131 A                  
  3.389   3.425   3.433   3.439   3.450   3.468   3.475   3.477
129 B   130 B   131 B   132 A   133 A   134 A   132 B   135 A                  
  3.493   3.497   3.504   3.510   3.523   3.528   3.531   3.539
133 B   136 A   134 B   135 B   137 A   136 B   138 A   137 B                  
  3.550   3.555   3.557   3.574   3.601   3.622   3.638   3.665
139 A   140 A   138 B   141 A   139 B   142 A   140 B   141 B                  
  3.693   3.696   3.718   3.733   3.748   3.766   3.773   3.782
143 A   142 B   143 B   144 A   144 B   145 A   145 B   146 A                  
  3.829   3.838   3.865   3.882   3.900   3.901   3.936   3.937
146 B   147 A   147 B   148 A   148 B   149 A   150 A   149 B                  
  3.953   3.984   4.001   4.005   4.029   4.032   4.040   4.056
151 A   150 B   152 A   151 B   153 A   152 B   153 B   154 A                  
  4.078   4.100   4.115   4.123   4.157   4.175   4.178   4.191
155 A   154 B   155 B   156 B   156 A   157 A   157 B   158 A                  
  4.203   4.208   4.235   4.250   4.272   4.283   4.313   4.327
159 A   158 B   160 A   161 A   159 B   160 B   162 A   163 A                  
  4.328   4.364   4.382   4.411   4.421   4.468   4.511   4.529
161 B   162 B   164 A   163 B   164 B   165 A   166 A   165 B                  
  4.566   4.600   4.618   4.632   4.648   4.679   4.692   4.692
166 B   167 A   168 A   167 B   168 B   169 A   169 B   170 A                  
  4.718   4.736   4.741   4.773   4.786   4.804   4.832   4.871
171 A   170 B   172 A   171 B   172 B   173 B   173 A   174 B                  
  4.891   4.957   5.011   5.041   5.054   5.077   5.078   5.093
174 A   175 B   176 B   175 A   176 A   177 B   177 A   178 A                  
  5.109   5.154   5.181   5.250   5.267   5.290   5.320   5.395
178 B   179 A   179 B   180 A   180 B   181 B   181 A   182 A                  
  5.405   5.417   5.421   5.508   5.551   5.620   5.630   5.675
182 B   183 A   183 B   184 A   184 B   185 A   186 A   185 B                  
  5.764   5.936   5.939   6.083   6.099   6.161   6.171   6.287
186 B   187 B   187 A   188 A   188 B   189 B   189 A   190 B                  
  6.319   6.564   6.565   6.741   6.763   9.502  10.848  11.803
190 A   191 B   191 A   192 B   192 A   193 A   193 B   194 A                  
 12.406  13.636  13.782  14.631  14.777
194 B   195 B   195 A   196 B   196 A                                          
 --------------------------------------------------------------
 
          Ground-State Mulliken Net Atomic Charges

     Atom                 Charge (a.u.)
  ----------------------------------------
      1 S                     0.102474
      2 C                    -0.238535
      3 C                    -0.196799
      4 C                    -0.214446
      5 C                     0.026303
      6 H                     0.160354
      7 C                     0.026304
      8 S                     0.102475
      9 C                    -0.214448
     10 C                    -0.238537
     11 C                    -0.196797
     12 H                     0.174887
     13 H                     0.185762
     14 H                     0.174887
     15 H                     0.185762
     16 H                     0.160354
  ----------------------------------------
  Sum of atomic charges =     0.000000

 -----------------------------------------------------------------
                    Cartesian Multipole Moments
 -----------------------------------------------------------------
    Charge (ESU x 10^10)
                -0.0000
    Dipole Moment (Debye)
         X      -0.0000      Y       0.0000      Z       0.0145
       Tot       0.0145
    Quadrupole Moments (Debye-Ang)
        XX     -61.1758     XY       0.9926     YY     -67.8420
        XZ      -0.0000     YZ      -0.0000     ZZ     -78.0683
    Octopole Moments (Debye-Ang^2)
       XXX       0.0000    XXY       0.0000    XYY      -0.0000
       YYY       0.0000    XXZ      -1.9896    XYZ       2.0106
       YYZ       1.2606    XZZ      -0.0000    YZZ       0.0000
       ZZZ      -1.0543
    Hexadecapole Moments (Debye-Ang^3)
      XXXX   -1833.2835   XXXY     -21.1533   XXYY    -409.5917
      XYYY      14.9421   YYYY    -549.7879   XXXZ       0.0000
      XXYZ      -0.0000   XYYZ      -0.0000   YYYZ      -0.0000
      XXZZ    -407.5152   XYZZ      -8.0907   YYZZ    -120.7135
      XZZZ       0.0000   YZZZ      -0.0000   ZZZZ     -99.0551
 -----------------------------------------------------------------
 DrvMan is completing analytic gradient of the MP2 energy
 MP2 relaxed dipole moment
            1
    1  -0.0000000
    2   0.0000000
    3   0.0056874
	Magnitude:	 0.006 au	 0.014 Debye
 MP2 energy read as -1103.413851
 Full Analytical Gradient of MP2 Energy (in au.)
             1             2             3             4             5
    1   -0.00018255   -0.00018897   -0.00012608   -0.00017190    0.00103759
    2    0.00011059   -0.00065119   -0.00001144    0.00041867    0.00033111
    3    0.00128829   -0.00128815    0.00118262    0.00195071   -0.00132887
             6             7             8             9            10
    1   -0.00028024   -0.00103759    0.00018255    0.00017189    0.00018897
    2   -0.00018371   -0.00033110   -0.00011059   -0.00041868    0.00065119
    3   -0.00125939   -0.00132888    0.00128829    0.00195071   -0.00128815
            11            12            13            14            15
    1    0.00012609   -0.00000772    0.00008021    0.00000772   -0.00008021
    2    0.00001144   -0.00000888    0.00013324    0.00000888   -0.00013324
    3    0.00118262   -0.00000886   -0.00053633   -0.00000886   -0.00053633
            16
    1    0.00028024
    2    0.00018371
    3   -0.00125939
 Gradient time:  CPU 1.49 s  wall 0.10 s
 Geometry Optimization Parameters
   NAtoms,    NIC,     NZ,  NCons,   NDum,   NFix, NCnnct, MaxDiis
       16     111       0       1       0       0       0       0


** CONSTRAINED OPTIMIZATION IN DELOCALIZED INTERNAL COORDINATES **
   Searching for a Minimum

   Optimization Cycle:   1

                       Coordinates (Angstroms)
     ATOM                X               Y               Z
      1  S         1.8170217596   -1.1917577808   -0.0917624966
      2  C         3.1668896636   -0.1486513437   -0.0380163869
      3  C         2.7826352583    1.1632047534    0.0870903942
      4  C         1.3876117984    1.3152636916    0.1250384815
      5  C         0.7087698579    0.1181724295    0.0314999629
      6  H         0.8798290025    2.2607253847    0.1945445435
      7  C        -0.7087698579   -0.1181724295    0.0314999629
      8  S        -1.8170217596    1.1917577808   -0.0917624966
      9  C        -1.3876117984   -1.3152636916    0.1250384815
     10  C        -3.1668896636    0.1486513437   -0.0380163869
     11  C        -2.7826352583   -1.1632047534    0.0870903942
     12  H        -3.4826362865   -1.9764755959    0.1395459523
     13  H         4.1600832307   -0.5466881011   -0.0995652519
     14  H         3.4826362865    1.9764755959    0.1395459523
     15  H        -4.1600832307    0.5466881011   -0.0995652519
     16  H        -0.8798290025   -2.2607253847    0.1945445435
   Point Group: c2    Number of degrees of freedom:    22


   Energy is  -1103.413851173

              Constraints and their Current Values
                                        Value     Constraint
   Dihedral:        4   5   7   9     -170.000     -170.000

 Attempting to Generate Delocalized Internal Coordinates

 21 Hessian modes will be used to form the next step
  Hessian Eigenvalues:
     0.045000    0.045000    0.045000    0.045002    0.045003    0.045012
     0.159945    0.159993    0.160000    0.221308    0.238060    0.249999
     0.326324    0.340049    0.365509    0.366895    0.370094    0.399848
     0.435412    0.463135    0.495504

 Minimum Search - Taking Simple RFO Step
 Searching for Lamda that Minimizes Along All modes
 Value Taken    Lamda =  -0.00020955
 Step Taken.  Stepsize is  0.066379

                             Maximum     Tolerance    Cnvgd?
         Gradient           0.002458      0.000300      NO
         Displacement       0.054789      0.001200      NO
         Energy change     *********      0.000001      NO


 New Cartesian Coordinates Obtained by Inverse Iteration

 Displacement from previous Coordinates is:  0.093170
 ----------------------------------------------------------------
             Standard Nuclear Orientation (Angstroms)
    I     Atom           X                Y                Z
 ----------------------------------------------------------------
    1      S       1.8188915573    -1.1903404485    -0.1063999580
    2      C       3.1688042769    -0.1480934128    -0.0289444667
    3      C       2.7836263980     1.1640128579     0.0838748658
    4      C       1.3884003870     1.3151321614     0.1146801132
    5      C       0.7086386092     0.1181576405     0.0211656430
    6      H       0.8826055699     2.2611168076     0.1934340799
    7      C      -0.7086386092    -0.1181576405     0.0211656430
    8      S      -1.8188915573     1.1903404485    -0.1063999580
    9      C      -1.3884003870    -1.3151321614     0.1146801132
   10      C      -3.1688042769     0.1480934128    -0.0289444667
   11      C      -2.7836263980    -1.1640128579     0.0838748658
   12      H      -3.4830426362    -1.9771724006     0.1448396497
   13      H       4.1622137324    -0.5475514857    -0.0742747280
   14      H       3.4830426362     1.9771724006     0.1448396497
   15      H      -4.1622137324     0.5475514857    -0.0742747280
   16      H      -0.8826055699    -2.2611168076     0.1934340799
 ----------------------------------------------------------------
 Molecular Point Group                 C2    NOp =  2
 Largest Abelian Subgroup              C2    NOp =  2
 Nuclear Repulsion Energy =   636.6610439696 hartrees
 There are       43 alpha and       43 beta electrons
 Applying Cartesian multipole field
    Component          Value
    ---------          -----
     (2,0,0)        1.00000E-11
     (0,2,0)        2.00000E-11
     (0,0,2)       -3.00000E-10
 Nucleus-field energy     =     0.0000000210 hartrees
 Requested basis set is cc-pVTZ
 There are 140 shells and 392 basis functions
 A cutoff of  1.0D-11 yielded   8025 shell pairs
 There are     62405 function pairs (     81373 Cartesian)
 Smallest overlap matrix eigenvalue = 6.44E-05
 Guess MOs from SCF MO coefficient file
 Reading MOs from coefficient file
 Reading MOs from coefficient file
 A restricted Hartree-Fock SCF calculation will be
 performed using Pulay DIIS extrapolation
 SCF converges when DIIS error is below 1.0E-08
 Geometry optimization detected.  Setting ReadMinima to 0
 Setting SaveMinima to 0
 using 16 threads for integral computing 
 ---------------------------------------
  Cycle       Energy         DIIS Error
 ---------------------------------------
    1   -1101.5982867836      2.18E-04
    2   -1101.5989073833      2.62E-05
    3   -1101.5989416745      9.76E-06
    4   -1101.5989480029      3.24E-06
    5   -1101.5989484766      1.46E-06
    6   -1101.5989485703      5.78E-07
    7   -1101.5989485878      2.25E-07
    8   -1101.5989485907      6.63E-08
    9   -1101.5989485907      2.36E-08
   10   -1101.5989485909      8.68E-09 Convergence criterion met
 ---------------------------------------
 SCF time:  CPU 677.10 s  wall 42.35 s
 SCF   energy in the final basis set = -1101.5989485909
 Total energy in the final basis set = -1101.5989485909
 
 Components of the MP2 correlation energy:
        aaaa  correlation energy =        -0.2323088281 au
        abab  correlation energy =        -1.3504469518 au
        bbbb  correlation energy =        -0.2323088281 au
        non-Brillouin singles    =        -0.0000000000 au

 Total  MP2   correlation energy =        -1.8150646081 au
        MP2         total energy =     -1103.4140131990 au

  Entering Z-vector solver.
   1         0           1      0.000264    0.000264
   2         0           1      0.000116    0.000116
   3         0           1      0.000049    0.000049
   4         0           1      0.000024    0.000024
   5         0           1      0.000006    0.000006
   6         0           1      0.000002    0.000002
   7         1           0      0.000000    0.000000    Roots Converged
 
 --------------------------------------------------------------
             Orbital Energies (a.u.) and Symmetries
 --------------------------------------------------------------
 
 Alpha MOs, Restricted
 -- Occupied --                  
-91.984 -91.984 -11.276 -11.275 -11.262 -11.262 -11.239 -11.239
  1 A     1 B     2 A     2 B     3 B     3 A     4 B     4 A                  
-11.237 -11.237  -8.986  -8.986  -6.667  -6.667  -6.667  -6.667
  5 A     5 B     6 A     6 B     7 B     7 A     8 A     8 B                  
 -6.666  -6.666  -1.197  -1.167  -1.037  -1.001  -0.984  -0.949
  9 B     9 A    10 A    10 B    11 A    11 B    12 A    12 B                  
 -0.810  -0.782  -0.744  -0.718  -0.708  -0.646  -0.573  -0.572
 13 A    13 B    14 A    14 B    15 A    15 B    16 A    16 B                  
 -0.557  -0.555  -0.551  -0.513  -0.513  -0.484  -0.465  -0.378
 17 A    17 B    18 A    19 A    18 B    19 B    20 A    21 A                  
 -0.356  -0.347  -0.277
 20 B    22 A    21 B                                                          
 -- Virtual --                   
  0.070   0.146   0.148   0.153   0.163   0.172   0.183   0.191
 23 A    22 B    23 B    24 A    25 A    24 B    25 B    26 A                  
  0.201   0.207   0.208   0.228   0.263   0.275   0.319   0.345
 27 A    26 B    28 A    27 B    28 B    29 A    29 B    30 A                  
  0.357   0.365   0.374   0.374   0.393   0.404   0.420   0.443
 31 A    30 B    32 A    31 B    33 A    32 B    33 B    34 B                  
  0.448   0.457   0.464   0.469   0.476   0.478   0.512   0.521
 34 A    35 B    35 A    36 A    36 B    37 A    38 A    37 B                  
  0.532   0.536   0.539   0.547   0.558   0.560   0.573   0.573
 39 A    38 B    39 B    40 A    41 A    40 B    41 B    42 A                  
  0.583   0.589   0.596   0.604   0.610   0.618   0.622   0.627
 42 B    43 A    43 B    44 B    45 B    44 A    45 A    46 B                  
  0.632   0.645   0.646   0.654   0.660   0.676   0.709   0.715
 46 A    47 B    47 A    48 A    49 A    48 B    50 A    49 B                  
  0.770   0.778   0.794   0.801   0.818   0.837   0.853   0.857
 51 A    50 B    51 B    52 A    52 B    53 B    54 B    53 A                  
  0.865   0.878   0.880   0.896   0.908   0.939   0.943   0.962
 55 B    56 B    54 A    55 A    56 A    57 B    57 A    58 A                  
  0.985   0.996   1.007   1.020   1.026   1.036   1.069   1.090
 58 B    59 A    60 A    59 B    60 B    61 A    62 A    61 B                  
  1.095   1.101   1.110   1.114   1.144   1.154   1.168   1.170
 63 A    62 B    64 A    63 B    64 B    65 B    65 A    66 B                  
  1.175   1.181   1.190   1.231   1.242   1.253   1.272   1.285
 66 A    67 B    67 A    68 A    69 A    68 B    69 B    70 B                  
  1.287   1.303   1.322   1.345   1.381   1.397   1.415   1.439
 70 A    71 A    71 B    72 A    73 A    72 B    74 A    73 B                  
  1.445   1.448   1.472   1.480   1.496   1.519   1.531   1.541
 74 B    75 A    76 A    75 B    76 B    77 A    77 B    78 A                  
  1.546   1.559   1.566   1.574   1.594   1.616   1.628   1.658
 78 B    79 B    79 A    80 B    80 A    81 A    81 B    82 A                  
  1.667   1.686   1.702   1.735   1.759   1.785   1.823   1.850
 82 B    83 B    83 A    84 B    84 A    85 A    85 B    86 B                  
  1.852   1.864   1.878   1.885   1.895   1.902   1.921   1.940
 86 A    87 A    87 B    88 A    88 B    89 A    89 B    90 A                  
  1.959   1.968   2.035   2.070   2.078   2.086   2.121   2.177
 90 B    91 B    91 A    92 A    92 B    93 A    93 B    94 A                  
  2.178   2.190   2.198   2.200   2.259   2.262   2.271   2.293
 94 B    95 B    96 B    95 A    97 B    96 A    97 A    98 B                  
  2.301   2.307   2.323   2.364   2.406   2.423   2.437   2.458
 99 B    98 A    99 A   100 B   100 A   101 B   101 A   102 B                  
  2.466   2.510   2.524   2.537   2.544   2.564   2.588   2.601
102 A   103 A   104 A   103 B   104 B   105 B   105 A   106 A                  
  2.632   2.645   2.693   2.696   2.728   2.740   2.751   2.757
106 B   107 B   108 B   107 A   109 B   108 A   110 B   109 A                  
  2.763   2.769   2.804   2.809   2.822   2.827   2.878   2.902
111 B   110 A   112 B   111 A   112 A   113 A   113 B   114 A                  
  2.916   2.931   2.945   2.965   2.989   3.008   3.013   3.015
114 B   115 B   115 A   116 B   116 A   117 B   118 B   117 A                  
  3.024   3.060   3.079   3.122   3.143   3.156   3.163   3.201
118 A   119 B   119 A   120 A   121 A   120 B   122 A   121 B                  
  3.202   3.215   3.239   3.246   3.254   3.271   3.280   3.281
123 A   122 B   123 B   124 B   124 A   125 A   126 A   125 B                  
  3.301   3.309   3.314   3.323   3.329   3.349   3.360   3.386
126 B   127 A   127 B   128 B   128 A   129 A   130 A   131 A                  
  3.389   3.425   3.433   3.440   3.450   3.468   3.475   3.478
129 B   130 B   131 B   132 A   133 A   134 A   132 B   135 A                  
  3.493   3.496   3.504   3.510   3.523   3.527   3.530   3.539
133 B   136 A   134 B   135 B   137 A   136 B   138 A   137 B                  
  3.549   3.554   3.555   3.574   3.601   3.621   3.637   3.665
139 A   138 B   140 A   141 A   139 B   142 A   140 B   141 B                  
  3.693   3.698   3.718   3.733   3.747   3.767   3.772   3.783
143 A   142 B   143 B   144 A   144 B   145 A   145 B   146 A                  
  3.828   3.839   3.865   3.881   3.900   3.900   3.936   3.937
146 B   147 A   147 B   148 A   148 B   149 A   150 A   149 B                  
  3.953   3.986   4.000   4.005   4.028   4.030   4.040   4.056
151 A   150 B   152 A   151 B   153 A   152 B   153 B   154 A                  
  4.079   4.100   4.115   4.123   4.157   4.174   4.177   4.192
155 A   154 B   155 B   156 B   156 A   157 A   157 B   158 A                  
  4.203   4.208   4.234   4.250   4.275   4.280   4.311   4.328
159 A   158 B   160 A   161 A   159 B   160 B   162 A   161 B                  
  4.328   4.365   4.383   4.411   4.421   4.468   4.512   4.529
163 A   162 B   164 A   163 B   164 B   165 A   166 A   165 B                  
  4.565   4.599   4.619   4.634   4.645   4.680   4.693   4.694
166 B   167 A   168 A   167 B   168 B   169 A   170 A   169 B                  
  4.718   4.737   4.741   4.769   4.788   4.805   4.832   4.871
171 A   170 B   172 A   171 B   172 B   173 B   173 A   174 B                  
  4.891   4.958   5.012   5.042   5.054   5.076   5.076   5.091
174 A   175 B   176 B   175 A   176 A   177 A   177 B   178 A                  
  5.111   5.154   5.180   5.250   5.266   5.291   5.321   5.397
178 B   179 A   179 B   180 A   180 B   181 B   181 A   182 A                  
  5.406   5.417   5.421   5.507   5.552   5.620   5.630   5.675
182 B   183 A   183 B   184 A   184 B   185 A   186 A   185 B                  
  5.762   5.937   5.937   6.085   6.101   6.160   6.171   6.285
186 B   187 B   187 A   188 A   188 B   189 B   189 A   190 B                  
  6.318   6.564   6.564   6.741   6.764   9.501  10.846  11.802
190 A   191 B   191 A   192 B   192 A   193 A   193 B   194 A                  
 12.409  13.639  13.786  14.630  14.776
194 B   195 B   195 A   196 B   196 A                                          
 
 Beta MOs, Restricted
 -- Occupied --                  
-91.984 -91.984 -11.276 -11.275 -11.262 -11.262 -11.239 -11.239
  1 A     1 B     2 A     2 B     3 B     3 A     4 B     4 A                  
-11.237 -11.237  -8.986  -8.986  -6.667  -6.667  -6.667  -6.667
  5 A     5 B     6 A     6 B     7 B     7 A     8 A     8 B                  
 -6.666  -6.666  -1.197  -1.167  -1.037  -1.001  -0.984  -0.949
  9 B     9 A    10 A    10 B    11 A    11 B    12 A    12 B                  
 -0.810  -0.782  -0.744  -0.718  -0.708  -0.646  -0.573  -0.572
 13 A    13 B    14 A    14 B    15 A    15 B    16 A    16 B                  
 -0.557  -0.555  -0.551  -0.513  -0.513  -0.484  -0.465  -0.378
 17 A    17 B    18 A    19 A    18 B    19 B    20 A    21 A                  
 -0.356  -0.347  -0.277
 20 B    22 A    21 B                                                          
 -- Virtual --                   
  0.070   0.146   0.148   0.153   0.163   0.172   0.183   0.191
 23 A    22 B    23 B    24 A    25 A    24 B    25 B    26 A                  
  0.201   0.207   0.208   0.228   0.263   0.275   0.319   0.345
 27 A    26 B    28 A    27 B    28 B    29 A    29 B    30 A                  
  0.357   0.365   0.374   0.374   0.393   0.404   0.420   0.443
 31 A    30 B    32 A    31 B    33 A    32 B    33 B    34 B                  
  0.448   0.457   0.464   0.469   0.476   0.478   0.512   0.521
 34 A    35 B    35 A    36 A    36 B    37 A    38 A    37 B                  
  0.532   0.536   0.539   0.547   0.558   0.560   0.573   0.573
 39 A    38 B    39 B    40 A    41 A    40 B    41 B    42 A                  
  0.583   0.589   0.596   0.604   0.610   0.618   0.622   0.627
 42 B    43 A    43 B    44 B    45 B    44 A    45 A    46 B                  
  0.632   0.645   0.646   0.654   0.660   0.676   0.709   0.715
 46 A    47 B    47 A    48 A    49 A    48 B    50 A    49 B                  
  0.770   0.778   0.794   0.801   0.818   0.837   0.853   0.857
 51 A    50 B    51 B    52 A    52 B    53 B    54 B    53 A                  
  0.865   0.878   0.880   0.896   0.908   0.939   0.943   0.962
 55 B    56 B    54 A    55 A    56 A    57 B    57 A    58 A                  
  0.985   0.996   1.007   1.020   1.026   1.036   1.069   1.090
 58 B    59 A    60 A    59 B    60 B    61 A    62 A    61 B                  
  1.095   1.101   1.110   1.114   1.144   1.154   1.168   1.170
 63 A    62 B    64 A    63 B    64 B    65 B    65 A    66 B                  
  1.175   1.181   1.190   1.231   1.242   1.253   1.272   1.285
 66 A    67 B    67 A    68 A    69 A    68 B    69 B    70 B                  
  1.287   1.303   1.322   1.345   1.381   1.397   1.415   1.439
 70 A    71 A    71 B    72 A    73 A    72 B    74 A    73 B                  
  1.445   1.448   1.472   1.480   1.496   1.519   1.531   1.541
 74 B    75 A    76 A    75 B    76 B    77 A    77 B    78 A                  
  1.546   1.559   1.566   1.574   1.594   1.616   1.628   1.658
 78 B    79 B    79 A    80 B    80 A    81 A    81 B    82 A                  
  1.667   1.686   1.702   1.735   1.759   1.785   1.823   1.850
 82 B    83 B    83 A    84 B    84 A    85 A    85 B    86 B                  
  1.852   1.864   1.878   1.885   1.895   1.902   1.921   1.940
 86 A    87 A    87 B    88 A    88 B    89 A    89 B    90 A                  
  1.959   1.968   2.035   2.070   2.078   2.086   2.121   2.177
 90 B    91 B    91 A    92 A    92 B    93 A    93 B    94 A                  
  2.178   2.190   2.198   2.200   2.259   2.262   2.271   2.293
 94 B    95 B    96 B    95 A    97 B    96 A    97 A    98 B                  
  2.301   2.307   2.323   2.364   2.406   2.423   2.437   2.458
 99 B    98 A    99 A   100 B   100 A   101 B   101 A   102 B                  
  2.466   2.510   2.524   2.537   2.544   2.564   2.588   2.601
102 A   103 A   104 A   103 B   104 B   105 B   105 A   106 A                  
  2.632   2.645   2.693   2.696   2.728   2.740   2.751   2.757
106 B   107 B   108 B   107 A   109 B   108 A   110 B   109 A                  
  2.763   2.769   2.804   2.809   2.822   2.827   2.878   2.902
111 B   110 A   112 B   111 A   112 A   113 A   113 B   114 A                  
  2.916   2.931   2.945   2.965   2.989   3.008   3.013   3.015
114 B   115 B   115 A   116 B   116 A   117 B   118 B   117 A                  
  3.024   3.060   3.079   3.122   3.143   3.156   3.163   3.201
118 A   119 B   119 A   120 A   121 A   120 B   122 A   121 B                  
  3.202   3.215   3.239   3.246   3.254   3.271   3.280   3.281
123 A   122 B   123 B   124 B   124 A   125 A   126 A   125 B                  
  3.301   3.309   3.314   3.323   3.329   3.349   3.360   3.386
126 B   127 A   127 B   128 B   128 A   129 A   130 A   131 A                  
  3.389   3.425   3.433   3.440   3.450   3.468   3.475   3.478
129 B   130 B   131 B   132 A   133 A   134 A   132 B   135 A                  
  3.493   3.496   3.504   3.510   3.523   3.527   3.530   3.539
133 B   136 A   134 B   135 B   137 A   136 B   138 A   137 B                  
  3.549   3.554   3.555   3.574   3.601   3.621   3.637   3.665
139 A   138 B   140 A   141 A   139 B   142 A   140 B   141 B                  
  3.693   3.698   3.718   3.733   3.747   3.767   3.772   3.783
143 A   142 B   143 B   144 A   144 B   145 A   145 B   146 A                  
  3.828   3.839   3.865   3.881   3.900   3.900   3.936   3.937
146 B   147 A   147 B   148 A   148 B   149 A   150 A   149 B                  
  3.953   3.986   4.000   4.005   4.028   4.030   4.040   4.056
151 A   150 B   152 A   151 B   153 A   152 B   153 B   154 A                  
  4.079   4.100   4.115   4.123   4.157   4.174   4.177   4.192
155 A   154 B   155 B   156 B   156 A   157 A   157 B   158 A                  
  4.203   4.208   4.234   4.250   4.275   4.280   4.311   4.328
159 A   158 B   160 A   161 A   159 B   160 B   162 A   161 B                  
  4.328   4.365   4.383   4.411   4.421   4.468   4.512   4.529
163 A   162 B   164 A   163 B   164 B   165 A   166 A   165 B                  
  4.565   4.599   4.619   4.634   4.645   4.680   4.693   4.694
166 B   167 A   168 A   167 B   168 B   169 A   170 A   169 B                  
  4.718   4.737   4.741   4.769   4.788   4.805   4.832   4.871
171 A   170 B   172 A   171 B   172 B   173 B   173 A   174 B                  
  4.891   4.958   5.012   5.042   5.054   5.076   5.076   5.091
174 A   175 B   176 B   175 A   176 A   177 A   177 B   178 A                  
  5.111   5.154   5.180   5.250   5.266   5.291   5.321   5.397
178 B   179 A   179 B   180 A   180 B   181 B   181 A   182 A                  
  5.406   5.417   5.421   5.507   5.552   5.620   5.630   5.675
182 B   183 A   183 B   184 A   184 B   185 A   186 A   185 B                  
  5.762   5.937   5.937   6.085   6.101   6.160   6.171   6.285
186 B   187 B   187 A   188 A   188 B   189 B   189 A   190 B                  
  6.318   6.564   6.564   6.741   6.764   9.501  10.846  11.802
190 A   191 B   191 A   192 B   192 A   193 A   193 B   194 A                  
 12.409  13.639  13.786  14.630  14.776
194 B   195 B   195 A   196 B   196 A                                          
 --------------------------------------------------------------
 
          Ground-State Mulliken Net Atomic Charges

     Atom                 Charge (a.u.)
  ----------------------------------------
      1 S                     0.102368
      2 C                    -0.237802
      3 C                    -0.198133
      4 C                    -0.213661
      5 C                     0.025540
      6 H                     0.160664
      7 C                     0.025540
      8 S                     0.102368
      9 C                    -0.213661
     10 C                    -0.237802
     11 C                    -0.198133
     12 H                     0.175132
     13 H                     0.185892
     14 H                     0.175132
     15 H                     0.185892
     16 H                     0.160664
  ----------------------------------------
  Sum of atomic charges =    -0.000000

 -----------------------------------------------------------------
                    Cartesian Multipole Moments
 -----------------------------------------------------------------
    Charge (ESU x 10^10)
                -0.0000
    Dipole Moment (Debye)
         X      -0.0000      Y      -0.0000      Z       0.0517
       Tot       0.0517
    Quadrupole Moments (Debye-Ang)
        XX     -61.1359     XY       1.0071     YY     -67.8582
        XZ      -0.0000     YZ       0.0000     ZZ     -78.0658
    Octopole Moments (Debye-Ang^2)
       XXX       0.0000    XXY      -0.0000    XYY       0.0000
       YYY      -0.0000    XXZ      -0.6364    XYZ       2.0288
       YYZ       1.8006    XZZ       0.0000    YZZ      -0.0000
       ZZZ       0.4873
    Hexadecapole Moments (Debye-Ang^3)
      XXXX   -1834.6201   XXXY     -21.5046   XXYY    -409.8468
      XYYY      14.8851   YYYY    -549.5334   XXXZ      -0.0000
      XXYZ       0.0000   XYYZ      -0.0000   YYYZ       0.0000
      XXZZ    -408.0612   XYZZ      -8.1216   YYZZ    -120.6404
      XZZZ      -0.0000   YZZZ       0.0000   ZZZZ     -99.1866
 -----------------------------------------------------------------
 DrvMan is completing analytic gradient of the MP2 energy
 MP2 relaxed dipole moment
            1
    1  -0.0000000
    2  -0.0000000
    3   0.0203470
	Magnitude:	 0.020 au	 0.052 Debye
 MP2 energy read as -1103.414013
 Full Analytical Gradient of MP2 Energy (in au.)
             1             2             3             4             5
    1   -0.00013296   -0.00001048    0.00008855    0.00010009    0.00028954
    2    0.00020173   -0.00011288   -0.00002074   -0.00000242   -0.00000566
    3   -0.00000796    0.00009831   -0.00010959    0.00117888   -0.00023418
             6             7             8             9            10
    1   -0.00008904   -0.00028954    0.00013296   -0.00010009    0.00001048
    2   -0.00000807    0.00000566   -0.00020173    0.00000242    0.00011288
    3   -0.00081053   -0.00023418   -0.00000796    0.00117888    0.00009831
            11            12            13            14            15
    1   -0.00008855   -0.00004326    0.00002467    0.00004326   -0.00002467
    2    0.00002074    0.00001895    0.00010604   -0.00001895   -0.00010604
    3   -0.00010959    0.00002220   -0.00013714    0.00002220   -0.00013714
            16
    1    0.00008904
    2    0.00000807
    3   -0.00081053
 Gradient time:  CPU 1.49 s  wall 0.10 s
 Geometry Optimization Parameters
   NAtoms,    NIC,     NZ,  NCons,   NDum,   NFix, NCnnct, MaxDiis
       16     111       0       1       0       0       0       0

 Cartesian Hessian Update
 Hessian Updated using BFGS Update


** CONSTRAINED OPTIMIZATION IN DELOCALIZED INTERNAL COORDINATES **
   Searching for a Minimum

   Optimization Cycle:   2

                       Coordinates (Angstroms)
     ATOM                X               Y               Z
      1  S         1.8188915573   -1.1903404485   -0.1063999580
      2  C         3.1688042769   -0.1480934128   -0.0289444667
      3  C         2.7836263980    1.1640128579    0.0838748658
      4  C         1.3884003870    1.3151321614    0.1146801132
      5  C         0.7086386092    0.1181576405    0.0211656430
      6  H         0.8826055699    2.2611168076    0.1934340799
      7  C        -0.7086386092   -0.1181576405    0.0211656430
      8  S        -1.8188915573    1.1903404485   -0.1063999580
      9  C        -1.3884003870   -1.3151321614    0.1146801132
     10  C        -3.1688042769    0.1480934128   -0.0289444667
     11  C        -2.7836263980   -1.1640128579    0.0838748658
     12  H        -3.4830426362   -1.9771724006    0.1448396497
     13  H         4.1622137324   -0.5475514857   -0.0742747280
     14  H         3.4830426362    1.9771724006    0.1448396497
     15  H        -4.1622137324    0.5475514857   -0.0742747280
     16  H        -0.8826055699   -2.2611168076    0.1934340799
   Point Group: c2    Number of degrees of freedom:    22


   Energy is  -1103.414013199

              Constraints and their Current Values
                                        Value     Constraint
   Dihedral:        4   5   7   9     -170.000     -170.000
 Hessian Updated using BFGS Update

 21 Hessian modes will be used to form the next step
  Hessian Eigenvalues:
     0.028523    0.045000    0.045000    0.045001    0.045004    0.056440
     0.158685    0.159995    0.160261    0.221605    0.240850    0.249920
     0.325446    0.340009    0.365480    0.366894    0.370117    0.399825
     0.435480    0.465512    0.495788

 Minimum Search - Taking Simple RFO Step
 Searching for Lamda that Minimizes Along All modes
 Value Taken    Lamda =  -0.00003852
 Step Taken.  Stepsize is  0.035502

                             Maximum     Tolerance    Cnvgd?
         Gradient           0.000653      0.000300      NO
         Displacement       0.025806      0.001200      NO
         Energy change     -0.000162      0.000001      NO


 New Cartesian Coordinates Obtained by Inverse Iteration

 Displacement from previous Coordinates is:  0.032945
 ----------------------------------------------------------------
             Standard Nuclear Orientation (Angstroms)
    I     Atom           X                Y                Z
 ----------------------------------------------------------------
    1      S       1.8190273537    -1.1903151160    -0.1123149010
    2      C       3.1685772808    -0.1478234321    -0.0309776327
    3      C       2.7830881472     1.1641213530     0.0824362526
    4      C       1.3879804793     1.3150416091     0.1122911249
    5      C       0.7083636121     0.1180250579     0.0187619047
    6      H       0.8832347523     2.2606372637     0.2025208576
    7      C      -0.7083636121    -0.1180250579     0.0187619047
    8      S      -1.8190273537     1.1903151160    -0.1123149010
    9      C      -1.3879804793    -1.3150416091     0.1122911249
   10      C      -3.1685772808     0.1478234321    -0.0309776327
   11      C      -2.7830881472    -1.1641213530     0.0824362526
   12      H      -3.4820673833    -1.9772550572     0.1480697794
   13      H       4.1618177129    -0.5481465000    -0.0724121865
   14      H       3.4820673833     1.9772550572     0.1480697794
   15      H      -4.1618177129     0.5481465000    -0.0724121865
   16      H      -0.8832347523    -2.2606372637     0.2025208576
 ----------------------------------------------------------------
 Molecular Point Group                 C2    NOp =  2
 Largest Abelian Subgroup              C2    NOp =  2
 Nuclear Repulsion Energy =   636.6586338033 hartrees
 There are       43 alpha and       43 beta electrons
 Applying Cartesian multipole field
    Component          Value
    ---------          -----
     (2,0,0)        1.00000E-11
     (0,2,0)        2.00000E-11
     (0,0,2)       -3.00000E-10
 Nucleus-field energy     =     0.0000000210 hartrees
 Requested basis set is cc-pVTZ
 There are 140 shells and 392 basis functions
 A cutoff of  1.0D-11 yielded   8025 shell pairs
 There are     62405 function pairs (     81373 Cartesian)
 Smallest overlap matrix eigenvalue = 6.42E-05
 Guess MOs from SCF MO coefficient file
 Reading MOs from coefficient file
 Reading MOs from coefficient file
 A restricted Hartree-Fock SCF calculation will be
 performed using Pulay DIIS extrapolation
 SCF converges when DIIS error is below 1.0E-08
 Geometry optimization detected.  Setting ReadMinima to 0
 Setting SaveMinima to 0
 using 16 threads for integral computing 
 ---------------------------------------
  Cycle       Energy         DIIS Error
 ---------------------------------------
    1   -1101.5987412560      4.98E-05
    2   -1101.5989561807      8.36E-06
    3   -1101.5989597230      2.93E-06
    4   -1101.5989603171      7.97E-07
    5   -1101.5989603514      2.79E-07
    6   -1101.5989603551      9.87E-08
    7   -1101.5989603562      4.07E-08
    8   -1101.5989603555      1.42E-08
    9   -1101.5989603553      5.30E-09 Convergence criterion met
 ---------------------------------------
 SCF time:  CPU 583.61 s  wall 36.50 s
 SCF   energy in the final basis set = -1101.5989603553
 Total energy in the final basis set = -1101.5989603553
 
 Components of the MP2 correlation energy:
        aaaa  correlation energy =        -0.2323115279 au
        abab  correlation energy =        -1.3504555764 au
        bbbb  correlation energy =        -0.2323115279 au
        non-Brillouin singles    =        -0.0000000000 au

 Total  MP2   correlation energy =        -1.8150786322 au
        MP2         total energy =     -1103.4140389875 au

  Entering Z-vector solver.
   1         0           1      0.000264    0.000264
   2         0           1      0.000116    0.000116
   3         0           1      0.000049    0.000049
   4         0           1      0.000024    0.000024
   5         0           1      0.000006    0.000006
   6         0           1      0.000002    0.000002
   7         1           0      0.000000    0.000000    Roots Converged
 
 --------------------------------------------------------------
             Orbital Energies (a.u.) and Symmetries
 --------------------------------------------------------------
 
 Alpha MOs, Restricted
 -- Occupied --                  
-91.984 -91.984 -11.276 -11.275 -11.262 -11.262 -11.239 -11.239
  1 A     1 B     2 A     2 B     3 B     3 A     4 B     4 A                  
-11.237 -11.237  -8.986  -8.986  -6.667  -6.667  -6.667  -6.667
  5 A     5 B     6 A     6 B     7 B     7 A     8 A     8 B                  
 -6.666  -6.666  -1.197  -1.167  -1.037  -1.001  -0.984  -0.949
  9 B     9 A    10 A    10 B    11 A    11 B    12 A    12 B                  
 -0.811  -0.782  -0.744  -0.718  -0.708  -0.645  -0.573  -0.572
 13 A    13 B    14 A    14 B    15 A    15 B    16 A    16 B                  
 -0.557  -0.555  -0.551  -0.513  -0.513  -0.484  -0.465  -0.378
 17 A    17 B    18 A    19 A    18 B    19 B    20 A    21 A                  
 -0.356  -0.347  -0.277
 20 B    22 A    21 B                                                          
 -- Virtual --                   
  0.070   0.146   0.148   0.153   0.163   0.172   0.183   0.191
 23 A    22 B    23 B    24 A    25 A    24 B    25 B    26 A                  
  0.201   0.207   0.209   0.228   0.263   0.275   0.319   0.345
 27 A    26 B    28 A    27 B    28 B    29 A    29 B    30 A                  
  0.357   0.365   0.373   0.374   0.393   0.404   0.421   0.443
 31 A    30 B    32 A    31 B    33 A    32 B    33 B    34 B                  
  0.448   0.457   0.464   0.469   0.476   0.478   0.512   0.521
 34 A    35 B    35 A    36 A    36 B    37 A    38 A    37 B                  
  0.532   0.536   0.539   0.547   0.558   0.560   0.573   0.573
 39 A    38 B    39 B    40 A    41 A    40 B    41 B    42 A                  
  0.583   0.589   0.597   0.604   0.610   0.617   0.622   0.627
 42 B    43 A    43 B    44 B    45 B    44 A    45 A    46 B                  
  0.632   0.645   0.646   0.654   0.661   0.676   0.709   0.715
 46 A    47 B    47 A    48 A    49 A    48 B    50 A    49 B                  
  0.770   0.778   0.794   0.801   0.817   0.837   0.853   0.856
 51 A    50 B    51 B    52 A    52 B    53 B    54 B    53 A                  
  0.864   0.879   0.880   0.897   0.907   0.940   0.943   0.962
 55 B    56 B    54 A    55 A    56 A    57 B    57 A    58 A                  
  0.985   0.996   1.007   1.020   1.026   1.035   1.069   1.090
 58 B    59 A    60 A    59 B    60 B    61 A    62 A    61 B                  
  1.096   1.101   1.110   1.113   1.144   1.154   1.168   1.170
 63 A    62 B    64 A    63 B    64 B    65 B    65 A    66 B                  
  1.175   1.180   1.190   1.231   1.242   1.253   1.272   1.284
 66 A    67 B    67 A    68 A    69 A    68 B    69 B    70 B                  
  1.287   1.303   1.323   1.345   1.381   1.397   1.415   1.438
 70 A    71 A    71 B    72 A    73 A    72 B    74 A    73 B                  
  1.445   1.448   1.471   1.480   1.495   1.519   1.531   1.541
 74 B    75 A    76 A    75 B    76 B    77 A    77 B    78 A                  
  1.548   1.559   1.566   1.573   1.594   1.616   1.627   1.658
 78 B    79 B    79 A    80 B    80 A    81 A    81 B    82 A                  
  1.667   1.686   1.702   1.736   1.759   1.785   1.823   1.850
 82 B    83 B    83 A    84 B    84 A    85 A    85 B    86 B                  
  1.852   1.865   1.879   1.885   1.896   1.902   1.922   1.940
 86 A    87 A    87 B    88 A    88 B    89 A    89 B    90 A                  
  1.959   1.968   2.035   2.070   2.077   2.086   2.122   2.177
 90 B    91 B    91 A    92 A    92 B    93 A    93 B    94 A                  
  2.178   2.190   2.199   2.200   2.260   2.261   2.271   2.291
 94 B    95 B    96 B    95 A    97 B    96 A    97 A    98 B                  
  2.301   2.308   2.322   2.364   2.407   2.424   2.437   2.458
 99 B    98 A    99 A   100 B   100 A   101 B   101 A   102 B                  
  2.466   2.510   2.524   2.537   2.544   2.564   2.588   2.601
102 A   103 A   104 A   103 B   104 B   105 B   105 A   106 A                  
  2.632   2.646   2.694   2.696   2.727   2.740   2.751   2.758
106 B   107 B   108 B   107 A   109 B   108 A   110 B   109 A                  
  2.763   2.769   2.803   2.809   2.822   2.826   2.879   2.902
111 B   110 A   112 B   111 A   112 A   113 A   113 B   114 A                  
  2.917   2.931   2.946   2.965   2.988   3.009   3.012   3.013
114 B   115 B   115 A   116 B   116 A   117 B   118 B   117 A                  
  3.024   3.060   3.080   3.122   3.143   3.156   3.164   3.201
118 A   119 B   119 A   120 A   121 A   120 B   122 A   121 B                  
  3.202   3.215   3.239   3.245   3.253   3.271   3.280   3.281
123 A   122 B   123 B   124 B   124 A   125 A   126 A   125 B                  
  3.300   3.309   3.317   3.322   3.329   3.350   3.360   3.386
126 B   127 A   127 B   128 B   128 A   129 A   130 A   131 A                  
  3.389   3.425   3.433   3.440   3.450   3.468   3.475   3.479
129 B   130 B   131 B   132 A   133 A   134 A   132 B   135 A                  
  3.493   3.496   3.504   3.510   3.523   3.527   3.530   3.539
133 B   136 A   134 B   135 B   137 A   136 B   138 A   137 B                  
  3.549   3.552   3.555   3.573   3.601   3.621   3.636   3.665
139 A   138 B   140 A   141 A   139 B   142 A   140 B   141 B                  
  3.694   3.698   3.718   3.733   3.747   3.767   3.772   3.784
143 A   142 B   143 B   144 A   144 B   145 A   145 B   146 A                  
  3.828   3.840   3.866   3.881   3.900   3.900   3.937   3.937
146 B   147 A   147 B   148 A   149 A   148 B   150 A   149 B                  
  3.953   3.986   4.000   4.006   4.028   4.030   4.040   4.056
151 A   150 B   152 A   151 B   153 A   152 B   153 B   154 A                  
  4.079   4.100   4.115   4.124   4.157   4.174   4.177   4.192
155 A   154 B   155 B   156 B   156 A   157 A   157 B   158 A                  
  4.203   4.207   4.234   4.251   4.276   4.278   4.310   4.328
159 A   158 B   160 A   161 A   159 B   160 B   162 A   163 A                  
  4.328   4.365   4.383   4.411   4.422   4.468   4.512   4.530
161 B   162 B   164 A   163 B   164 B   165 A   166 A   165 B                  
  4.565   4.599   4.619   4.635   4.644   4.681   4.692   4.695
166 B   167 A   168 A   167 B   168 B   169 A   170 A   169 B                  
  4.719   4.737   4.741   4.766   4.790   4.806   4.832   4.870
171 A   170 B   172 A   171 B   172 B   173 B   173 A   174 B                  
  4.891   4.959   5.012   5.043   5.054   5.076   5.076   5.091
174 A   175 B   176 B   175 A   176 A   177 A   177 B   178 A                  
  5.111   5.155   5.180   5.251   5.265   5.291   5.321   5.397
178 B   179 A   179 B   180 A   180 B   181 B   181 A   182 A                  
  5.406   5.417   5.421   5.506   5.552   5.621   5.630   5.675
182 B   183 A   183 B   184 A   184 B   185 A   186 A   185 B                  
  5.761   5.938   5.938   6.086   6.101   6.160   6.171   6.284
186 B   187 B   187 A   188 A   188 B   189 B   189 A   190 B                  
  6.318   6.563   6.563   6.742   6.766   9.500  10.849  11.803
190 A   191 A   191 B   192 B   192 A   193 A   193 B   194 A                  
 12.414  13.642  13.786  14.633  14.777
194 B   195 B   195 A   196 B   196 A                                          
 
 Beta MOs, Restricted
 -- Occupied --                  
-91.984 -91.984 -11.276 -11.275 -11.262 -11.262 -11.239 -11.239
  1 A     1 B     2 A     2 B     3 B     3 A     4 B     4 A                  
-11.237 -11.237  -8.986  -8.986  -6.667  -6.667  -6.667  -6.667
  5 A     5 B     6 A     6 B     7 B     7 A     8 A     8 B                  
 -6.666  -6.666  -1.197  -1.167  -1.037  -1.001  -0.984  -0.949
  9 B     9 A    10 A    10 B    11 A    11 B    12 A    12 B                  
 -0.811  -0.782  -0.744  -0.718  -0.708  -0.645  -0.573  -0.572
 13 A    13 B    14 A    14 B    15 A    15 B    16 A    16 B                  
 -0.557  -0.555  -0.551  -0.513  -0.513  -0.484  -0.465  -0.378
 17 A    17 B    18 A    19 A    18 B    19 B    20 A    21 A                  
 -0.356  -0.347  -0.277
 20 B    22 A    21 B                                                          
 -- Virtual --                   
  0.070   0.146   0.148   0.153   0.163   0.172   0.183   0.191
 23 A    22 B    23 B    24 A    25 A    24 B    25 B    26 A                  
  0.201   0.207   0.209   0.228   0.263   0.275   0.319   0.345
 27 A    26 B    28 A    27 B    28 B    29 A    29 B    30 A                  
  0.357   0.365   0.373   0.374   0.393   0.404   0.421   0.443
 31 A    30 B    32 A    31 B    33 A    32 B    33 B    34 B                  
  0.448   0.457   0.464   0.469   0.476   0.478   0.512   0.521
 34 A    35 B    35 A    36 A    36 B    37 A    38 A    37 B                  
  0.532   0.536   0.539   0.547   0.558   0.560   0.573   0.573
 39 A    38 B    39 B    40 A    41 A    40 B    41 B    42 A                  
  0.583   0.589   0.597   0.604   0.610   0.617   0.622   0.627
 42 B    43 A    43 B    44 B    45 B    44 A    45 A    46 B                  
  0.632   0.645   0.646   0.654   0.661   0.676   0.709   0.715
 46 A    47 B    47 A    48 A    49 A    48 B    50 A    49 B                  
  0.770   0.778   0.794   0.801   0.817   0.837   0.853   0.856
 51 A    50 B    51 B    52 A    52 B    53 B    54 B    53 A                  
  0.864   0.879   0.880   0.897   0.907   0.940   0.943   0.962
 55 B    56 B    54 A    55 A    56 A    57 B    57 A    58 A                  
  0.985   0.996   1.007   1.020   1.026   1.035   1.069   1.090
 58 B    59 A    60 A    59 B    60 B    61 A    62 A    61 B                  
  1.096   1.101   1.110   1.113   1.144   1.154   1.168   1.170
 63 A    62 B    64 A    63 B    64 B    65 B    65 A    66 B                  
  1.175   1.180   1.190   1.231   1.242   1.253   1.272   1.284
 66 A    67 B    67 A    68 A    69 A    68 B    69 B    70 B                  
  1.287   1.303   1.323   1.345   1.381   1.397   1.415   1.438
 70 A    71 A    71 B    72 A    73 A    72 B    74 A    73 B                  
  1.445   1.448   1.471   1.480   1.495   1.519   1.531   1.541
 74 B    75 A    76 A    75 B    76 B    77 A    77 B    78 A                  
  1.548   1.559   1.566   1.573   1.594   1.616   1.627   1.658
 78 B    79 B    79 A    80 B    80 A    81 A    81 B    82 A                  
  1.667   1.686   1.702   1.736   1.759   1.785   1.823   1.850
 82 B    83 B    83 A    84 B    84 A    85 A    85 B    86 B                  
  1.852   1.865   1.879   1.885   1.896   1.902   1.922   1.940
 86 A    87 A    87 B    88 A    88 B    89 A    89 B    90 A                  
  1.959   1.968   2.035   2.070   2.077   2.086   2.122   2.177
 90 B    91 B    91 A    92 A    92 B    93 A    93 B    94 A                  
  2.178   2.190   2.199   2.200   2.260   2.261   2.271   2.291
 94 B    95 B    96 B    95 A    97 B    96 A    97 A    98 B                  
  2.301   2.308   2.322   2.364   2.407   2.424   2.437   2.458
 99 B    98 A    99 A   100 B   100 A   101 B   101 A   102 B                  
  2.466   2.510   2.524   2.537   2.544   2.564   2.588   2.601
102 A   103 A   104 A   103 B   104 B   105 B   105 A   106 A                  
  2.632   2.646   2.694   2.696   2.727   2.740   2.751   2.758
106 B   107 B   108 B   107 A   109 B   108 A   110 B   109 A                  
  2.763   2.769   2.803   2.809   2.822   2.826   2.879   2.902
111 B   110 A   112 B   111 A   112 A   113 A   113 B   114 A                  
  2.917   2.931   2.946   2.965   2.988   3.009   3.012   3.013
114 B   115 B   115 A   116 B   116 A   117 B   118 B   117 A                  
  3.024   3.060   3.080   3.122   3.143   3.156   3.164   3.201
118 A   119 B   119 A   120 A   121 A   120 B   122 A   121 B                  
  3.202   3.215   3.239   3.245   3.253   3.271   3.280   3.281
123 A   122 B   123 B   124 B   124 A   125 A   126 A   125 B                  
  3.300   3.309   3.317   3.322   3.329   3.350   3.360   3.386
126 B   127 A   127 B   128 B   128 A   129 A   130 A   131 A                  
  3.389   3.425   3.433   3.440   3.450   3.468   3.475   3.479
129 B   130 B   131 B   132 A   133 A   134 A   132 B   135 A                  
  3.493   3.496   3.504   3.510   3.523   3.527   3.530   3.539
133 B   136 A   134 B   135 B   137 A   136 B   138 A   137 B                  
  3.549   3.552   3.555   3.573   3.601   3.621   3.636   3.665
139 A   138 B   140 A   141 A   139 B   142 A   140 B   141 B                  
  3.694   3.698   3.718   3.733   3.747   3.767   3.772   3.784
143 A   142 B   143 B   144 A   144 B   145 A   145 B   146 A                  
  3.828   3.840   3.866   3.881   3.900   3.900   3.937   3.937
146 B   147 A   147 B   148 A   149 A   148 B   150 A   149 B                  
  3.953   3.986   4.000   4.006   4.028   4.030   4.040   4.056
151 A   150 B   152 A   151 B   153 A   152 B   153 B   154 A                  
  4.079   4.100   4.115   4.124   4.157   4.174   4.177   4.192
155 A   154 B   155 B   156 B   156 A   157 A   157 B   158 A                  
  4.203   4.207   4.234   4.251   4.276   4.278   4.310   4.328
159 A   158 B   160 A   161 A   159 B   160 B   162 A   163 A                  
  4.328   4.365   4.383   4.411   4.422   4.468   4.512   4.530
161 B   162 B   164 A   163 B   164 B   165 A   166 A   165 B                  
  4.565   4.599   4.619   4.635   4.644   4.681   4.692   4.695
166 B   167 A   168 A   167 B   168 B   169 A   170 A   169 B                  
  4.719   4.737   4.741   4.766   4.790   4.806   4.832   4.870
171 A   170 B   172 A   171 B   172 B   173 B   173 A   174 B                  
  4.891   4.959   5.012   5.043   5.054   5.076   5.076   5.091
174 A   175 B   176 B   175 A   176 A   177 A   177 B   178 A                  
  5.111   5.155   5.180   5.251   5.265   5.291   5.321   5.397
178 B   179 A   179 B   180 A   180 B   181 B   181 A   182 A                  
  5.406   5.417   5.421   5.506   5.552   5.621   5.630   5.675
182 B   183 A   183 B   184 A   184 B   185 A   186 A   185 B                  
  5.761   5.938   5.938   6.086   6.101   6.160   6.171   6.284
186 B   187 B   187 A   188 A   188 B   189 B   189 A   190 B                  
  6.318   6.563   6.563   6.742   6.766   9.500  10.849  11.803
190 A   191 A   191 B   192 B   192 A   193 A   193 B   194 A                  
 12.414  13.642  13.786  14.633  14.777
194 B   195 B   195 A   196 B   196 A                                          
 --------------------------------------------------------------
 
          Ground-State Mulliken Net Atomic Charges

     Atom                 Charge (a.u.)
  ----------------------------------------
      1 S                     0.102419
      2 C                    -0.237760
      3 C                    -0.198102
      4 C                    -0.213950
      5 C                     0.025753
      6 H                     0.160707
      7 C                     0.025753
      8 S                     0.102419
      9 C                    -0.213950
     10 C                    -0.237760
     11 C                    -0.198102
     12 H                     0.175116
     13 H                     0.185816
     14 H                     0.175116
     15 H                     0.185816
     16 H                     0.160707
  ----------------------------------------
  Sum of atomic charges =    -0.000000

 -----------------------------------------------------------------
                    Cartesian Multipole Moments
 -----------------------------------------------------------------
    Charge (ESU x 10^10)
                 0.0000
    Dipole Moment (Debye)
         X       0.0000      Y      -0.0000      Z       0.0786
       Tot       0.0786
    Quadrupole Moments (Debye-Ang)
        XX     -61.1460     XY       1.0016     YY     -67.8586
        XZ       0.0000     YZ       0.0000     ZZ     -78.0560
    Octopole Moments (Debye-Ang^2)
       XXX       0.0000    XXY       0.0000    XYY       0.0000
       YYY      -0.0000    XXZ      -0.1951    XYZ       2.1086
       YYZ       2.1605    XZZ      -0.0000    YZZ      -0.0000
       ZZZ       1.2026
    Hexadecapole Moments (Debye-Ang^3)
      XXXX   -1834.6387   XXXY     -21.6674   XXYY    -409.7679
      XYYY      14.9033   YYYY    -549.5497   XXXZ       0.0000
      XXYZ       0.0000   XYYZ       0.0000   YYYZ       0.0000
      XXZZ    -407.9997   XYZZ      -8.0814   YYZZ    -120.6079
      XZZZ       0.0000   YZZZ       0.0000   ZZZZ     -99.3699
 -----------------------------------------------------------------
 DrvMan is completing analytic gradient of the MP2 energy
 MP2 relaxed dipole moment
            1
    1   0.0000000
    2  -0.0000000
    3   0.0309358
	Magnitude:	 0.031 au	 0.079 Debye
 MP2 energy read as -1103.414039
 Full Analytical Gradient of MP2 Energy (in au.)
             1             2             3             4             5
    1    0.00001145   -0.00003518   -0.00003657    0.00006491   -0.00004212
    2   -0.00000946    0.00000015    0.00003463   -0.00003539   -0.00005721
    3   -0.00010982    0.00018120   -0.00028871    0.00035651    0.00012536
             6             7             8             9            10
    1    0.00000583    0.00004212   -0.00001145   -0.00006491    0.00003518
    2    0.00006746    0.00005721    0.00000946    0.00003539   -0.00000015
    3   -0.00036314    0.00012536   -0.00010982    0.00035651    0.00018120
            11            12            13            14            15
    1    0.00003657    0.00000128   -0.00000541   -0.00000128    0.00000541
    2   -0.00003463    0.00001781    0.00001646   -0.00001781   -0.00001646
    3   -0.00028871    0.00010414   -0.00000554    0.00010414   -0.00000554
            16
    1   -0.00000583
    2   -0.00006746
    3   -0.00036314
 Gradient time:  CPU 1.46 s  wall 0.09 s
 Geometry Optimization Parameters
   NAtoms,    NIC,     NZ,  NCons,   NDum,   NFix, NCnnct, MaxDiis
       16     111       0       1       0       0       0       0

 Cartesian Hessian Update
 Hessian Updated using BFGS Update


** CONSTRAINED OPTIMIZATION IN DELOCALIZED INTERNAL COORDINATES **
   Searching for a Minimum

   Optimization Cycle:   3

                       Coordinates (Angstroms)
     ATOM                X               Y               Z
      1  S         1.8190273537   -1.1903151160   -0.1123149010
      2  C         3.1685772808   -0.1478234321   -0.0309776327
      3  C         2.7830881472    1.1641213530    0.0824362526
      4  C         1.3879804793    1.3150416091    0.1122911249
      5  C         0.7083636121    0.1180250579    0.0187619047
      6  H         0.8832347523    2.2606372637    0.2025208576
      7  C        -0.7083636121   -0.1180250579    0.0187619047
      8  S        -1.8190273537    1.1903151160   -0.1123149010
      9  C        -1.3879804793   -1.3150416091    0.1122911249
     10  C        -3.1685772808    0.1478234321   -0.0309776327
[...]
         Gradient           0.000064      0.000300     YES
         Displacement       0.002139      0.001200      NO
         Energy change     -0.000001      0.000001     YES

 Final energy is   -1103.41404990882     


 ******************************
 **  OPTIMIZATION CONVERGED  **
 ******************************

                       Coordinates (Angstroms)
     ATOM                X               Y               Z
      1  S         1.8184821333   -1.1897161843   -0.1170302140
      2  C         3.1683863690   -0.1472894638   -0.0403131808
      3  C         2.7833104138    1.1640566955    0.0815466904
      4  C         1.3882534801    1.3147061718    0.1187970141
      5  C         0.7084182221    0.1179027110    0.0252756259
      6  H         0.8837234742    2.2588398745    0.2238437191
      7  C        -0.7084182221   -0.1179027110    0.0252756259
      8  S        -1.8184821333    1.1897161843   -0.1170302140
      9  C        -1.3882534801   -1.3147061718    0.1187970141
     10  C        -3.1683863690    0.1472894638   -0.0403131808
     11  C        -2.7833104138   -1.1640566955    0.0815466904
     12  H        -3.4824364117   -1.9772627970    0.1448802013
     13  H         4.1613987218   -0.5474552051   -0.0886246572
     14  H         3.4824364117    1.9772627970    0.1448802013
     15  H        -4.1613987218    0.5474552051   -0.0886246572
     16  H        -0.8837234742   -2.2588398745    0.2238437191

Z-matrix Print:
$molecule
0 1
S 
C  1 1.707273
H  2 1.071700 1 120.172990
C  2 1.372138 1 111.445980 3 -179.971010 0
H  4 1.074287 2 123.095525 1 179.947915 0
C  4 1.403662 2 112.572172 1 -0.299911 0
H  6 1.075627 4 124.262029 2 -179.139839 0
C  6 1.379587 4 113.256962 2 0.002540 0
C  8 1.436325 6 128.940767 4 179.813600 0
C  9 1.379587 8 128.940767 6 170.000000 0
H  10 1.075627 9 122.475232 8 -1.026582 0
C  10 1.403662 9 113.256962 8 179.813600 0
H  12 1.074287 10 124.331801 9 179.751120 0
C  12 1.372138 10 112.572172 9 0.002540 0
H  14 1.071700 12 128.381023 10 179.732060 0
S  14 1.707273 12 111.445980 10 -0.299911 0
$end

 
 --------------------------------------------------------------
             Orbital Energies (a.u.) and Symmetries
 --------------------------------------------------------------
 
 Alpha MOs, Restricted
 -- Occupied --                  
-91.984 -91.984 -11.276 -11.275 -11.262 -11.262 -11.239 -11.239
  1 A     1 B     2 A     2 B     3 B     3 A     4 B     4 A                  
-11.237 -11.237  -8.986  -8.986  -6.667  -6.667  -6.667  -6.667
  5 A     5 B     6 A     6 B     7 B     7 A     8 A     8 B                  
 -6.666  -6.666  -1.197  -1.167  -1.037  -1.001  -0.984  -0.949
  9 B     9 A    10 A    10 B    11 A    11 B    12 A    12 B                  
 -0.811  -0.782  -0.744  -0.718  -0.708  -0.645  -0.573  -0.572
 13 A    13 B    14 A    14 B    15 A    15 B    16 A    16 B                  
 -0.557  -0.555  -0.551  -0.513  -0.513  -0.484  -0.465  -0.378
 17 A    17 B    18 A    19 A    18 B    19 B    20 A    21 A                  
 -0.356  -0.347  -0.277
 20 B    22 A    21 B                                                          
 -- Virtual --                   
  0.070   0.146   0.148   0.153   0.163   0.172   0.183   0.191
 23 A    22 B    23 B    24 A    25 A    24 B    25 B    26 A                  
  0.200   0.207   0.209   0.228   0.263   0.274   0.319   0.345
 27 A    26 B    28 A    27 B    28 B    29 A    29 B    30 A                  
  0.357   0.364   0.373   0.374   0.394   0.404   0.421   0.443
 31 A    30 B    32 A    31 B    33 A    32 B    33 B    34 B                  
  0.448   0.457   0.464   0.469   0.476   0.478   0.512   0.521
 34 A    35 B    35 A    36 A    36 B    37 A    38 A    37 B                  
  0.532   0.536   0.539   0.546   0.558   0.560   0.573   0.573
 39 A    38 B    39 B    40 A    41 A    40 B    41 B    42 A                  
  0.583   0.589   0.597   0.604   0.610   0.617   0.622   0.627
 42 B    43 A    43 B    44 B    45 B    44 A    45 A    46 B                  
  0.632   0.645   0.647   0.654   0.661   0.676   0.709   0.714
 46 A    47 B    47 A    48 A    49 A    48 B    50 A    49 B                  
  0.770   0.778   0.793   0.801   0.817   0.837   0.853   0.856
 51 A    50 B    51 B    52 A    52 B    53 B    54 B    53 A                  
  0.863   0.879   0.880   0.898   0.907   0.941   0.944   0.962
 55 B    54 A    56 B    55 A    56 A    57 B    57 A    58 A                  
  0.984   0.996   1.006   1.021   1.026   1.034   1.069   1.090
 58 B    59 A    60 A    59 B    60 B    61 A    62 A    61 B                  
  1.096   1.101   1.110   1.113   1.144   1.155   1.168   1.170
 63 A    62 B    64 A    63 B    64 B    65 B    65 A    66 B                  
  1.174   1.180   1.190   1.231   1.242   1.254   1.271   1.284
 66 A    67 B    67 A    68 A    69 A    68 B    69 B    70 B                  
  1.288   1.303   1.323   1.344   1.382   1.397   1.415   1.438
 70 A    71 A    71 B    72 A    73 A    72 B    74 A    73 B                  
  1.445   1.448   1.471   1.480   1.494   1.518   1.531   1.541
 74 B    75 A    76 A    75 B    76 B    77 A    77 B    78 A                  
  1.548   1.559   1.567   1.574   1.594   1.616   1.627   1.657
 78 B    79 B    79 A    80 B    80 A    81 A    81 B    82 A                  
  1.667   1.686   1.703   1.736   1.759   1.785   1.822   1.848
 82 B    83 B    83 A    84 B    84 A    85 A    85 B    86 B                  
  1.851   1.865   1.879   1.885   1.897   1.903   1.922   1.940
 86 A    87 A    87 B    88 A    88 B    89 A    89 B    90 A                  
  1.959   1.967   2.035   2.070   2.075   2.085   2.123   2.177
 90 B    91 B    91 A    92 A    92 B    93 A    93 B    94 A                  
  2.178   2.190   2.199   2.200   2.260   2.260   2.272   2.290
 94 B    95 B    96 B    95 A    96 A    97 B    97 A    98 B                  
  2.301   2.308   2.321   2.365   2.407   2.424   2.437   2.459
 99 B    98 A    99 A   100 B   100 A   101 B   101 A   102 B                  
  2.465   2.511   2.524   2.537   2.543   2.564   2.589   2.601
102 A   103 A   104 A   103 B   104 B   105 B   105 A   106 A                  
  2.632   2.647   2.694   2.696   2.726   2.740   2.752   2.759
106 B   107 B   108 B   107 A   109 B   108 A   110 B   109 A                  
  2.763   2.769   2.802   2.808   2.823   2.823   2.879   2.902
111 B   110 A   112 B   111 A   112 A   113 A   113 B   114 A                  
  2.916   2.931   2.947   2.965   2.987   3.010   3.011   3.012
114 B   115 B   115 A   116 B   116 A   117 B   118 B   117 A                  
  3.024   3.060   3.081   3.122   3.142   3.156   3.164   3.201
118 A   119 B   119 A   120 A   121 A   120 B   122 A   121 B                  
  3.202   3.214   3.239   3.246   3.253   3.271   3.279   3.282
123 A   122 B   123 B   124 B   124 A   125 A   126 A   125 B                  
  3.299   3.310   3.320   3.320   3.329   3.350   3.360   3.385
126 B   127 A   127 B   128 B   128 A   129 A   130 A   131 A                  
  3.389   3.425   3.434   3.439   3.449   3.468   3.474   3.479
129 B   130 B   131 B   132 A   133 A   134 A   132 B   135 A                  
  3.493   3.496   3.504   3.510   3.523   3.527   3.531   3.540
133 B   136 A   134 B   135 B   137 A   136 B   138 A   137 B                  
  3.549   3.551   3.555   3.574   3.601   3.621   3.637   3.665
139 A   138 B   140 A   141 A   139 B   142 A   140 B   141 B                  
  3.694   3.699   3.719   3.733   3.747   3.767   3.771   3.784
143 A   142 B   143 B   144 A   144 B   145 A   145 B   146 A                  
  3.828   3.840   3.866   3.881   3.899   3.900   3.937   3.938
146 B   147 A   147 B   148 A   149 A   148 B   149 B   150 A                  
  3.952   3.986   3.999   4.006   4.027   4.030   4.039   4.056
151 A   150 B   152 A   151 B   153 A   152 B   153 B   154 A                  
  4.079   4.100   4.115   4.125   4.157   4.174   4.176   4.192
155 A   154 B   155 B   156 B   156 A   157 A   157 B   158 A                  
  4.203   4.207   4.233   4.252   4.275   4.279   4.309   4.329
159 A   158 B   160 A   161 A   159 B   160 B   162 A   163 A                  
  4.329   4.365   4.383   4.411   4.422   4.467   4.512   4.530
161 B   162 B   164 A   163 B   164 B   165 A   166 A   165 B                  
  4.564   4.599   4.619   4.634   4.643   4.681   4.693   4.696
166 B   167 A   168 A   167 B   168 B   169 A   170 A   169 B                  
  4.720   4.737   4.740   4.763   4.792   4.807   4.832   4.870
171 A   170 B   172 A   171 B   172 B   173 B   173 A   174 B                  
  4.890   4.959   5.011   5.042   5.054   5.075   5.076   5.090
174 A   175 B   176 B   175 A   176 A   177 A   177 B   178 A                  
  5.110   5.154   5.180   5.251   5.265   5.292   5.321   5.397
178 B   179 A   179 B   180 A   180 B   181 B   181 A   182 A                  
  5.405   5.417   5.421   5.505   5.552   5.621   5.630   5.675
182 B   183 A   183 B   184 A   184 B   185 A   186 A   185 B                  
  5.761   5.938   5.938   6.085   6.101   6.160   6.171   6.283
186 B   187 B   187 A   188 A   188 B   189 B   189 A   190 B                  
  6.317   6.563   6.564   6.742   6.766   9.502  10.848  11.800
190 A   191 A   191 B   192 B   192 A   193 A   193 B   194 A                  
 12.411  13.640  13.783  14.632  14.775
194 B   195 B   195 A   196 B   196 A                                          
 
 Beta MOs, Restricted
 -- Occupied --                  
-91.984 -91.984 -11.276 -11.275 -11.262 -11.262 -11.239 -11.239
  1 A     1 B     2 A     2 B     3 B     3 A     4 B     4 A                  
-11.237 -11.237  -8.986  -8.986  -6.667  -6.667  -6.667  -6.667
  5 A     5 B     6 A     6 B     7 B     7 A     8 A     8 B                  
 -6.666  -6.666  -1.197  -1.167  -1.037  -1.001  -0.984  -0.949
  9 B     9 A    10 A    10 B    11 A    11 B    12 A    12 B                  
 -0.811  -0.782  -0.744  -0.718  -0.708  -0.645  -0.573  -0.572
 13 A    13 B    14 A    14 B    15 A    15 B    16 A    16 B                  
 -0.557  -0.555  -0.551  -0.513  -0.513  -0.484  -0.465  -0.378
 17 A    17 B    18 A    19 A    18 B    19 B    20 A    21 A                  
 -0.356  -0.347  -0.277
 20 B    22 A    21 B                                                          
 -- Virtual --                   
  0.070   0.146   0.148   0.153   0.163   0.172   0.183   0.191
 23 A    22 B    23 B    24 A    25 A    24 B    25 B    26 A                  
  0.200   0.207   0.209   0.228   0.263   0.274   0.319   0.345
 27 A    26 B    28 A    27 B    28 B    29 A    29 B    30 A                  
  0.357   0.364   0.373   0.374   0.394   0.404   0.421   0.443
 31 A    30 B    32 A    31 B    33 A    32 B    33 B    34 B                  
  0.448   0.457   0.464   0.469   0.476   0.478   0.512   0.521
 34 A    35 B    35 A    36 A    36 B    37 A    38 A    37 B                  
  0.532   0.536   0.539   0.546   0.558   0.560   0.573   0.573
 39 A    38 B    39 B    40 A    41 A    40 B    41 B    42 A                  
  0.583   0.589   0.597   0.604   0.610   0.617   0.622   0.627
 42 B    43 A    43 B    44 B    45 B    44 A    45 A    46 B                  
  0.632   0.645   0.647   0.654   0.661   0.676   0.709   0.714
 46 A    47 B    47 A    48 A    49 A    48 B    50 A    49 B                  
  0.770   0.778   0.793   0.801   0.817   0.837   0.853   0.856
 51 A    50 B    51 B    52 A    52 B    53 B    54 B    53 A                  
  0.863   0.879   0.880   0.898   0.907   0.941   0.944   0.962
 55 B    54 A    56 B    55 A    56 A    57 B    57 A    58 A                  
  0.984   0.996   1.006   1.021   1.026   1.034   1.069   1.090
 58 B    59 A    60 A    59 B    60 B    61 A    62 A    61 B                  
  1.096   1.101   1.110   1.113   1.144   1.155   1.168   1.170
 63 A    62 B    64 A    63 B    64 B    65 B    65 A    66 B                  
  1.174   1.180   1.190   1.231   1.242   1.254   1.271   1.284
 66 A    67 B    67 A    68 A    69 A    68 B    69 B    70 B                  
  1.288   1.303   1.323   1.344   1.382   1.397   1.415   1.438
 70 A    71 A    71 B    72 A    73 A    72 B    74 A    73 B                  
  1.445   1.448   1.471   1.480   1.494   1.518   1.531   1.541
 74 B    75 A    76 A    75 B    76 B    77 A    77 B    78 A                  
  1.548   1.559   1.567   1.574   1.594   1.616   1.627   1.657
 78 B    79 B    79 A    80 B    80 A    81 A    81 B    82 A                  
  1.667   1.686   1.703   1.736   1.759   1.785   1.822   1.848
 82 B    83 B    83 A    84 B    84 A    85 A    85 B    86 B                  
  1.851   1.865   1.879   1.885   1.897   1.903   1.922   1.940
 86 A    87 A    87 B    88 A    88 B    89 A    89 B    90 A                  
  1.959   1.967   2.035   2.070   2.075   2.085   2.123   2.177
 90 B    91 B    91 A    92 A    92 B    93 A    93 B    94 A                  
  2.178   2.190   2.199   2.200   2.260   2.260   2.272   2.290
 94 B    95 B    96 B    95 A    96 A    97 B    97 A    98 B                  
  2.301   2.308   2.321   2.365   2.407   2.424   2.437   2.459
 99 B    98 A    99 A   100 B   100 A   101 B   101 A   102 B                  
  2.465   2.511   2.524   2.537   2.543   2.564   2.589   2.601
102 A   103 A   104 A   103 B   104 B   105 B   105 A   106 A                  
  2.632   2.647   2.694   2.696   2.726   2.740   2.752   2.759
106 B   107 B   108 B   107 A   109 B   108 A   110 B   109 A                  
  2.763   2.769   2.802   2.808   2.823   2.823   2.879   2.902
111 B   110 A   112 B   111 A   112 A   113 A   113 B   114 A                  
  2.916   2.931   2.947   2.965   2.987   3.010   3.011   3.012
114 B   115 B   115 A   116 B   116 A   117 B   118 B   117 A                  
  3.024   3.060   3.081   3.122   3.142   3.156   3.164   3.201
118 A   119 B   119 A   120 A   121 A   120 B   122 A   121 B                  
  3.202   3.214   3.239   3.246   3.253   3.271   3.279   3.282
123 A   122 B   123 B   124 B   124 A   125 A   126 A   125 B                  
  3.299   3.310   3.320   3.320   3.329   3.350   3.360   3.385
126 B   127 A   127 B   128 B   128 A   129 A   130 A   131 A                  
  3.389   3.425   3.434   3.439   3.449   3.468   3.474   3.479
129 B   130 B   131 B   132 A   133 A   134 A   132 B   135 A                  
  3.493   3.496   3.504   3.510   3.523   3.527   3.531   3.540
133 B   136 A   134 B   135 B   137 A   136 B   138 A   137 B                  
  3.549   3.551   3.555   3.574   3.601   3.621   3.637   3.665
139 A   138 B   140 A   141 A   139 B   142 A   140 B   141 B                  
  3.694   3.699   3.719   3.733   3.747   3.767   3.771   3.784
143 A   142 B   143 B   144 A   144 B   145 A   145 B   146 A                  
  3.828   3.840   3.866   3.881   3.899   3.900   3.937   3.938
146 B   147 A   147 B   148 A   149 A   148 B   149 B   150 A                  
  3.952   3.986   3.999   4.006   4.027   4.030   4.039   4.056
151 A   150 B   152 A   151 B   153 A   152 B   153 B   154 A                  
  4.079   4.100   4.115   4.125   4.157   4.174   4.176   4.192
155 A   154 B   155 B   156 B   156 A   157 A   157 B   158 A                  
  4.203   4.207   4.233   4.252   4.275   4.279   4.309   4.329
159 A   158 B   160 A   161 A   159 B   160 B   162 A   163 A                  
  4.329   4.365   4.383   4.411   4.422   4.467   4.512   4.530
161 B   162 B   164 A   163 B   164 B   165 A   166 A   165 B                  
  4.564   4.599   4.619   4.634   4.643   4.681   4.693   4.696
166 B   167 A   168 A   167 B   168 B   169 A   170 A   169 B                  
  4.720   4.737   4.740   4.763   4.792   4.807   4.832   4.870
171 A   170 B   172 A   171 B   172 B   173 B   173 A   174 B                  
  4.890   4.959   5.011   5.042   5.054   5.075   5.076   5.090
174 A   175 B   176 B   175 A   176 A   177 A   177 B   178 A                  
  5.110   5.154   5.180   5.251   5.265   5.292   5.321   5.397
178 B   179 A   179 B   180 A   180 B   181 B   181 A   182 A                  
  5.405   5.417   5.421   5.505   5.552   5.621   5.630   5.675
182 B   183 A   183 B   184 A   184 B   185 A   186 A   185 B                  
  5.761   5.938   5.938   6.085   6.101   6.160   6.171   6.283
186 B   187 B   187 A   188 A   188 B   189 B   189 A   190 B                  
  6.317   6.563   6.564   6.742   6.766   9.502  10.848  11.800
190 A   191 A   191 B   192 B   192 A   193 A   193 B   194 A                  
 12.411  13.640  13.783  14.632  14.775
194 B   195 B   195 A   196 B   196 A                                          
 --------------------------------------------------------------
 
          Ground-State Mulliken Net Atomic Charges

     Atom                 Charge (a.u.)
  ----------------------------------------
      1 S                     0.102754
      2 C                    -0.237872
      3 C                    -0.197865
      4 C                    -0.214488
      5 C                     0.025745
      6 H                     0.160837
      7 C                     0.025745
      8 S                     0.102754
      9 C                    -0.214488
     10 C                    -0.237872
     11 C                    -0.197865
     12 H                     0.175106
     13 H                     0.185784
     14 H                     0.175106
     15 H                     0.185784
     16 H                     0.160837
  ----------------------------------------
  Sum of atomic charges =    -0.000000

 -----------------------------------------------------------------
                    Cartesian Multipole Moments
 -----------------------------------------------------------------
    Charge (ESU x 10^10)
                -0.0000
    Dipole Moment (Debye)
         X      -0.0000      Y      -0.0000      Z       0.0819
       Tot       0.0819
    Quadrupole Moments (Debye-Ang)
        XX     -61.1466     XY       1.0038     YY     -67.8733
        XZ      -0.0000     YZ       0.0000     ZZ     -78.0411
    Octopole Moments (Debye-Ang^2)
       XXX       0.0000    XXY       0.0000    XYY       0.0000
       YYY      -0.0000    XXZ      -0.5309    XYZ       2.2035
       YYZ       2.3889    XZZ       0.0000    YZZ      -0.0000
       ZZZ       1.4894
    Hexadecapole Moments (Debye-Ang^3)
      XXXX   -1834.5246   XXXY     -21.7449   XXYY    -409.6892
      XYYY      14.6832   YYYY    -549.3642   XXXZ      -0.0000
      XXYZ       0.0000   XYYZ      -0.0000   YYYZ       0.0000
      XXZZ    -407.9481   XYZZ      -8.1667   YYZZ    -120.5228
      XZZZ      -0.0000   YZZZ       0.0000   ZZZZ     -99.7993
 -----------------------------------------------------------------
Archival summary:
1\1\nid01256\OPT\MP2\BasisUnspecified\286\MonMar616:30:372017MonMar616:30:372017\0\\#,OPT,MP2,BasisUnspecified,\\0,1\S\C,1,1.70727\H,2,1.0717,1,120.173\C,2,1.37214,1,111.446,3,-179.971,0\H,4,1.07429,2,123.096,1,179.948,0\C,4,1.40366,2,112.572,1,-0.299911,0\H,6,1.07563,4,124.262,2,-179.14,0\C,6,1.37959,4,113.257,2,0.00254043,0\C,8,1.43633,6,128.941,4,179.814,0\C,9,1.37959,8,128.941,6,170,0\H,10,1.07563,9,122.475,8,-1.02658,0\C,10,1.40366,9,113.257,8,179.814,0\H,12,1.07429,10,124.332,9,179.751,0\C,12,1.37214,10,112.572,9,0.00254043,0\H,14,1.0717,12,128.381,10,179.732,0\S,14,1.70727,12,111.446,10,-0.299911,0\\HF=-1101.59898\MP2=-1103.41405\\@

 Total job time:  9014.89s(wall), 46455.03s(cpu) 
 Mon Mar  6 16:30:37 2017

        *************************************************************
        *                                                           *
        *  Thank you very much for using Q-Chem.  Have a nice day.  *
        *                                                           *
        *************************************************************


0 sent ACK to 0 
now end server 0 ... 
