srun -N 1 --ntasks-per-node 1 --cpus-per-task 64 --cpu_bind=cores --nodelist nid01199 /global/project/projectdirs/jcesr/qchem/qc44/cnl_qc441/dist/exe/qcprog.cori.haswell.exe .pt_mp2_10.0.in.29524.qcin.1 /dev/shm/eg_qchem/qchem29524/
Process 0 of 1 is on nid01199 - thread support 0
initial socket setup ...start
initial socket setup ...done 
now start server 0 ... 
nid01199 10.128.4
Q-Chem Developer Version! Running on 10.128.4.*
                  Welcome to Q-Chem
     A Quantum Leap Into The Future Of Chemistry


 Q-Chem 4.4, Q-Chem, Inc., Pleasanton, CA (2016)

 Y. Shao,  Z. Gan,  E. Epifanovsky,  A. T. B. Gilbert,  M. Wormit,  
 J. Kussmann,  A. W. Lange,  A. Behn,  J. Deng,  X. Feng,  D. Ghosh,  
 M. Goldey,  P. R. Horn,  L. D. Jacobson,  I. Kaliman,  F.Rob,  
 R. Z. Khaliullin,  T. Kus,  A. Landau,  J. Liu,  E. I. Proynov,  Y. M. Rhee,  
 R. M. Richard,  M. A. Rohrdanz,  R. P. Steele,  E. J. Sundstrom,  
 H. L. Woodcock III,  P. M. Zimmerman,  D. Zuev,  B. Albrecht,  E. Alguire,  
 B. Austin,  S. A. Baeppler,  G. J. O. Beran,  Y. A. Bernard,  E. Berquist,  
 K. Brandhorst,  K. B. Bravaya,  S. T. Brown,  D. Casanova,  C.-M. Chang,  
 Y. Chen,  S. H. Chien,  K. D. Closser,  M. P. Coons,  D. L. Crittenden,  
 S. Dasgupta,  M. Diedenhofen,  R. A. DiStasio Jr.,  H. Do,  A. D. Dutoi,  
 R. G. Edgar,  P.-T. Fang,  S. Fatehi,  Q. Feng,  L. Fusti-Molnar,  
 A. Ghysels,  A. Golubeva-Zadorozhnaya,  J. Gomes,  A. Gunina,  
 M. W. D. Hanson-Heine,  P. H. P. Harbach,  A. W. Hauser,  E. G. Hohenstein,  
 Z. C. Holden,  K. Hui,  T.-C. Jagau,  H. Ji,  B. Kaduk,  K. Khistyaev,  
 Jaehoon Kim,  Jihan Kim,  R. A. King,  P. Klunzinger,  D. Kosenkov,  
 T. Kowalczyk,  C. M. Krauter,  A. Kunitsa,  K. U. Lao,  A. Laurent,  
 K. V. Lawler,  D. Lefrancois,  S. Lehtola,  S. V. Levchenko,  C. Y. Lin,  
 Y.-S. Lin,  F. Liu,  E. Livshits,  R. C. Lochan,  A. Luenser,  P. Manohar,  
 S. F. Manzer,  S.-P. Mao,  Y. Mao,  N. Mardirossian,  A. V. Marenich,  
 L. A. Martinez-Martinez,  S. A. Maurer,  N. J. Mayhall,  J.-M. Mewes,  
 A. F. Morrison,  K. Nanda,  C. M. Oana,  R. Olivares-Amaya,  D. P. O'Neill,  
 J. A. Parkhill,  T. M. Perrine,  R. Peverati,  P. A. Pieniazek,  F. Plasser,  
 A. Prociuk,  D. R. Rehn,  E. Rosta,  N. J. Russ,  N. Sergueev,  
 S. M. Sharada,  S. Sharma,  D. W. Small,  A. Sodt,  T. Stauch,  T. Stein,  
 D. Stuck,  Y.-C. Su,  A. J. W. Thom,  T. Tsuchimochi,  L. Vogt,  O. Vydrov,  
 T. Wang,  M. A. Watson,  J. Wenzel,  A. White,  C. F. Williams,  
 V. Vanovschi,  S. Yeganeh,  S. R. Yost,  Z.-Q. You,  I. Y. Zhang,  X. Zhang,  
 Y. Zhao,  B. R. Brooks,  G. K. L. Chan,  D. M. Chipman,  C. J. Cramer,  
 W. A. Goddard III,  M. S. Gordon,  W. J. Hehre,  A. Klamt,  
 H. F. Schaefer III,  M. W. Schmidt,  C. D. Sherrill,  D. G. Truhlar,  
 A. Warshel,  X. Xu,  A. Aspuru-Guzik,  R. Baer,  A. T. Bell,  N. A. Besley,  
 J.-D. Chai,  A. Dreuw,  B. D. Dunietz,  T. R. Furlani,  S. R. Gwaltney,  
 C.-P. Hsu,  Y. Jung,  J. Kong,  D. S. Lambrecht,  W. Liang,  C. Ochsenfeld,  
 V. A. Rassolov,  L. V. Slipchenko,  J. E. Subotnik,  T. Van Voorhis,  
 J. M. Herbert,  A. I. Krylov,  P. M. W. Gill,  M. Head-Gordon

 Contributors to earlier versions of Q-Chem not listed above: 
 R. D. Adamson,  J. Baker,  E. F. C. Byrd,  A. K. Chakraborty,  C.-L. Cheng,  
 H. Dachsel,  R. J. Doerksen,  G. Hawkins,  A. Heyden,  S. Hirata,  
 G. Kedziora,  F. J. Keil,  C. Kelley,  P. P. Korambath,  W. Kurlancheek,  
 A. M. Lee,  M. S. Lee,  D. Liotard,  I. Lotan,  P. E. Maslen,  N. Nair,  
 D. Neuhauser,  R. Olson,  B. Peters,  J. Ritchie,  N. E. Schultz,  
 N. Shenvi,  A. C. Simmonett,  K. S. Thanthiriwatte,  Q. Wu,  W. Zhang

 Please cite Q-Chem as follows:
 Y. Shao et al., Mol. Phys. 113, 184-215 (2015)
 DOI: 10.1080/00268976.2014.952696

 Q-Chem 4.4.1 for Intel X86 EM64T Linux

 Parts of Q-Chem use Armadillo 5.200.1 (Boston Tea Smuggler).
 http://arma.sourceforge.net/

 Q-Chem begins on Mon Mar  6 14:00:19 2017  

Host: nid01196
0

     Scratch files written to /dev/shm/eg_qchem/qchem29524//
 Parallel job on  1  processors

Checking the input file for inconsistencies... 	...done.

--------------------------------------------------------------
User input:
--------------------------------------------------------------
$molecule
 0  1
 S           1.80900300       -1.15938900        0.25896800
 C           3.16466000       -0.14246800        0.05606700
 C           2.78757500        1.14089100       -0.25226100
 C           1.39402000        1.28822000       -0.33563400
 C           0.70898100        0.11689900       -0.08798100
 H           0.89277600        2.20524100       -0.58940400
 C          -0.70898100       -0.11689900       -0.08798100
 S          -1.35365788       -1.60223463        0.49296896
 C          -1.72422000        0.71441070       -0.51320715
 C          -2.95852247       -1.10773598        0.18803656
 C          -3.00059601        0.15106058       -0.35779365
 H          -3.91724893        0.64416729       -0.62379307
 H           4.15569300       -0.53353100        0.17259300
 H           3.49202900        1.93475000       -0.41867900
 H          -3.77785198       -1.75803785        0.42140668
 H          -1.53679106        1.70064735       -0.89892718
$end


$rem
         jobtype = opt
        exchange = hf
           basis = cc-pvtz
  max_scf_cycles = 100
      mem_static = 6200
       mem_total = 62000
          method = mp2
$end


$opt
CONSTRAINT
tors 4 5 7 9 10.0
ENDCONSTRAINT
$end

--------------------------------------------------------------
 Atom  15: ( -4.0148536913,  0.0810256323,  0.8791642758)
         ->( -4.0148536889,  0.0810256270,  0.8791642804)
 ----------------------------------------------------------------
             Standard Nuclear Orientation (Angstroms)
    I     Atom           X                Y                Z
 ----------------------------------------------------------------
    1      S       1.5976986264    -0.1033548861     1.1301137591
    2      C       3.0999479081    -0.0308773335     0.3232078553
    3      C       2.9351249188     0.0921844594    -1.0339799552
    4      C       1.5837355033     0.1132888693    -1.4133922385
    5      C       0.7184978844     0.0089569028    -0.3442420953
    6      H       1.2375165521     0.1784843171    -2.4294898058
    7      C      -0.7184978824    -0.0089569023    -0.3442420956
    8      S      -1.5976986280     0.1033548853     1.1301137571
    9      C      -1.5837355006    -0.1132888736    -1.4133922379
   10      C      -3.0999479104     0.0308773348     0.3232078555
   11      C      -2.9351249178    -0.0921844555    -1.0339799566
   12      H      -3.7586262943    -0.1549099839    -1.7210559972
   13      H       4.0148536889    -0.0810256270     0.8791642804
   14      H       3.7586262986     0.1549099810    -1.7210559970
   15      H      -4.0148536889     0.0810256270     0.8791642804
   16      H      -1.2375165477    -0.1784843149    -2.4294898071
 ----------------------------------------------------------------
 Molecular Point Group                 C2    NOp =  2
 Largest Abelian Subgroup              C2    NOp =  2
 Nuclear Repulsion Energy =   640.7461663226 hartrees
 There are       43 alpha and       43 beta electrons
 Requested basis set is cc-pVTZ
 There are 140 shells and 392 basis functions

 Total QAlloc Memory Limit  62000 MB
 Mega-Array Size      6061 MB
 MEM_STATIC part      6200 MB
 A cutoff of  1.0D-11 yielded   8028 shell pairs
 There are     62344 function pairs (     81284 Cartesian)
 
 -------------------------------------------------------
 OpenMP Integral Computing Module                       
 Release: version 1.0, May 2013, Q-Chem Inc. Pittsburgh 
 -------------------------------------------------------
 Integral Job Info:
 Integral job number is                      11
 Integral operator is                         1
 short-range coefficients                     0
 long-range coefficients              100000000
 Omega coefficients                           0
 if combine SR and LR in K                    0
 Integral screening is                        0
 Integral computing path is                   2
 max size of driver memory is            800000
 size of driver memory is                776718
 size of scratch memory is             26248924
 max col of scratch BK array              10000
 max len of scratch array in speh3          662
 max len of scratch index in speh4           32
 max int batch size is                      520
 min int batch size is                       52
 fixed nKL is                                52
 max L of basis functions is                  3
 order of int derivative is                   0
 number of shells is                        140
 number of basis is                         448
 number of cartesian basis is               448
 number of contracted shell pairs          8028
 number of primitive shell pairs          28526
 maxK2 (contraction) of shell pair          121
 max number of K2 of shell pair               1
 max number of CS2 of shell pair           1048
 max number of PS2 of shell pair           3108
 mem total for path MDJ                  223748
 -------------------------------------------------------
 Smallest overlap matrix eigenvalue = 5.12E-05

 Scale SEOQF with 1.000000e-01/1.000000e+00/1.000000e-01

 Standard Electronic Orientation quadrupole field applied
 Nucleus-field energy     =     0.0000000041 hartrees
 Guess from superposition of atomic densities
 Warning:  Energy on first SCF cycle will be non-variational
 A restricted Hartree-Fock SCF calculation will be
 performed using Pulay DIIS extrapolation
 SCF converges when DIIS error is below 1.0E-08
 using 16 threads for integral computing 
 ---------------------------------------
  Cycle       Energy         DIIS Error
 ---------------------------------------
    1   -1106.0581150458      2.98E-02
    2   -1100.4205504336      7.05E-03
    3   -1101.5563976438      1.18E-03
    4   -1101.5864632364      6.53E-04
    5   -1101.5955758800      1.39E-04
    6   -1101.5962025743      4.51E-05
    7   -1101.5962799212      1.55E-05
    8   -1101.5962947780      6.72E-06
    9   -1101.5962977005      3.33E-06
   10   -1101.5962983997      1.40E-06
   11   -1101.5962985162      4.39E-07
   12   -1101.5962985262      1.66E-07
   13   -1101.5962985276      3.49E-08
   14   -1101.5962985281      1.39E-08
   15   -1101.5962985298      4.98E-09 Convergence criterion met
 ---------------------------------------
 SCF time:  CPU 573.61 s  wall 35.90 s
 SCF   energy in the final basis set = -1101.5962985298
 Total energy in the final basis set = -1101.5962985298
 
 Components of the MP2 correlation energy:
        aaaa  correlation energy =        -0.2325994171 au
        abab  correlation energy =        -1.3510967413 au
        bbbb  correlation energy =        -0.2325994171 au
        non-Brillouin singles    =        -0.0000000000 au

 Total  MP2   correlation energy =        -1.8162955754 au
        MP2         total energy =     -1103.4125941052 au

  Entering Z-vector solver.
   1         0           1      0.000268    0.000268
   2         0           1      0.000118    0.000118
   3         0           1      0.000048    0.000048
   4         0           1      0.000022    0.000022
   5         0           1      0.000007    0.000007
   6         0           1      0.000002    0.000002
   7         1           0      0.000000    0.000000    Roots Converged
 
 --------------------------------------------------------------
             Orbital Energies (a.u.) and Symmetries
 --------------------------------------------------------------
 
 Alpha MOs, Restricted
 -- Occupied --                  
-91.984 -91.984 -11.276 -11.275 -11.261 -11.261 -11.239 -11.239
  1 A     1 B     2 A     2 B     3 B     3 A     4 B     4 A                  
-11.237 -11.237  -8.986  -8.986  -6.667  -6.667  -6.666  -6.666
  5 B     5 A     6 B     6 A     7 B     7 A     8 B     8 A                  
 -6.666  -6.666  -1.197  -1.166  -1.036  -1.001  -0.984  -0.948
  9 A     9 B    10 A    10 B    11 A    12 A    11 B    12 B                  
 -0.810  -0.780  -0.746  -0.717  -0.709  -0.644  -0.575  -0.572
 13 A    14 A    13 B    14 B    15 A    15 B    16 A    17 A                  
 -0.558  -0.556  -0.543  -0.512  -0.510  -0.491  -0.462  -0.378
 16 B    17 B    18 A    19 A    18 B    20 A    19 B    20 B                  
 -0.357  -0.345  -0.277
 21 B    21 A    22 A                                                          
 -- Virtual --                   
  0.070   0.140   0.153   0.153   0.159   0.173   0.177   0.180
 22 B    23 A    24 A    23 B    25 A    26 A    24 B    25 B                  
  0.199   0.218   0.220   0.244   0.256   0.300   0.304   0.353
 27 A    28 A    26 B    29 A    27 B    28 B    30 A    31 A                  
  0.362   0.366   0.369   0.380   0.387   0.405   0.421   0.431
 29 B    32 A    33 A    30 B    31 B    32 B    33 B    34 A                  
  0.439   0.450   0.467   0.467   0.480   0.487   0.516   0.527
 34 B    35 A    36 A    35 B    37 A    36 B    38 A    37 B                  
  0.527   0.534   0.537   0.544   0.554   0.561   0.572   0.574
 39 A    38 B    40 A    39 B    41 A    40 B    41 B    42 B                  
  0.579   0.584   0.599   0.599   0.611   0.611   0.618   0.626
 42 A    43 A    44 A    43 B    45 A    44 B    46 A    45 B                  
  0.638   0.639   0.651   0.666   0.666   0.701   0.730   0.751
 47 A    46 B    48 A    47 B    49 A    48 B    50 A    49 B                  
  0.752   0.771   0.784   0.799   0.820   0.825   0.838   0.852
 51 A    52 A    50 B    51 B    53 A    52 B    54 A    53 B                  
  0.860   0.873   0.891   0.904   0.919   0.934   0.935   0.950
 55 A    54 B    56 A    57 A    55 B    56 B    58 A    59 A                  
  0.957   0.996   0.999   1.010   1.057   1.062   1.078   1.084
 57 B    58 B    59 B    60 A    60 B    61 A    62 A    61 B                  
  1.095   1.097   1.108   1.114   1.130   1.148   1.171   1.172
 63 A    62 B    63 B    64 A    64 B    65 A    65 B    66 A                  
  1.199   1.214   1.216   1.232   1.247   1.249   1.260   1.265
 66 B    67 A    67 B    68 A    68 B    69 A    69 B    70 A                  
  1.295   1.307   1.315   1.321   1.355   1.405   1.428   1.431
 70 B    71 B    71 A    72 A    73 A    72 B    74 A    73 B                  
  1.433   1.472   1.478   1.487   1.492   1.508   1.521   1.533
 75 A    74 B    76 A    75 B    77 A    78 A    76 B    77 B                  
  1.552   1.564   1.566   1.599   1.604   1.620   1.632   1.633
 78 B    79 A    79 B    80 A    81 A    80 B    82 A    81 B                  
  1.656   1.661   1.731   1.740   1.749   1.765   1.791   1.834
 83 A    82 B    83 B    84 A    84 B    85 A    86 A    85 B                  
  1.844   1.858   1.861   1.888   1.909   1.923   1.954   1.958
 86 B    87 A    87 B    88 B    88 A    89 A    89 B    90 A                  
  1.976   1.992   2.048   2.068   2.091   2.130   2.131   2.151
 90 B    91 A    92 A    91 B    92 B    93 A    94 A    93 B                  
  2.163   2.191   2.204   2.210   2.218   2.236   2.266   2.276
 94 B    95 A    96 A    97 A    95 B    96 B    97 B    98 B                  
  2.280   2.284   2.331   2.407   2.409   2.434   2.440   2.473
 98 A    99 A    99 B   100 A   100 B   101 A   101 B   102 B                  
  2.483   2.515   2.517   2.525   2.552   2.558   2.588   2.599
102 A   103 A   103 B   104 A   105 A   104 B   106 A   105 B                  
  2.665   2.668   2.677   2.682   2.711   2.744   2.747   2.768
107 A   106 B   108 A   107 B   109 A   108 B   110 A   111 A                  
  2.769   2.785   2.797   2.811   2.822   2.847   2.875   2.906
109 B   112 A   110 B   111 B   112 B   113 A   113 B   114 A                  
  2.907   2.917   2.925   2.928   2.989   3.004   3.010   3.035
114 B   115 A   116 A   115 B   116 B   117 A   118 A   117 B                  
  3.051   3.080   3.099   3.105   3.144   3.147   3.162   3.187
118 B   119 A   119 B   120 A   120 B   121 A   122 A   121 B                  
  3.212   3.222   3.224   3.236   3.256   3.271   3.277   3.290
122 B   123 A   123 B   124 A   124 B   125 B   125 A   126 A                  
  3.304   3.309   3.319   3.322   3.332   3.357   3.359   3.398
126 B   127 A   128 A   127 B   129 A   128 B   130 A   129 B                  
  3.410   3.417   3.429   3.437   3.443   3.448   3.472   3.478
131 A   130 B   132 A   133 A   131 B   134 A   132 B   135 A                  
  3.488   3.499   3.509   3.513   3.525   3.528   3.534   3.546
133 B   134 B   135 B   136 A   137 A   138 A   136 B   137 B                  
  3.551   3.566   3.571   3.589   3.591   3.596   3.646   3.667
138 B   139 B   139 A   140 A   140 B   141 A   141 B   142 B                  
  3.679   3.704   3.706   3.731   3.733   3.761   3.770   3.781
142 A   143 B   143 A   144 B   144 A   145 B   145 A   146 A                  
  3.826   3.839   3.879   3.887   3.889   3.898   3.939   3.961
147 A   146 B   148 A   147 B   149 A   148 B   149 B   150 A                  
  3.971   3.982   3.991   4.003   4.012   4.020   4.048   4.052
150 B   151 B   151 A   152 A   153 A   152 B   154 A   153 B                  
  4.079   4.122   4.132   4.142   4.168   4.170   4.180   4.185
155 A   154 B   155 B   156 A   157 A   156 B   158 A   157 B                  
  4.195   4.211   4.225   4.269   4.270   4.297   4.298   4.313
159 A   160 A   158 B   161 A   159 B   162 A   160 B   161 B                  
  4.336   4.351   4.426   4.446   4.456   4.477   4.485   4.491
162 B   163 A   163 B   164 A   165 A   164 B   165 B   166 A                  
  4.510   4.594   4.619   4.628   4.648   4.660   4.686   4.689
167 A   166 B   167 B   168 A   169 A   168 B   170 A   169 B                  
  4.701   4.723   4.741   4.766   4.799   4.839   4.852   4.854
171 A   172 A   170 B   171 B   173 A   174 A   175 A   172 B                  
  4.921   4.958   5.004   5.053   5.054   5.066   5.070   5.099
173 B   174 B   176 A   177 A   175 B   176 B   178 A   179 A                  
  5.149   5.164   5.177   5.246   5.257   5.292   5.327   5.360
177 B   178 B   180 A   179 B   180 B   181 A   182 A   181 B                  
  5.382   5.427   5.450   5.460   5.582   5.616   5.629   5.689
183 A   182 B   184 A   183 B   185 A   184 B   185 B   186 A                  
  5.797   5.877   5.974   6.085   6.088   6.142   6.156   6.249
187 A   186 B   188 A   189 A   187 B   190 A   188 B   189 B                  
  6.499   6.526   6.623   6.670   6.872   9.326  10.972  11.695
190 B   191 A   191 B   192 A   192 B   193 A   193 B   194 A                  
 12.482  13.255  14.047  14.390  15.178
194 B   195 A   195 B   196 A   196 B                                          
 
 Beta MOs, Restricted
 -- Occupied --                  
-91.984 -91.984 -11.276 -11.275 -11.261 -11.261 -11.239 -11.239
  1 A     1 B     2 A     2 B     3 B     3 A     4 B     4 A                  
-11.237 -11.237  -8.986  -8.986  -6.667  -6.667  -6.666  -6.666
  5 B     5 A     6 B     6 A     7 B     7 A     8 B     8 A                  
 -6.666  -6.666  -1.197  -1.166  -1.036  -1.001  -0.984  -0.948
  9 A     9 B    10 A    10 B    11 A    12 A    11 B    12 B                  
 -0.810  -0.780  -0.746  -0.717  -0.709  -0.644  -0.575  -0.572
 13 A    14 A    13 B    14 B    15 A    15 B    16 A    17 A                  
 -0.558  -0.556  -0.543  -0.512  -0.510  -0.491  -0.462  -0.378
 16 B    17 B    18 A    19 A    18 B    20 A    19 B    20 B                  
 -0.357  -0.345  -0.277
 21 B    21 A    22 A                                                          
 -- Virtual --                   
  0.070   0.140   0.153   0.153   0.159   0.173   0.177   0.180
 22 B    23 A    24 A    23 B    25 A    26 A    24 B    25 B                  
  0.199   0.218   0.220   0.244   0.256   0.300   0.304   0.353
 27 A    28 A    26 B    29 A    27 B    28 B    30 A    31 A                  
  0.362   0.366   0.369   0.380   0.387   0.405   0.421   0.431
 29 B    32 A    33 A    30 B    31 B    32 B    33 B    34 A                  
  0.439   0.450   0.467   0.467   0.480   0.487   0.516   0.527
 34 B    35 A    36 A    35 B    37 A    36 B    38 A    37 B                  
  0.527   0.534   0.537   0.544   0.554   0.561   0.572   0.574
 39 A    38 B    40 A    39 B    41 A    40 B    41 B    42 B                  
  0.579   0.584   0.599   0.599   0.611   0.611   0.618   0.626
 42 A    43 A    44 A    43 B    45 A    44 B    46 A    45 B                  
  0.638   0.639   0.651   0.666   0.666   0.701   0.730   0.751
 47 A    46 B    48 A    47 B    49 A    48 B    50 A    49 B                  
  0.752   0.771   0.784   0.799   0.820   0.825   0.838   0.852
 51 A    52 A    50 B    51 B    53 A    52 B    54 A    53 B                  
  0.860   0.873   0.891   0.904   0.919   0.934   0.935   0.950
 55 A    54 B    56 A    57 A    55 B    56 B    58 A    59 A                  
  0.957   0.996   0.999   1.010   1.057   1.062   1.078   1.084
 57 B    58 B    59 B    60 A    60 B    61 A    62 A    61 B                  
  1.095   1.097   1.108   1.114   1.130   1.148   1.171   1.172
 63 A    62 B    63 B    64 A    64 B    65 A    65 B    66 A                  
  1.199   1.214   1.216   1.232   1.247   1.249   1.260   1.265
 66 B    67 A    67 B    68 A    68 B    69 A    69 B    70 A                  
  1.295   1.307   1.315   1.321   1.355   1.405   1.428   1.431
 70 B    71 B    71 A    72 A    73 A    72 B    74 A    73 B                  
  1.433   1.472   1.478   1.487   1.492   1.508   1.521   1.533
 75 A    74 B    76 A    75 B    77 A    78 A    76 B    77 B                  
  1.552   1.564   1.566   1.599   1.604   1.620   1.632   1.633
 78 B    79 A    79 B    80 A    81 A    80 B    82 A    81 B                  
  1.656   1.661   1.731   1.740   1.749   1.765   1.791   1.834
 83 A    82 B    83 B    84 A    84 B    85 A    86 A    85 B                  
  1.844   1.858   1.861   1.888   1.909   1.923   1.954   1.958
 86 B    87 A    87 B    88 B    88 A    89 A    89 B    90 A                  
  1.976   1.992   2.048   2.068   2.091   2.130   2.131   2.151
 90 B    91 A    92 A    91 B    92 B    93 A    94 A    93 B                  
  2.163   2.191   2.204   2.210   2.218   2.236   2.266   2.276
 94 B    95 A    96 A    97 A    95 B    96 B    97 B    98 B                  
  2.280   2.284   2.331   2.407   2.409   2.434   2.440   2.473
 98 A    99 A    99 B   100 A   100 B   101 A   101 B   102 B                  
  2.483   2.515   2.517   2.525   2.552   2.558   2.588   2.599
102 A   103 A   103 B   104 A   105 A   104 B   106 A   105 B                  
  2.665   2.668   2.677   2.682   2.711   2.744   2.747   2.768
107 A   106 B   108 A   107 B   109 A   108 B   110 A   111 A                  
  2.769   2.785   2.797   2.811   2.822   2.847   2.875   2.906
109 B   112 A   110 B   111 B   112 B   113 A   113 B   114 A                  
  2.907   2.917   2.925   2.928   2.989   3.004   3.010   3.035
114 B   115 A   116 A   115 B   116 B   117 A   118 A   117 B                  
  3.051   3.080   3.099   3.105   3.144   3.147   3.162   3.187
118 B   119 A   119 B   120 A   120 B   121 A   122 A   121 B                  
  3.212   3.222   3.224   3.236   3.256   3.271   3.277   3.290
122 B   123 A   123 B   124 A   124 B   125 B   125 A   126 A                  
  3.304   3.309   3.319   3.322   3.332   3.357   3.359   3.398
126 B   127 A   128 A   127 B   129 A   128 B   130 A   129 B                  
  3.410   3.417   3.429   3.437   3.443   3.448   3.472   3.478
131 A   130 B   132 A   133 A   131 B   134 A   132 B   135 A                  
  3.488   3.499   3.509   3.513   3.525   3.528   3.534   3.546
133 B   134 B   135 B   136 A   137 A   138 A   136 B   137 B                  
  3.551   3.566   3.571   3.589   3.591   3.596   3.646   3.667
138 B   139 B   139 A   140 A   140 B   141 A   141 B   142 B                  
  3.679   3.704   3.706   3.731   3.733   3.761   3.770   3.781
142 A   143 B   143 A   144 B   144 A   145 B   145 A   146 A                  
  3.826   3.839   3.879   3.887   3.889   3.898   3.939   3.961
147 A   146 B   148 A   147 B   149 A   148 B   149 B   150 A                  
  3.971   3.982   3.991   4.003   4.012   4.020   4.048   4.052
150 B   151 B   151 A   152 A   153 A   152 B   154 A   153 B                  
  4.079   4.122   4.132   4.142   4.168   4.170   4.180   4.185
155 A   154 B   155 B   156 A   157 A   156 B   158 A   157 B                  
  4.195   4.211   4.225   4.269   4.270   4.297   4.298   4.313
159 A   160 A   158 B   161 A   159 B   162 A   160 B   161 B                  
  4.336   4.351   4.426   4.446   4.456   4.477   4.485   4.491
162 B   163 A   163 B   164 A   165 A   164 B   165 B   166 A                  
  4.510   4.594   4.619   4.628   4.648   4.660   4.686   4.689
167 A   166 B   167 B   168 A   169 A   168 B   170 A   169 B                  
  4.701   4.723   4.741   4.766   4.799   4.839   4.852   4.854
171 A   172 A   170 B   171 B   173 A   174 A   175 A   172 B                  
  4.921   4.958   5.004   5.053   5.054   5.066   5.070   5.099
173 B   174 B   176 A   177 A   175 B   176 B   178 A   179 A                  
  5.149   5.164   5.177   5.246   5.257   5.292   5.327   5.360
177 B   178 B   180 A   179 B   180 B   181 A   182 A   181 B                  
  5.382   5.427   5.450   5.460   5.582   5.616   5.629   5.689
183 A   182 B   184 A   183 B   185 A   184 B   185 B   186 A                  
  5.797   5.877   5.974   6.085   6.088   6.142   6.156   6.249
187 A   186 B   188 A   189 A   187 B   190 A   188 B   189 B                  
  6.499   6.526   6.623   6.670   6.872   9.326  10.972  11.695
190 B   191 A   191 B   192 A   192 B   193 A   193 B   194 A                  
 12.482  13.255  14.047  14.390  15.178
194 B   195 A   195 B   196 A   196 B                                          
 --------------------------------------------------------------
 
          Ground-State Mulliken Net Atomic Charges

     Atom                 Charge (a.u.)
  ----------------------------------------
      1 S                     0.101152
      2 C                    -0.236557
      3 C                    -0.205332
      4 C                    -0.181815
      5 C                    -0.002243
      6 H                     0.164440
      7 C                    -0.002241
      8 S                     0.101152
      9 C                    -0.181818
     10 C                    -0.236558
     11 C                    -0.205330
     12 H                     0.173956
     13 H                     0.186400
     14 H                     0.173955
     15 H                     0.186400
     16 H                     0.164440
  ----------------------------------------
  Sum of atomic charges =     0.000000

 -----------------------------------------------------------------
                    Cartesian Multipole Moments
 -----------------------------------------------------------------
    Charge (ESU x 10^10)
                 0.0000
    Dipole Moment (Debye)
         X      -0.0000      Y       0.0000      Z      -0.7217
       Tot       0.7217
    Quadrupole Moments (Debye-Ang)
        XX     -61.0566     XY      -0.0112     YY     -78.0546
        XZ       0.0000     YZ       0.0000     ZZ     -67.3826
    Octopole Moments (Debye-Ang^2)
       XXX       0.0000    XXY       0.0000    XYY      -0.0000
       YYY       0.0000    XXZ       5.5381    XYZ      -2.3368
       YYZ       4.0650    XZZ       0.0000    YZZ      -0.0000
       ZZZ      -6.7527
    Hexadecapole Moments (Debye-Ang^3)
      XXXX   -1814.5261   XXXY      -2.4675   XXYY    -402.4671
      XYYY      -1.9936   YYYY     -99.0792   XXXZ       0.0000
      XXYZ      -0.0000   XYYZ       0.0000   YYYZ       0.0000
      XXZZ    -392.9915   XYZZ       1.8725   YYZZ    -119.2901
      XZZZ       0.0000   YZZZ       0.0000   ZZZZ    -536.8913
 -----------------------------------------------------------------
 DrvMan is completing analytic gradient of the MP2 energy
 MP2 relaxed dipole moment
            1
    1  -0.0000000
    2   0.0000000
    3  -0.2839408
	Magnitude:	 0.284 au	 0.722 Debye
 MP2 energy read as -1103.412594
 Full Analytical Gradient of MP2 Energy (in au.)
             1             2             3             4             5
    1   -0.00192111   -0.00067271    0.00046771    0.00070002    0.00005764
    2    0.00136703   -0.00129692    0.00129609    0.00177656   -0.00102233
    3    0.00069081   -0.00009147   -0.00004796    0.00063054   -0.00101267
             6             7             8             9            10
    1   -0.00044561   -0.00005763    0.00192111   -0.00070002    0.00067271
    2   -0.00132219    0.00102233   -0.00136703   -0.00177656    0.00129692
    3   -0.00011217   -0.00101267    0.00069081    0.00063054   -0.00009147
            11            12            13            14            15
    1   -0.00046771   -0.00004106    0.00010461    0.00004106   -0.00010461
    2   -0.00129608    0.00000381   -0.00053108   -0.00000381    0.00053108
    3   -0.00004796    0.00003488   -0.00009195    0.00003488   -0.00009195
            16
    1    0.00044562
    2    0.00132218
    3   -0.00011217
 Gradient time:  CPU 1.54 s  wall 0.10 s
 Geometry Optimization Parameters
   NAtoms,    NIC,     NZ,  NCons,   NDum,   NFix, NCnnct, MaxDiis
       16     111       0       1       0       0       0       0


** CONSTRAINED OPTIMIZATION IN DELOCALIZED INTERNAL COORDINATES **
   Searching for a Minimum

   Optimization Cycle:   1

                       Coordinates (Angstroms)
     ATOM                X               Y               Z
      1  S         1.5976986272   -0.1033548857    1.1301137581
      2  C         3.0999479092   -0.0308773342    0.3232078554
      3  C         2.9351249183    0.0921844575   -1.0339799559
      4  C         1.5837355019    0.1132888714   -1.4133922382
      5  C         0.7184978834    0.0089569026   -0.3442420954
      6  H         1.2375165499    0.1784843160   -2.4294898064
      7  C        -0.7184978834   -0.0089569026   -0.3442420954
      8  S        -1.5976986272    0.1033548857    1.1301137581
      9  C        -1.5837355019   -0.1132888714   -1.4133922382
     10  C        -3.0999479092    0.0308773342    0.3232078554
     11  C        -2.9351249183   -0.0921844575   -1.0339799559
     12  H        -3.7586262965   -0.1549099825   -1.7210559971
     13  H         4.0148536889   -0.0810256270    0.8791642804
     14  H         3.7586262965    0.1549099825   -1.7210559971
     15  H        -4.0148536889    0.0810256270    0.8791642804
     16  H        -1.2375165499   -0.1784843160   -2.4294898064
   Point Group: c2    Number of degrees of freedom:    22


   Energy is  -1103.412594105

              Constraints and their Current Values
                                        Value     Constraint
   Dihedral:        4   5   7   9       10.000       10.000

 Attempting to Generate Delocalized Internal Coordinates

 21 Hessian modes will be used to form the next step
  Hessian Eigenvalues:
     0.045000    0.045000    0.045000    0.045002    0.045003    0.045012
     0.159945    0.159993    0.160000    0.221308    0.238060    0.249999
     0.326324    0.340049    0.365509    0.366895    0.370094    0.399848
     0.435412    0.463135    0.495504

 Minimum Search - Taking Simple RFO Step
 Searching for Lamda that Minimizes Along All modes
 Value Taken    Lamda =  -0.00047338
 Step Taken.  Stepsize is  0.075426

                             Maximum     Tolerance    Cnvgd?
         Gradient           0.006622      0.000300      NO
         Displacement       0.061624      0.001200      NO
         Energy change     *********      0.000001      NO


 New Cartesian Coordinates Obtained by Inverse Iteration

 Displacement from previous Coordinates is:  0.190424
 ----------------------------------------------------------------
             Standard Nuclear Orientation (Angstroms)
    I     Atom           X                Y                Z
 ----------------------------------------------------------------
    1      S       1.6238580109    -0.1183476657     1.1387915861
    2      C       3.1147833446    -0.0290436370     0.3130584738
    3      C       2.9284837043     0.0839402045    -1.0418616969
    4      C       1.5718862653     0.1061663684    -1.4015010239
    5      C       0.7196344163     0.0053303979    -0.3211248400
    6      H       1.2147320189     0.1839204183    -2.4126592863
    7      C      -0.7196344163    -0.0053303979    -0.3211248400
    8      S      -1.6238580109     0.1183476657     1.1387915861
    9      C      -1.5718862653    -0.1061663684    -1.4015010239
   10      C      -3.1147833446     0.0290436370     0.3130584738
   11      C      -2.9284837043    -0.0839402045    -1.0418616969
   12      H      -3.7411709539    -0.1513816425    -1.7412370755
   13      H       4.0373630901    -0.0687731954     0.8568596637
   14      H       3.7411709539     0.1513816425    -1.7412370755
   15      H      -4.0373630901     0.0687731954     0.8568596637
   16      H      -1.2147320189    -0.1839204183    -2.4126592863
 ----------------------------------------------------------------
 Molecular Point Group                 C2    NOp =  2
 Largest Abelian Subgroup              C2    NOp =  2
 Nuclear Repulsion Energy =   639.5507691240 hartrees
 There are       43 alpha and       43 beta electrons
 Applying Cartesian multipole field
    Component          Value
    ---------          -----
     (2,0,0)        1.00000E-11
     (0,2,0)        2.00000E-10
     (0,0,2)       -3.00000E-11
 Nucleus-field energy     =     0.0000000043 hartrees
 Requested basis set is cc-pVTZ
 There are 140 shells and 392 basis functions
 A cutoff of  1.0D-11 yielded   8030 shell pairs
 There are     62346 function pairs (     81282 Cartesian)
 Smallest overlap matrix eigenvalue = 5.24E-05
 Guess MOs from SCF MO coefficient file
 Reading MOs from coefficient file
 Reading MOs from coefficient file
 A restricted Hartree-Fock SCF calculation will be
 performed using Pulay DIIS extrapolation
 SCF converges when DIIS error is below 1.0E-08
 Geometry optimization detected.  Setting ReadMinima to 0
 Setting SaveMinima to 0
 using 16 threads for integral computing 
 ---------------------------------------
  Cycle       Energy         DIIS Error
 ---------------------------------------
    1   -1101.5912413612      3.15E-04
    2   -1101.5970279656      4.68E-05
    3   -1101.5970970201      2.04E-05
    4   -1101.5971074062      9.98E-06
    5   -1101.5971106209      1.97E-06
    6   -1101.5971108188      1.08E-06
    7   -1101.5971108687      3.38E-07
    8   -1101.5971108742      1.25E-07
    9   -1101.5971108747      3.88E-08
   10   -1101.5971108748      1.35E-08
   11   -1101.5971108747      4.81E-09 Convergence criterion met
 ---------------------------------------
 SCF time:  CPU 730.69 s  wall 45.70 s
 SCF   energy in the final basis set = -1101.5971108747
 Total energy in the final basis set = -1101.5971108747
 
 Components of the MP2 correlation energy:
        aaaa  correlation energy =        -0.2325079374 au
        abab  correlation energy =        -1.3508580841 au
        bbbb  correlation energy =        -0.2325079374 au
        non-Brillouin singles    =        -0.0000000000 au

 Total  MP2   correlation energy =        -1.8158739590 au
        MP2         total energy =     -1103.4129848337 au

  Entering Z-vector solver.
   1         0           1      0.000268    0.000268
   2         0           1      0.000118    0.000118
   3         0           1      0.000048    0.000048
   4         0           1      0.000022    0.000022
   5         0           1      0.000007    0.000007
   6         0           1      0.000002    0.000002
   7         1           0      0.000000    0.000000    Roots Converged
 
 --------------------------------------------------------------
             Orbital Energies (a.u.) and Symmetries
 --------------------------------------------------------------
 
 Alpha MOs, Restricted
 -- Occupied --                  
-91.985 -91.985 -11.276 -11.275 -11.261 -11.261 -11.239 -11.239
  1 A     1 B     2 A     2 B     3 B     3 A     4 B     4 A                  
-11.237 -11.237  -8.986  -8.986  -6.667  -6.667  -6.667  -6.667
  5 B     5 A     6 B     6 A     7 B     7 A     8 B     8 A                  
 -6.666  -6.666  -1.197  -1.167  -1.036  -1.001  -0.984  -0.948
  9 A     9 B    10 A    10 B    11 A    12 A    11 B    12 B                  
 -0.810  -0.780  -0.746  -0.717  -0.709  -0.645  -0.576  -0.572
 13 A    14 A    13 B    14 B    15 A    15 B    16 A    17 A                  
 -0.558  -0.556  -0.543  -0.512  -0.511  -0.489  -0.463  -0.378
 16 B    17 B    18 A    19 A    18 B    20 A    19 B    20 B                  
 -0.356  -0.345  -0.277
 21 B    21 A    22 A                                                          
 -- Virtual --                   
  0.070   0.140   0.153   0.153   0.159   0.173   0.177   0.180
 22 B    23 A    23 B    24 A    25 A    26 A    24 B    25 B                  
  0.199   0.217   0.220   0.244   0.256   0.297   0.304   0.353
 27 A    28 A    26 B    29 A    27 B    28 B    30 A    31 A                  
  0.360   0.367   0.370   0.380   0.386   0.405   0.419   0.431
 29 B    32 A    33 A    30 B    31 B    32 B    33 B    34 A                  
  0.440   0.450   0.466   0.468   0.480   0.489   0.516   0.526
 34 B    35 A    35 B    36 A    37 A    36 B    38 A    37 B                  
  0.527   0.534   0.537   0.543   0.552   0.562   0.572   0.576
 39 A    38 B    40 A    39 B    41 A    40 B    41 B    42 B                  
  0.577   0.585   0.599   0.600   0.610   0.611   0.617   0.626
 42 A    43 A    43 B    44 A    45 A    44 B    46 A    45 B                  
  0.637   0.639   0.651   0.664   0.668   0.700   0.730   0.749
 47 A    46 B    48 A    49 A    47 B    48 B    50 A    49 B                  
  0.752   0.772   0.785   0.798   0.820   0.823   0.838   0.853
 51 A    52 A    50 B    51 B    53 A    52 B    54 A    53 B                  
  0.861   0.875   0.892   0.905   0.917   0.933   0.933   0.954
 55 A    54 B    56 A    57 A    55 B    56 B    58 A    59 A                  
  0.956   0.994   0.996   1.010   1.058   1.068   1.080   1.083
 57 B    58 B    59 B    60 A    60 B    61 A    62 A    61 B                  
  1.093   1.099   1.108   1.113   1.128   1.145   1.170   1.173
 63 A    62 B    63 B    64 A    64 B    65 A    65 B    66 A                  
  1.195   1.214   1.215   1.231   1.244   1.247   1.260   1.262
 66 B    67 B    67 A    68 A    69 A    68 B    69 B    70 A                  
  1.299   1.305   1.316   1.323   1.354   1.402   1.427   1.430
 70 B    71 B    71 A    72 A    73 A    72 B    74 A    73 B                  
  1.431   1.471   1.478   1.488   1.491   1.507   1.522   1.538
 75 A    74 B    76 A    75 B    77 A    78 A    76 B    77 B                  
  1.553   1.564   1.564   1.598   1.605   1.621   1.630   1.632
 78 B    79 B    79 A    80 A    81 A    80 B    82 A    81 B                  
  1.656   1.663   1.732   1.740   1.751   1.763   1.796   1.834
 83 A    82 B    83 B    84 A    84 B    85 A    86 A    85 B                  
  1.845   1.853   1.862   1.889   1.905   1.922   1.950   1.957
 86 B    87 A    87 B    88 B    88 A    89 A    89 B    90 A                  
  1.967   1.991   2.047   2.068   2.094   2.128   2.133   2.137
 90 B    91 A    92 A    91 B    92 B    93 A    94 A    93 B                  
  2.162   2.189   2.203   2.208   2.217   2.236   2.267   2.278
 94 B    95 A    96 A    97 A    95 B    96 B    97 B    98 B                  
  2.280   2.283   2.324   2.407   2.410   2.432   2.440   2.472
 98 A    99 A    99 B   100 A   100 B   101 A   101 B   102 B                  
  2.482   2.515   2.516   2.524   2.552   2.557   2.589   2.602
102 A   103 B   103 A   104 A   105 A   104 B   106 A   105 B                  
  2.665   2.668   2.672   2.682   2.711   2.744   2.744   2.768
107 A   106 B   108 A   107 B   109 A   108 B   110 A   111 A                  
  2.771   2.785   2.799   2.808   2.822   2.846   2.874   2.907
109 B   112 A   110 B   111 B   112 B   113 A   113 B   114 A                  
  2.908   2.916   2.925   2.928   2.989   3.001   3.011   3.035
114 B   115 A   116 A   115 B   116 B   117 A   118 A   117 B                  
  3.046   3.077   3.098   3.103   3.139   3.146   3.162   3.189
118 B   119 A   119 B   120 A   120 B   121 A   122 A   121 B                  
  3.212   3.221   3.225   3.238   3.256   3.271   3.278   3.286
122 B   123 A   123 B   124 A   124 B   125 B   125 A   126 A                  
  3.304   3.310   3.317   3.324   3.332   3.355   3.355   3.397
126 B   127 A   128 A   127 B   129 A   130 A   128 B   129 B                  
  3.410   3.414   3.429   3.439   3.442   3.448   3.471   3.477
131 A   130 B   132 A   133 A   131 B   134 A   132 B   135 A                  
  3.487   3.499   3.512   3.513   3.525   3.525   3.535   3.545
133 B   134 B   136 A   135 B   137 A   138 A   136 B   137 B                  
  3.552   3.563   3.568   3.584   3.587   3.596   3.644   3.668
138 B   139 B   139 A   140 B   140 A   141 A   141 B   142 B                  
  3.680   3.705   3.706   3.729   3.729   3.758   3.768   3.781
142 A   143 B   143 A   144 A   144 B   145 B   145 A   146 A                  
  3.824   3.839   3.879   3.886   3.887   3.895   3.939   3.963
147 A   146 B   148 A   149 A   147 B   148 B   149 B   150 A                  
  3.974   3.983   3.992   4.003   4.013   4.023   4.044   4.052
150 B   151 B   151 A   152 A   153 A   152 B   154 A   153 B                  
  4.077   4.122   4.131   4.140   4.168   4.170   4.185   4.185
155 A   154 B   155 B   156 A   157 A   156 B   157 B   158 A                  
  4.194   4.210   4.219   4.267   4.267   4.299   4.300   4.315
159 A   160 A   158 B   159 B   161 A   162 A   160 B   161 B                  
  4.341   4.354   4.426   4.449   4.457   4.475   4.486   4.491
162 B   163 A   163 B   164 A   165 A   164 B   165 B   166 A                  
  4.509   4.594   4.619   4.629   4.647   4.659   4.683   4.691
167 A   166 B   167 B   168 A   169 A   168 B   170 A   169 B                  
  4.700   4.726   4.744   4.764   4.801   4.837   4.849   4.859
171 A   172 A   170 B   171 B   173 A   174 A   175 A   172 B                  
  4.924   4.959   4.996   5.052   5.052   5.067   5.069   5.096
173 B   174 B   176 A   177 A   175 B   178 A   176 B   179 A                  
  5.150   5.161   5.182   5.246   5.255   5.292   5.327   5.358
177 B   178 B   180 A   179 B   180 B   181 A   182 A   181 B                  
  5.384   5.428   5.450   5.456   5.583   5.615   5.628   5.687
183 A   182 B   184 A   183 B   185 A   184 B   185 B   186 A                  
  5.793   5.879   5.975   6.084   6.085   6.143   6.154   6.250
187 A   186 B   188 A   189 A   187 B   190 A   188 B   189 B                  
  6.499   6.525   6.622   6.669   6.868   9.314  10.960  11.691
190 B   191 A   191 B   192 A   192 B   193 A   193 B   194 A                  
 12.455  13.248  14.050  14.390  15.160
194 B   195 A   195 B   196 A   196 B                                          
 
 Beta MOs, Restricted
 -- Occupied --                  
-91.985 -91.985 -11.276 -11.275 -11.261 -11.261 -11.239 -11.239
  1 A     1 B     2 A     2 B     3 B     3 A     4 B     4 A                  
-11.237 -11.237  -8.986  -8.986  -6.667  -6.667  -6.667  -6.667
  5 B     5 A     6 B     6 A     7 B     7 A     8 B     8 A                  
 -6.666  -6.666  -1.197  -1.167  -1.036  -1.001  -0.984  -0.948
  9 A     9 B    10 A    10 B    11 A    12 A    11 B    12 B                  
 -0.810  -0.780  -0.746  -0.717  -0.709  -0.645  -0.576  -0.572
 13 A    14 A    13 B    14 B    15 A    15 B    16 A    17 A                  
 -0.558  -0.556  -0.543  -0.512  -0.511  -0.489  -0.463  -0.378
 16 B    17 B    18 A    19 A    18 B    20 A    19 B    20 B                  
 -0.356  -0.345  -0.277
 21 B    21 A    22 A                                                          
 -- Virtual --                   
  0.070   0.140   0.153   0.153   0.159   0.173   0.177   0.180
 22 B    23 A    23 B    24 A    25 A    26 A    24 B    25 B                  
  0.199   0.217   0.220   0.244   0.256   0.297   0.304   0.353
 27 A    28 A    26 B    29 A    27 B    28 B    30 A    31 A                  
  0.360   0.367   0.370   0.380   0.386   0.405   0.419   0.431
 29 B    32 A    33 A    30 B    31 B    32 B    33 B    34 A                  
  0.440   0.450   0.466   0.468   0.480   0.489   0.516   0.526
 34 B    35 A    35 B    36 A    37 A    36 B    38 A    37 B                  
  0.527   0.534   0.537   0.543   0.552   0.562   0.572   0.576
 39 A    38 B    40 A    39 B    41 A    40 B    41 B    42 B                  
  0.577   0.585   0.599   0.600   0.610   0.611   0.617   0.626
 42 A    43 A    43 B    44 A    45 A    44 B    46 A    45 B                  
  0.637   0.639   0.651   0.664   0.668   0.700   0.730   0.749
 47 A    46 B    48 A    49 A    47 B    48 B    50 A    49 B                  
  0.752   0.772   0.785   0.798   0.820   0.823   0.838   0.853
 51 A    52 A    50 B    51 B    53 A    52 B    54 A    53 B                  
  0.861   0.875   0.892   0.905   0.917   0.933   0.933   0.954
 55 A    54 B    56 A    57 A    55 B    56 B    58 A    59 A                  
  0.956   0.994   0.996   1.010   1.058   1.068   1.080   1.083
 57 B    58 B    59 B    60 A    60 B    61 A    62 A    61 B                  
  1.093   1.099   1.108   1.113   1.128   1.145   1.170   1.173
 63 A    62 B    63 B    64 A    64 B    65 A    65 B    66 A                  
  1.195   1.214   1.215   1.231   1.244   1.247   1.260   1.262
 66 B    67 B    67 A    68 A    69 A    68 B    69 B    70 A                  
  1.299   1.305   1.316   1.323   1.354   1.402   1.427   1.430
 70 B    71 B    71 A    72 A    73 A    72 B    74 A    73 B                  
  1.431   1.471   1.478   1.488   1.491   1.507   1.522   1.538
 75 A    74 B    76 A    75 B    77 A    78 A    76 B    77 B                  
  1.553   1.564   1.564   1.598   1.605   1.621   1.630   1.632
 78 B    79 B    79 A    80 A    81 A    80 B    82 A    81 B                  
  1.656   1.663   1.732   1.740   1.751   1.763   1.796   1.834
 83 A    82 B    83 B    84 A    84 B    85 A    86 A    85 B                  
  1.845   1.853   1.862   1.889   1.905   1.922   1.950   1.957
 86 B    87 A    87 B    88 B    88 A    89 A    89 B    90 A                  
  1.967   1.991   2.047   2.068   2.094   2.128   2.133   2.137
 90 B    91 A    92 A    91 B    92 B    93 A    94 A    93 B                  
  2.162   2.189   2.203   2.208   2.217   2.236   2.267   2.278
 94 B    95 A    96 A    97 A    95 B    96 B    97 B    98 B                  
  2.280   2.283   2.324   2.407   2.410   2.432   2.440   2.472
 98 A    99 A    99 B   100 A   100 B   101 A   101 B   102 B                  
  2.482   2.515   2.516   2.524   2.552   2.557   2.589   2.602
102 A   103 B   103 A   104 A   105 A   104 B   106 A   105 B                  
  2.665   2.668   2.672   2.682   2.711   2.744   2.744   2.768
107 A   106 B   108 A   107 B   109 A   108 B   110 A   111 A                  
  2.771   2.785   2.799   2.808   2.822   2.846   2.874   2.907
109 B   112 A   110 B   111 B   112 B   113 A   113 B   114 A                  
  2.908   2.916   2.925   2.928   2.989   3.001   3.011   3.035
114 B   115 A   116 A   115 B   116 B   117 A   118 A   117 B                  
  3.046   3.077   3.098   3.103   3.139   3.146   3.162   3.189
118 B   119 A   119 B   120 A   120 B   121 A   122 A   121 B                  
  3.212   3.221   3.225   3.238   3.256   3.271   3.278   3.286
122 B   123 A   123 B   124 A   124 B   125 B   125 A   126 A                  
  3.304   3.310   3.317   3.324   3.332   3.355   3.355   3.397
126 B   127 A   128 A   127 B   129 A   130 A   128 B   129 B                  
  3.410   3.414   3.429   3.439   3.442   3.448   3.471   3.477
131 A   130 B   132 A   133 A   131 B   134 A   132 B   135 A                  
  3.487   3.499   3.512   3.513   3.525   3.525   3.535   3.545
133 B   134 B   136 A   135 B   137 A   138 A   136 B   137 B                  
  3.552   3.563   3.568   3.584   3.587   3.596   3.644   3.668
138 B   139 B   139 A   140 B   140 A   141 A   141 B   142 B                  
  3.680   3.705   3.706   3.729   3.729   3.758   3.768   3.781
142 A   143 B   143 A   144 A   144 B   145 B   145 A   146 A                  
  3.824   3.839   3.879   3.886   3.887   3.895   3.939   3.963
147 A   146 B   148 A   149 A   147 B   148 B   149 B   150 A                  
  3.974   3.983   3.992   4.003   4.013   4.023   4.044   4.052
150 B   151 B   151 A   152 A   153 A   152 B   154 A   153 B                  
  4.077   4.122   4.131   4.140   4.168   4.170   4.185   4.185
155 A   154 B   155 B   156 A   157 A   156 B   157 B   158 A                  
  4.194   4.210   4.219   4.267   4.267   4.299   4.300   4.315
159 A   160 A   158 B   159 B   161 A   162 A   160 B   161 B                  
  4.341   4.354   4.426   4.449   4.457   4.475   4.486   4.491
162 B   163 A   163 B   164 A   165 A   164 B   165 B   166 A                  
  4.509   4.594   4.619   4.629   4.647   4.659   4.683   4.691
167 A   166 B   167 B   168 A   169 A   168 B   170 A   169 B                  
  4.700   4.726   4.744   4.764   4.801   4.837   4.849   4.859
171 A   172 A   170 B   171 B   173 A   174 A   175 A   172 B                  
  4.924   4.959   4.996   5.052   5.052   5.067   5.069   5.096
173 B   174 B   176 A   177 A   175 B   178 A   176 B   179 A                  
  5.150   5.161   5.182   5.246   5.255   5.292   5.327   5.358
177 B   178 B   180 A   179 B   180 B   181 A   182 A   181 B                  
  5.384   5.428   5.450   5.456   5.583   5.615   5.628   5.687
183 A   182 B   184 A   183 B   185 A   184 B   185 B   186 A                  
  5.793   5.879   5.975   6.084   6.085   6.143   6.154   6.250
187 A   186 B   188 A   189 A   187 B   190 A   188 B   189 B                  
  6.499   6.525   6.622   6.669   6.868   9.314  10.960  11.691
190 B   191 A   191 B   192 A   192 B   193 A   193 B   194 A                  
 12.455  13.248  14.050  14.390  15.160
194 B   195 A   195 B   196 A   196 B                                          
 --------------------------------------------------------------
 
          Ground-State Mulliken Net Atomic Charges

     Atom                 Charge (a.u.)
  ----------------------------------------
      1 S                     0.101069
      2 C                    -0.235889
      3 C                    -0.206595
      4 C                    -0.179600
      5 C                    -0.004443
      6 H                     0.164790
      7 C                    -0.004443
      8 S                     0.101069
      9 C                    -0.179600
     10 C                    -0.235889
     11 C                    -0.206595
     12 H                     0.173943
     13 H                     0.186725
     14 H                     0.173943
     15 H                     0.186725
     16 H                     0.164790
  ----------------------------------------
  Sum of atomic charges =     0.000000

 -----------------------------------------------------------------
                    Cartesian Multipole Moments
 -----------------------------------------------------------------
    Charge (ESU x 10^10)
                -0.0000
    Dipole Moment (Debye)
         X       0.0000      Y       0.0000      Z      -0.7412
       Tot       0.7412
    Quadrupole Moments (Debye-Ang)
        XX     -60.9547     XY       0.0853     YY     -78.0565
        XZ      -0.0000     YZ       0.0000     ZZ     -67.4891
    Octopole Moments (Debye-Ang^2)
       XXX      -0.0000    XXY       0.0000    XYY      -0.0000
       YYY       0.0000    XXZ       5.2201    XYZ      -2.3149
       YYZ       3.6709    XZZ      -0.0000    YZZ       0.0000
       ZZZ      -8.0016
    Hexadecapole Moments (Debye-Ang^3)
      XXXX   -1823.8345   XXXY       2.2313   XXYY    -404.9617
      XYYY       1.2787   YYYY     -99.3898   XXXZ       0.0000
      XXYZ       0.0000   XYYZ      -0.0000   YYYZ       0.0000
      XXZZ    -395.7627   XYZZ       3.0271   YYZZ    -119.3061
      XZZZ      -0.0000   YZZZ       0.0000   ZZZZ    -538.2122
 -----------------------------------------------------------------
 DrvMan is completing analytic gradient of the MP2 energy
 MP2 relaxed dipole moment
            1
    1   0.0000000
    2   0.0000000
    3  -0.2915950
	Magnitude:	 0.292 au	 0.741 Debye
 MP2 energy read as -1103.412985
 Full Analytical Gradient of MP2 Energy (in au.)
             1             2             3             4             5
    1    0.00011820    0.00023923    0.00037312    0.00002813    0.00017040
    2   -0.00000707    0.00010718   -0.00006603    0.00100076   -0.00037562
    3    0.00016803    0.00006189    0.00033946    0.00060851   -0.00108069
             6             7             8             9            10
    1   -0.00020213   -0.00017040   -0.00011820   -0.00002813   -0.00023923
    2   -0.00089710    0.00037562    0.00000707   -0.00100076   -0.00010718
    3   -0.00005931   -0.00108068    0.00016803    0.00060851    0.00006189
            11            12            13            14            15
    1   -0.00037312   -0.00002793    0.00011356    0.00002793   -0.00011356
    2    0.00006603   -0.00002420   -0.00011258    0.00002420    0.00011258
    3    0.00033946    0.00007402   -0.00011190    0.00007402   -0.00011190
            16
    1    0.00020213
    2    0.00089710
    3   -0.00005931
 Gradient time:  CPU 1.54 s  wall 0.10 s
 Geometry Optimization Parameters
   NAtoms,    NIC,     NZ,  NCons,   NDum,   NFix, NCnnct, MaxDiis
       16     111       0       1       0       0       0       0

 Cartesian Hessian Update
 Hessian Updated using BFGS Update


** CONSTRAINED OPTIMIZATION IN DELOCALIZED INTERNAL COORDINATES **
   Searching for a Minimum

   Optimization Cycle:   2

                       Coordinates (Angstroms)
     ATOM                X               Y               Z
      1  S         1.6238580109   -0.1183476657    1.1387915861
      2  C         3.1147833446   -0.0290436370    0.3130584738
      3  C         2.9284837043    0.0839402045   -1.0418616969
      4  C         1.5718862653    0.1061663684   -1.4015010239
      5  C         0.7196344163    0.0053303979   -0.3211248400
      6  H         1.2147320189    0.1839204183   -2.4126592863
      7  C        -0.7196344163   -0.0053303979   -0.3211248400
      8  S        -1.6238580109    0.1183476657    1.1387915861
      9  C        -1.5718862653   -0.1061663684   -1.4015010239
     10  C        -3.1147833446    0.0290436370    0.3130584738
     11  C        -2.9284837043   -0.0839402045   -1.0418616969
     12  H        -3.7411709539   -0.1513816425   -1.7412370755
     13  H         4.0373630901   -0.0687731954    0.8568596637
     14  H         3.7411709539    0.1513816425   -1.7412370755
     15  H        -4.0373630901    0.0687731954    0.8568596637
     16  H        -1.2147320189   -0.1839204183   -2.4126592863
   Point Group: c2    Number of degrees of freedom:    22


   Energy is  -1103.412984834

              Constraints and their Current Values
                                        Value     Constraint
   Dihedral:        4   5   7   9       10.000       10.000
 Hessian Updated using BFGS Update

 21 Hessian modes will be used to form the next step
  Hessian Eigenvalues:
     0.034360    0.045000    0.045000    0.045001    0.045006    0.050275
     0.157773    0.159993    0.160089    0.217119    0.222050    0.256474
     0.333672    0.340053    0.365464    0.366902    0.370085    0.411469
     0.439603    0.462809    0.497461

 Minimum Search - Taking Simple RFO Step
 Searching for Lamda that Minimizes Along All modes
 Value Taken    Lamda =  -0.00007596
 Step Taken.  Stepsize is  0.040221

                             Maximum     Tolerance    Cnvgd?
         Gradient           0.001505      0.000300      NO
         Displacement       0.026560      0.001200      NO
         Energy change     -0.000391      0.000001      NO


 New Cartesian Coordinates Obtained by Inverse Iteration

 Displacement from previous Coordinates is:  0.084880
 ----------------------------------------------------------------
             Standard Nuclear Orientation (Angstroms)
    I     Atom           X                Y                Z
 ----------------------------------------------------------------
    1      S       1.6301028436    -0.1243483509     1.1431001301
    2      C       3.1157139152    -0.0328655363     0.3083663041
    3      C       2.9224632301     0.0828233458    -1.0456038743
    4      C       1.5646767452     0.1071386011    -1.3972823432
    5      C       0.7190896776     0.0055673714    -0.3111800889
    6      H       1.2033429324     0.1981907412    -2.4057019827
    7      C      -0.7190896776    -0.0055673714    -0.3111800889
    8      S      -1.6301028436     0.1243483509     1.1431001301
    9      C      -1.5646767452    -0.1071386011    -1.3972823432
   10      C      -3.1157139152     0.0328655363     0.3083663041
   11      C      -2.9224632301    -0.0828233458    -1.0456038743
   12      H      -3.7309934129    -0.1542754496    -1.7494499655
   13      H       4.0406369471    -0.0714583548     0.8480776213
   14      H       3.7309934129     0.1542754496    -1.7494499655
   15      H      -4.0406369471     0.0714583548     0.8480776213
   16      H      -1.2033429324    -0.1981907412    -2.4057019827
 ----------------------------------------------------------------
 Molecular Point Group                 C2    NOp =  2
 Largest Abelian Subgroup              C2    NOp =  2
 Nuclear Repulsion Energy =   639.5009553044 hartrees
 There are       43 alpha and       43 beta electrons
 Applying Cartesian multipole field
    Component          Value
    ---------          -----
     (2,0,0)        1.00000E-11
     (0,2,0)        2.00000E-10
     (0,0,2)       -3.00000E-11
 Nucleus-field energy     =     0.0000000043 hartrees
 Requested basis set is cc-pVTZ
 There are 140 shells and 392 basis functions
 A cutoff of  1.0D-11 yielded   8034 shell pairs
 There are     62350 function pairs (     81286 Cartesian)
 Smallest overlap matrix eigenvalue = 5.24E-05
 Guess MOs from SCF MO coefficient file
 Reading MOs from coefficient file
 Reading MOs from coefficient file
 A restricted Hartree-Fock SCF calculation will be
 performed using Pulay DIIS extrapolation
 SCF converges when DIIS error is below 1.0E-08
 Geometry optimization detected.  Setting ReadMinima to 0
 Setting SaveMinima to 0
 using 16 threads for integral computing 
 ---------------------------------------
  Cycle       Energy         DIIS Error
 ---------------------------------------
    1   -1101.5962761106      1.29E-04
    2   -1101.5970582319      2.05E-05
    3   -1101.5970713395      9.69E-06
    4   -1101.5970738111      4.00E-06
    5   -1101.5970744357      9.57E-07
    6   -1101.5970744792      4.20E-07
    7   -1101.5970744894      1.04E-07
    8   -1101.5970744894      3.48E-08
    9   -1101.5970744900      1.60E-08
   10   -1101.5970744897      7.53E-09 Convergence criterion met
 ---------------------------------------
 SCF time:  CPU 662.89 s  wall 41.47 s
 SCF   energy in the final basis set = -1101.5970744897
 Total energy in the final basis set = -1101.5970744897
 
 Components of the MP2 correlation energy:
        aaaa  correlation energy =        -0.2325373219 au
        abab  correlation energy =        -1.3508833595 au
        bbbb  correlation energy =        -0.2325373219 au
        non-Brillouin singles    =        -0.0000000000 au

 Total  MP2   correlation energy =        -1.8159580033 au
        MP2         total energy =     -1103.4130324930 au

  Entering Z-vector solver.
   1         0           1      0.000267    0.000267
   2         0           1      0.000118    0.000118
   3         0           1      0.000048    0.000048
   4         0           1      0.000022    0.000022
   5         0           1      0.000007    0.000007
   6         0           1      0.000002    0.000002
   7         1           0      0.000000    0.000000    Roots Converged
 
 --------------------------------------------------------------
             Orbital Energies (a.u.) and Symmetries
 --------------------------------------------------------------
 
 Alpha MOs, Restricted
 -- Occupied --                  
-91.985 -91.985 -11.276 -11.275 -11.261 -11.261 -11.238 -11.238
  1 A     1 B     2 A     2 B     3 B     3 A     4 B     4 A                  
-11.237 -11.237  -8.987  -8.987  -6.668  -6.668  -6.667  -6.667
  5 B     5 A     6 B     6 A     7 B     7 A     8 B     8 A                  
 -6.666  -6.666  -1.197  -1.167  -1.036  -1.001  -0.985  -0.948
  9 A     9 B    10 A    10 B    11 A    12 A    11 B    12 B                  
 -0.810  -0.780  -0.746  -0.717  -0.709  -0.645  -0.575  -0.572
 13 A    14 A    13 B    14 B    15 A    15 B    16 A    17 A                  
 -0.558  -0.555  -0.543  -0.512  -0.511  -0.489  -0.463  -0.378
 16 B    17 B    18 A    19 A    18 B    20 A    19 B    20 B                  
 -0.356  -0.346  -0.277
 21 B    21 A    22 A                                                          
 -- Virtual --                   
  0.070   0.140   0.153   0.153   0.159   0.174   0.177   0.180
 22 B    23 A    23 B    24 A    25 A    26 A    24 B    25 B                  
  0.199   0.217   0.220   0.244   0.256   0.296   0.304   0.354
 27 A    28 A    26 B    29 A    27 B    28 B    30 A    31 A                  
  0.359   0.367   0.371   0.379   0.386   0.405   0.419   0.431
 29 B    32 A    33 A    30 B    31 B    32 B    33 B    34 A                  
  0.441   0.450   0.466   0.468   0.480   0.489   0.515   0.525
 34 B    35 A    35 B    36 A    37 A    36 B    38 A    37 B                  
  0.527   0.535   0.537   0.543   0.551   0.563   0.572   0.577
 39 A    38 B    40 A    39 B    41 A    40 B    41 B    42 A                  
  0.577   0.585   0.598   0.601   0.610   0.612   0.617   0.626
 42 B    43 A    43 B    44 A    45 A    44 B    46 A    45 B                  
  0.637   0.639   0.652   0.664   0.669   0.700   0.731   0.749
 47 A    46 B    48 A    49 A    47 B    48 B    50 A    49 B                  
  0.752   0.772   0.785   0.798   0.820   0.822   0.838   0.853
 51 A    52 A    50 B    51 B    53 A    52 B    54 A    53 B                  
  0.861   0.877   0.891   0.907   0.916   0.933   0.933   0.955
 55 A    54 B    56 A    57 A    55 B    58 A    56 B    57 B                  
  0.956   0.993   0.996   1.009   1.059   1.070   1.081   1.083
 59 A    58 B    59 B    60 A    60 B    61 A    62 A    61 B                  
  1.093   1.099   1.107   1.113   1.127   1.144   1.171   1.172
 63 A    62 B    63 B    64 A    64 B    65 A    65 B    66 A                  
  1.194   1.214   1.215   1.231   1.243   1.247   1.259   1.262
 66 B    67 B    67 A    68 A    69 A    68 B    69 B    70 A                  
  1.300   1.306   1.318   1.324   1.356   1.401   1.427   1.430
 70 B    71 B    71 A    72 A    73 A    72 B    74 A    73 B                  
  1.432   1.470   1.478   1.489   1.491   1.506   1.522   1.540
 75 A    74 B    76 A    75 B    77 A    78 A    76 B    77 B                  
  1.553   1.563   1.564   1.597   1.605   1.622   1.631   1.632
 78 B    79 A    79 B    80 A    81 A    80 B    82 A    81 B                  
  1.655   1.664   1.733   1.740   1.752   1.763   1.798   1.833
 83 A    82 B    83 B    84 A    84 B    85 A    86 A    85 B                  
  1.845   1.851   1.864   1.889   1.903   1.923   1.948   1.958
 86 B    87 A    87 B    88 B    88 A    89 A    89 B    90 A                  
  1.965   1.990   2.046   2.068   2.096   2.129   2.134   2.134
 90 B    91 A    92 A    91 B    92 B    93 A    94 A    93 B                  
  2.163   2.189   2.203   2.208   2.217   2.237   2.267   2.278
 94 B    95 A    96 A    97 A    95 B    96 B    97 B    98 B                  
  2.279   2.284   2.322   2.408   2.411   2.434   2.440   2.473
 98 A    99 A    99 B   100 A   100 B   101 A   101 B   102 B                  
  2.482   2.515   2.517   2.525   2.553   2.557   2.588   2.601
102 A   103 B   103 A   104 A   105 A   104 B   106 A   105 B                  
  2.666   2.668   2.672   2.683   2.712   2.743   2.744   2.768
107 A   106 B   108 A   107 B   109 A   108 B   110 A   111 A                  
  2.772   2.784   2.800   2.805   2.824   2.846   2.874   2.907
109 B   112 A   110 B   111 B   112 B   113 A   113 B   114 B                  
  2.907   2.916   2.925   2.930   2.989   3.001   3.010   3.035
114 A   115 A   116 A   115 B   116 B   117 A   118 A   117 B                  
  3.045   3.077   3.099   3.102   3.138   3.147   3.162   3.190
118 B   119 A   119 B   120 A   120 B   121 A   122 A   121 B                  
  3.213   3.221   3.225   3.240   3.255   3.272   3.278   3.285
122 B   123 A   123 B   124 A   124 B   125 B   125 A   126 A                  
  3.304   3.311   3.317   3.324   3.332   3.355   3.356   3.398
126 B   127 A   128 A   127 B   129 A   130 A   128 B   129 B                  
  3.411   3.412   3.429   3.439   3.442   3.448   3.470   3.477
131 A   130 B   132 A   133 A   131 B   134 A   132 B   135 A                  
  3.489   3.500   3.512   3.515   3.524   3.525   3.536   3.545
133 B   134 B   136 A   135 B   137 A   138 A   136 B   137 B                  
  3.553   3.564   3.567   3.584   3.586   3.598   3.643   3.670
138 B   139 B   139 A   140 B   140 A   141 A   141 B   142 B                  
  3.682   3.705   3.707   3.729   3.729   3.758   3.767   3.781
142 A   143 B   143 A   144 A   144 B   145 B   145 A   146 A                  
  3.824   3.840   3.879   3.885   3.887   3.896   3.937   3.965
147 A   146 B   148 A   149 A   147 B   148 B   149 B   150 A                  
  3.976   3.984   3.993   4.003   4.014   4.023   4.044   4.052
150 B   151 B   151 A   152 A   153 A   152 B   154 A   153 B                  
  4.078   4.123   4.131   4.139   4.168   4.170   4.185   4.188
155 A   154 B   155 B   156 A   157 A   156 B   157 B   158 A                  
  4.196   4.210   4.218   4.265   4.268   4.300   4.302   4.317
159 A   160 A   158 B   159 B   161 A   162 A   160 B   161 B                  
  4.344   4.356   4.426   4.450   4.458   4.475   4.489   4.493
162 B   163 A   163 B   164 A   165 A   164 B   165 B   166 A                  
  4.510   4.596   4.617   4.630   4.649   4.659   4.683   4.692
167 A   166 B   167 B   168 A   169 A   168 B   170 A   169 B                  
  4.699   4.728   4.745   4.763   4.804   4.836   4.849   4.863
171 A   172 A   170 B   171 B   173 A   174 A   175 A   172 B                  
  4.924   4.960   4.994   5.050   5.052   5.066   5.069   5.094
173 B   174 B   176 A   175 B   177 A   178 A   176 B   179 A                  
  5.151   5.162   5.185   5.248   5.255   5.293   5.328   5.357
177 B   178 B   180 A   179 B   180 B   181 A   182 A   181 B                  
  5.385   5.428   5.451   5.455   5.584   5.615   5.627   5.688
183 A   182 B   184 A   183 B   185 A   184 B   185 B   186 A                  
  5.792   5.882   5.979   6.085   6.086   6.145   6.154   6.250
187 A   186 B   188 A   187 B   189 A   190 A   188 B   189 B                  
  6.503   6.523   6.620   6.672   6.870   9.312  10.969  11.695
190 B   191 A   191 B   192 A   192 B   193 A   193 B   194 A                  
 12.464  13.244  14.050  14.393  15.156
194 B   195 A   195 B   196 A   196 B                                          
 
 Beta MOs, Restricted
 -- Occupied --                  
-91.985 -91.985 -11.276 -11.275 -11.261 -11.261 -11.238 -11.238
  1 A     1 B     2 A     2 B     3 B     3 A     4 B     4 A                  
-11.237 -11.237  -8.987  -8.987  -6.668  -6.668  -6.667  -6.667
  5 B     5 A     6 B     6 A     7 B     7 A     8 B     8 A                  
 -6.666  -6.666  -1.197  -1.167  -1.036  -1.001  -0.985  -0.948
  9 A     9 B    10 A    10 B    11 A    12 A    11 B    12 B                  
 -0.810  -0.780  -0.746  -0.717  -0.709  -0.645  -0.575  -0.572
 13 A    14 A    13 B    14 B    15 A    15 B    16 A    17 A                  
 -0.558  -0.555  -0.543  -0.512  -0.511  -0.489  -0.463  -0.378
 16 B    17 B    18 A    19 A    18 B    20 A    19 B    20 B                  
 -0.356  -0.346  -0.277
 21 B    21 A    22 A                                                          
 -- Virtual --                   
  0.070   0.140   0.153   0.153   0.159   0.174   0.177   0.180
 22 B    23 A    23 B    24 A    25 A    26 A    24 B    25 B                  
  0.199   0.217   0.220   0.244   0.256   0.296   0.304   0.354
 27 A    28 A    26 B    29 A    27 B    28 B    30 A    31 A                  
  0.359   0.367   0.371   0.379   0.386   0.405   0.419   0.431
 29 B    32 A    33 A    30 B    31 B    32 B    33 B    34 A                  
  0.441   0.450   0.466   0.468   0.480   0.489   0.515   0.525
 34 B    35 A    35 B    36 A    37 A    36 B    38 A    37 B                  
  0.527   0.535   0.537   0.543   0.551   0.563   0.572   0.577
 39 A    38 B    40 A    39 B    41 A    40 B    41 B    42 A                  
  0.577   0.585   0.598   0.601   0.610   0.612   0.617   0.626
 42 B    43 A    43 B    44 A    45 A    44 B    46 A    45 B                  
  0.637   0.639   0.652   0.664   0.669   0.700   0.731   0.749
 47 A    46 B    48 A    49 A    47 B    48 B    50 A    49 B                  
  0.752   0.772   0.785   0.798   0.820   0.822   0.838   0.853
 51 A    52 A    50 B    51 B    53 A    52 B    54 A    53 B                  
  0.861   0.877   0.891   0.907   0.916   0.933   0.933   0.955
 55 A    54 B    56 A    57 A    55 B    58 A    56 B    57 B                  
  0.956   0.993   0.996   1.009   1.059   1.070   1.081   1.083
 59 A    58 B    59 B    60 A    60 B    61 A    62 A    61 B                  
  1.093   1.099   1.107   1.113   1.127   1.144   1.171   1.172
 63 A    62 B    63 B    64 A    64 B    65 A    65 B    66 A                  
  1.194   1.214   1.215   1.231   1.243   1.247   1.259   1.262
 66 B    67 B    67 A    68 A    69 A    68 B    69 B    70 A                  
  1.300   1.306   1.318   1.324   1.356   1.401   1.427   1.430
 70 B    71 B    71 A    72 A    73 A    72 B    74 A    73 B                  
  1.432   1.470   1.478   1.489   1.491   1.506   1.522   1.540
 75 A    74 B    76 A    75 B    77 A    78 A    76 B    77 B                  
  1.553   1.563   1.564   1.597   1.605   1.622   1.631   1.632
 78 B    79 A    79 B    80 A    81 A    80 B    82 A    81 B                  
  1.655   1.664   1.733   1.740   1.752   1.763   1.798   1.833
 83 A    82 B    83 B    84 A    84 B    85 A    86 A    85 B                  
  1.845   1.851   1.864   1.889   1.903   1.923   1.948   1.958
 86 B    87 A    87 B    88 B    88 A    89 A    89 B    90 A                  
  1.965   1.990   2.046   2.068   2.096   2.129   2.134   2.134
 90 B    91 A    92 A    91 B    92 B    93 A    94 A    93 B                  
  2.163   2.189   2.203   2.208   2.217   2.237   2.267   2.278
 94 B    95 A    96 A    97 A    95 B    96 B    97 B    98 B                  
  2.279   2.284   2.322   2.408   2.411   2.434   2.440   2.473
 98 A    99 A    99 B   100 A   100 B   101 A   101 B   102 B                  
  2.482   2.515   2.517   2.525   2.553   2.557   2.588   2.601
102 A   103 B   103 A   104 A   105 A   104 B   106 A   105 B                  
  2.666   2.668   2.672   2.683   2.712   2.743   2.744   2.768
107 A   106 B   108 A   107 B   109 A   108 B   110 A   111 A                  
  2.772   2.784   2.800   2.805   2.824   2.846   2.874   2.907
109 B   112 A   110 B   111 B   112 B   113 A   113 B   114 B                  
  2.907   2.916   2.925   2.930   2.989   3.001   3.010   3.035
114 A   115 A   116 A   115 B   116 B   117 A   118 A   117 B                  
  3.045   3.077   3.099   3.102   3.138   3.147   3.162   3.190
118 B   119 A   119 B   120 A   120 B   121 A   122 A   121 B                  
  3.213   3.221   3.225   3.240   3.255   3.272   3.278   3.285
122 B   123 A   123 B   124 A   124 B   125 B   125 A   126 A                  
  3.304   3.311   3.317   3.324   3.332   3.355   3.356   3.398
126 B   127 A   128 A   127 B   129 A   130 A   128 B   129 B                  
  3.411   3.412   3.429   3.439   3.442   3.448   3.470   3.477
131 A   130 B   132 A   133 A   131 B   134 A   132 B   135 A                  
  3.489   3.500   3.512   3.515   3.524   3.525   3.536   3.545
133 B   134 B   136 A   135 B   137 A   138 A   136 B   137 B                  
  3.553   3.564   3.567   3.584   3.586   3.598   3.643   3.670
138 B   139 B   139 A   140 B   140 A   141 A   141 B   142 B                  
  3.682   3.705   3.707   3.729   3.729   3.758   3.767   3.781
142 A   143 B   143 A   144 A   144 B   145 B   145 A   146 A                  
  3.824   3.840   3.879   3.885   3.887   3.896   3.937   3.965
147 A   146 B   148 A   149 A   147 B   148 B   149 B   150 A                  
  3.976   3.984   3.993   4.003   4.014   4.023   4.044   4.052
150 B   151 B   151 A   152 A   153 A   152 B   154 A   153 B                  
  4.078   4.123   4.131   4.139   4.168   4.170   4.185   4.188
155 A   154 B   155 B   156 A   157 A   156 B   157 B   158 A                  
  4.196   4.210   4.218   4.265   4.268   4.300   4.302   4.317
159 A   160 A   158 B   159 B   161 A   162 A   160 B   161 B                  
  4.344   4.356   4.426   4.450   4.458   4.475   4.489   4.493
162 B   163 A   163 B   164 A   165 A   164 B   165 B   166 A                  
  4.510   4.596   4.617   4.630   4.649   4.659   4.683   4.692
167 A   166 B   167 B   168 A   169 A   168 B   170 A   169 B                  
  4.699   4.728   4.745   4.763   4.804   4.836   4.849   4.863
171 A   172 A   170 B   171 B   173 A   174 A   175 A   172 B                  
  4.924   4.960   4.994   5.050   5.052   5.066   5.069   5.094
173 B   174 B   176 A   175 B   177 A   178 A   176 B   179 A                  
  5.151   5.162   5.185   5.248   5.255   5.293   5.328   5.357
177 B   178 B   180 A   179 B   180 B   181 A   182 A   181 B                  
  5.385   5.428   5.451   5.455   5.584   5.615   5.627   5.688
183 A   182 B   184 A   183 B   185 A   184 B   185 B   186 A                  
  5.792   5.882   5.979   6.085   6.086   6.145   6.154   6.250
187 A   186 B   188 A   187 B   189 A   190 A   188 B   189 B                  
  6.503   6.523   6.620   6.672   6.870   9.312  10.969  11.695
190 B   191 A   191 B   192 A   192 B   193 A   193 B   194 A                  
 12.464  13.244  14.050  14.393  15.156
194 B   195 A   195 B   196 A   196 B                                          
 --------------------------------------------------------------
 
          Ground-State Mulliken Net Atomic Charges

     Atom                 Charge (a.u.)
  ----------------------------------------
      1 S                     0.101477
      2 C                    -0.236059
      3 C                    -0.206593
      4 C                    -0.179920
      5 C                    -0.004074
      6 H                     0.164773
      7 C                    -0.004074
      8 S                     0.101477
      9 C                    -0.179920
     10 C                    -0.236059
     11 C                    -0.206593
     12 H                     0.173893
     13 H                     0.186504
     14 H                     0.173893
     15 H                     0.186504
     16 H                     0.164773
  ----------------------------------------
  Sum of atomic charges =     0.000000

 -----------------------------------------------------------------
                    Cartesian Multipole Moments
 -----------------------------------------------------------------
    Charge (ESU x 10^10)
                 0.0000
    Dipole Moment (Debye)
         X      -0.0000      Y       0.0000      Z      -0.7406
       Tot       0.7406
    Quadrupole Moments (Debye-Ang)
        XX     -61.0163     XY       0.1256     YY     -78.0378
        XZ       0.0000     YZ       0.0000     ZZ     -67.4871
    Octopole Moments (Debye-Ang^2)
       XXX      -0.0000    XXY       0.0000    XYY       0.0000
       YYY       0.0000    XXZ       5.0007    XYZ      -2.4326
       YYZ       3.4866    XZZ      -0.0000    YZZ      -0.0000
       ZZZ      -8.4745
    Hexadecapole Moments (Debye-Ang^3)
      XXXX   -1824.2270   XXXY       3.7383   XXYY    -404.7739
      XYYY       2.6355   YYYY     -99.6772   XXXZ       0.0000
      XXYZ       0.0000   XYYZ      -0.0000   YYYZ       0.0000
      XXZZ    -395.8657   XYZZ       3.6769   YYZZ    -119.3305
      XZZZ       0.0000   YZZZ       0.0000   ZZZZ    -538.8970
 -----------------------------------------------------------------
 DrvMan is completing analytic gradient of the MP2 energy
 MP2 relaxed dipole moment
            1
    1  -0.0000000
    2   0.0000000
    3  -0.2913564
	Magnitude:	 0.291 au	 0.741 Debye
 MP2 energy read as -1103.413032
 Full Analytical Gradient of MP2 Energy (in au.)
             1             2             3             4             5
    1    0.00021454   -0.00018475   -0.00008521    0.00004944    0.00002681
    2   -0.00009004    0.00019529   -0.00023656    0.00028223    0.00004187
    3    0.00041394   -0.00001098   -0.00006613    0.00012977   -0.00029605
             6             7             8             9            10
    1    0.00003424   -0.00002681   -0.00021454   -0.00004944    0.00018475
    2   -0.00047516   -0.00004187    0.00009004   -0.00028223   -0.00019529
    3   -0.00009011   -0.00029605    0.00041394    0.00012977   -0.00001098
            11            12            13            14            15
    1    0.00008521    0.00002745   -0.00002066   -0.00002745    0.00002066
    2    0.00023656   -0.00010059   -0.00001435    0.00010059    0.00001435
    3   -0.00006613   -0.00003375   -0.00004668   -0.00003375   -0.00004668
            16
    1   -0.00003424
    2    0.00047516
    3   -0.00009011
 Gradient time:  CPU 1.53 s  wall 0.10 s
 Geometry Optimization Parameters
   NAtoms,    NIC,     NZ,  NCons,   NDum,   NFix, NCnnct, MaxDiis
       16     111       0       1       0       0       0       0

 Cartesian Hessian Update
 Hessian Updated using BFGS Update


** CONSTRAINED OPTIMIZATION IN DELOCALIZED INTERNAL COORDINATES **
   Searching for a Minimum

   Optimization Cycle:   3

                       Coordinates (Angstroms)
     ATOM                X               Y               Z
      1  S         1.6301028436   -0.1243483509    1.1431001301
      2  C         3.1157139152   -0.0328655363    0.3083663041
      3  C         2.9224632301    0.0828233458   -1.0456038743
      4  C         1.5646767452    0.1071386011   -1.3972823432
      5  C         0.7190896776    0.0055673714   -0.3111800889
      6  H         1.2033429324    0.1981907412   -2.4057019827
      7  C        -0.7190896776   -0.0055673714   -0.3111800889
      8  S        -1.6301028436    0.1243483509    1.1431001301
      9  C        -1.5646767452   -0.1071386011   -1.3972823432
     10  C        -3.1157139152    0.0328655363    0.3083663041
     11  C        -2.9224632301   -0.0828233458   -1.0456038743
     12  H        -3.7309934129   -0.1542754496   -1.7494499655
[...]
         Gradient           0.000080      0.000300     YES
         Displacement       0.003069      0.001200      NO
         Energy change     -0.000001      0.000001     YES

 Final energy is   -1103.41306233803     


 ******************************
 **  OPTIMIZATION CONVERGED  **
 ******************************

                       Coordinates (Angstroms)
     ATOM                X               Y               Z
      1  S         1.6296267098   -0.1387988756    1.1404843139
      2  C         3.1158482915   -0.0431114893    0.3071506783
      3  C         2.9225901178    0.0888599322   -1.0453835253
      4  C         1.5645997134    0.1199765421   -1.3967710193
      5  C         0.7190023515    0.0114839283   -0.3112064772
      6  H         1.2025156856    0.2347009161   -2.4024718166
      7  C        -0.7190023515   -0.0114839283   -0.3112064772
      8  S        -1.6296267098    0.1387988756    1.1404843139
      9  C        -1.5645997134   -0.1199765421   -1.3967710193
     10  C        -3.1158482915    0.0431114893    0.3071506783
     11  C        -2.9225901178   -0.0888599322   -1.0453835253
     12  H        -3.7314967713   -0.1645000723   -1.7483506256
     13  H         4.0405146140   -0.0883762705    0.8468742728
     14  H         3.7314967713    0.1645000723   -1.7483506256
     15  H        -4.0405146140    0.0883762705    0.8468742728
     16  H        -1.2025156856   -0.2347009161   -2.4024718166

Z-matrix Print:
$molecule
0 1
S 
C  1 1.706592
H  2 1.071615 1 120.208357
C  2 1.372630 1 111.341816 3 -179.988162 0
H  4 1.074344 2 123.059093 1 179.930698 0
C  4 1.403061 2 112.654947 1 -0.376157 0
H  6 1.075035 4 124.239256 2 -178.901218 0
C  6 1.380310 4 113.217778 2 0.006521 0
C  8 1.438188 6 127.864138 4 179.023567 0
C  9 1.380310 8 127.864138 6 -10.000000 0
H  10 1.075035 9 122.533584 8 -2.047469 0
C  10 1.403061 9 113.217778 8 179.023567 0
H  12 1.074344 10 124.285190 9 179.695259 0
C  12 1.372630 10 112.654947 9 0.006521 0
H  14 1.071615 12 128.449826 10 179.636905 0
S  14 1.706592 12 111.341816 10 -0.376157 0
$end

 
 --------------------------------------------------------------
             Orbital Energies (a.u.) and Symmetries
 --------------------------------------------------------------
 
 Alpha MOs, Restricted
 -- Occupied --                  
-91.985 -91.985 -11.276 -11.275 -11.261 -11.261 -11.238 -11.238
  1 A     1 B     2 A     2 B     3 B     3 A     4 B     4 A                  
-11.237 -11.237  -8.986  -8.986  -6.667  -6.667  -6.667  -6.667
  5 B     5 A     6 B     6 A     7 B     7 A     8 B     8 A                  
 -6.666  -6.666  -1.197  -1.167  -1.036  -1.001  -0.985  -0.948
  9 A     9 B    10 A    10 B    11 A    12 A    11 B    12 B                  
 -0.810  -0.780  -0.746  -0.717  -0.709  -0.645  -0.575  -0.572
 13 A    14 A    13 B    14 B    15 A    15 B    16 A    17 A                  
 -0.559  -0.555  -0.543  -0.512  -0.511  -0.489  -0.464  -0.378
 16 B    17 B    18 A    19 A    18 B    20 A    19 B    20 B                  
 -0.356  -0.346  -0.277
 21 B    21 A    22 A                                                          
 -- Virtual --                   
  0.070   0.140   0.153   0.153   0.159   0.174   0.176   0.181
 22 B    23 A    24 A    23 B    25 A    26 A    24 B    25 B                  
  0.199   0.217   0.220   0.244   0.256   0.295   0.305   0.354
 27 A    28 A    26 B    29 A    27 B    28 B    30 A    31 A                  
  0.358   0.367   0.371   0.377   0.388   0.403   0.418   0.431
 29 B    32 A    33 A    30 B    31 B    32 B    33 B    34 A                  
  0.442   0.450   0.465   0.468   0.480   0.488   0.516   0.525
 34 B    35 A    35 B    36 A    37 A    36 B    38 A    37 B                  
  0.528   0.535   0.537   0.543   0.551   0.562   0.572   0.577
 39 A    38 B    40 A    39 B    41 A    40 B    41 B    42 A                  
  0.577   0.585   0.599   0.601   0.610   0.611   0.617   0.627
 42 B    43 A    43 B    44 A    45 A    44 B    46 A    45 B                  
  0.636   0.638   0.652   0.664   0.669   0.699   0.730   0.749
 47 A    46 B    48 A    49 A    47 B    48 B    50 A    49 B                  
  0.751   0.773   0.786   0.796   0.819   0.820   0.838   0.854
 51 A    52 A    50 B    51 B    52 B    53 A    54 A    53 B                  
  0.861   0.878   0.889   0.908   0.914   0.934   0.934   0.952
 55 A    54 B    56 A    57 A    55 B    58 A    56 B    57 B                  
  0.957   0.990   0.996   1.011   1.059   1.071   1.081   1.082
 59 A    58 B    59 B    60 A    60 B    61 A    62 A    61 B                  
  1.094   1.099   1.104   1.113   1.126   1.146   1.170   1.174
 63 A    62 B    63 B    64 A    64 B    65 A    66 A    65 B                  
  1.194   1.214   1.215   1.230   1.245   1.248   1.258   1.263
 66 B    67 B    67 A    68 A    69 A    68 B    69 B    70 A                  
  1.299   1.306   1.318   1.324   1.358   1.401   1.427   1.428
 70 B    71 B    71 A    72 A    73 A    72 B    73 B    74 A                  
  1.433   1.467   1.477   1.490   1.492   1.506   1.519   1.541
 75 A    74 B    76 A    75 B    77 A    78 A    76 B    77 B                  
  1.553   1.563   1.563   1.596   1.606   1.625   1.631   1.631
 78 B    79 B    79 A    80 A    81 A    80 B    81 B    82 A                  
  1.656   1.664   1.732   1.741   1.749   1.762   1.798   1.828
 83 A    82 B    83 B    84 A    84 B    85 A    86 A    85 B                  
  1.843   1.851   1.866   1.890   1.903   1.923   1.948   1.958
 86 B    87 A    87 B    88 B    88 A    89 A    89 B    90 A                  
  1.964   1.989   2.048   2.069   2.094   2.130   2.133   2.134
 90 B    91 A    92 A    91 B    92 B    93 A    93 B    94 A                  
  2.163   2.190   2.203   2.211   2.214   2.238   2.266   2.276
 94 B    95 A    96 A    97 A    95 B    96 B    97 B    98 B                  
  2.278   2.285   2.321   2.407   2.414   2.434   2.442   2.472
 98 A    99 A    99 B   100 A   100 B   101 A   101 B   102 B                  
  2.482   2.515   2.516   2.526   2.553   2.558   2.589   2.599
102 A   103 B   103 A   104 A   105 A   104 B   106 A   105 B                  
  2.665   2.665   2.672   2.683   2.714   2.742   2.746   2.768
107 A   106 B   108 A   107 B   109 A   108 B   110 A   111 A                  
  2.771   2.785   2.797   2.800   2.827   2.846   2.874   2.903
109 B   112 A   110 B   111 B   112 B   113 A   113 B   114 B                  
  2.906   2.917   2.927   2.934   2.988   3.002   3.010   3.035
114 A   115 A   116 A   115 B   116 B   117 A   118 A   117 B                  
  3.043   3.077   3.099   3.100   3.140   3.147   3.166   3.188
118 B   119 A   119 B   120 A   120 B   121 A   122 A   121 B                  
  3.213   3.221   3.225   3.241   3.251   3.271   3.277   3.284
122 B   123 A   123 B   124 A   124 B   125 B   125 A   126 A                  
  3.305   3.312   3.318   3.323   3.332   3.356   3.358   3.399
126 B   127 A   128 A   127 B   129 A   130 A   128 B   129 B                  
  3.408   3.411   3.429   3.439   3.442   3.448   3.468   3.477
130 B   131 A   132 A   133 A   131 B   134 A   132 B   135 A                  
  3.490   3.500   3.512   3.515   3.523   3.526   3.534   3.545
133 B   134 B   136 A   135 B   137 A   138 A   136 B   137 B                  
  3.552   3.566   3.566   3.586   3.588   3.601   3.641   3.671
138 B   139 B   139 A   140 A   140 B   141 A   141 B   142 B                  
  3.681   3.703   3.707   3.728   3.729   3.757   3.766   3.781
142 A   143 B   143 A   144 B   144 A   145 B   145 A   146 A                  
  3.823   3.840   3.880   3.884   3.888   3.898   3.934   3.965
147 A   146 B   148 A   147 B   149 A   148 B   149 B   150 A                  
  3.975   3.984   3.993   4.003   4.014   4.021   4.044   4.051
150 B   151 B   151 A   152 A   153 A   152 B   154 A   153 B                  
  4.079   4.126   4.130   4.139   4.166   4.170   4.185   4.188
155 A   154 B   155 B   156 A   157 A   156 B   157 B   158 A                  
  4.196   4.208   4.217   4.261   4.270   4.299   4.301   4.320
159 A   160 A   158 B   159 B   161 A   162 A   160 B   161 B                  
  4.343   4.356   4.425   4.450   4.458   4.474   4.490   4.493
162 B   163 A   163 B   164 A   165 A   164 B   165 B   166 A                  
  4.510   4.597   4.615   4.628   4.651   4.659   4.684   4.692
167 A   166 B   167 B   168 A   169 A   168 B   170 A   169 B                  
  4.699   4.731   4.742   4.763   4.805   4.835   4.850   4.861
171 A   172 A   170 B   171 B   173 A   174 A   175 A   172 B                  
  4.918   4.962   4.995   5.045   5.053   5.066   5.068   5.093
173 B   174 B   176 A   175 B   177 A   178 A   176 B   179 A                  
  5.148   5.160   5.185   5.246   5.254   5.292   5.328   5.356
177 B   178 B   180 A   179 B   180 B   181 A   182 A   181 B                  
  5.385   5.426   5.450   5.453   5.584   5.617   5.626   5.688
183 A   182 B   184 A   183 B   185 A   184 B   185 B   186 A                  
  5.793   5.881   5.980   6.083   6.087   6.145   6.152   6.246
187 A   186 B   188 A   187 B   189 A   190 A   188 B   189 B                  
  6.499   6.524   6.618   6.671   6.867   9.320  10.961  11.698
190 B   191 A   191 B   192 A   192 B   193 A   193 B   194 A                  
 12.448  13.244  14.036  14.391  15.149
194 B   195 A   195 B   196 A   196 B                                          
 
 Beta MOs, Restricted
 -- Occupied --                  
-91.985 -91.985 -11.276 -11.275 -11.261 -11.261 -11.238 -11.238
  1 A     1 B     2 A     2 B     3 B     3 A     4 B     4 A                  
-11.237 -11.237  -8.986  -8.986  -6.667  -6.667  -6.667  -6.667
  5 B     5 A     6 B     6 A     7 B     7 A     8 B     8 A                  
 -6.666  -6.666  -1.197  -1.167  -1.036  -1.001  -0.985  -0.948
  9 A     9 B    10 A    10 B    11 A    12 A    11 B    12 B                  
 -0.810  -0.780  -0.746  -0.717  -0.709  -0.645  -0.575  -0.572
 13 A    14 A    13 B    14 B    15 A    15 B    16 A    17 A                  
 -0.559  -0.555  -0.543  -0.512  -0.511  -0.489  -0.464  -0.378
 16 B    17 B    18 A    19 A    18 B    20 A    19 B    20 B                  
 -0.356  -0.346  -0.277
 21 B    21 A    22 A                                                          
 -- Virtual --                   
  0.070   0.140   0.153   0.153   0.159   0.174   0.176   0.181
 22 B    23 A    24 A    23 B    25 A    26 A    24 B    25 B                  
  0.199   0.217   0.220   0.244   0.256   0.295   0.305   0.354
 27 A    28 A    26 B    29 A    27 B    28 B    30 A    31 A                  
  0.358   0.367   0.371   0.377   0.388   0.403   0.418   0.431
 29 B    32 A    33 A    30 B    31 B    32 B    33 B    34 A                  
  0.442   0.450   0.465   0.468   0.480   0.488   0.516   0.525
 34 B    35 A    35 B    36 A    37 A    36 B    38 A    37 B                  
  0.528   0.535   0.537   0.543   0.551   0.562   0.572   0.577
 39 A    38 B    40 A    39 B    41 A    40 B    41 B    42 A                  
  0.577   0.585   0.599   0.601   0.610   0.611   0.617   0.627
 42 B    43 A    43 B    44 A    45 A    44 B    46 A    45 B                  
  0.636   0.638   0.652   0.664   0.669   0.699   0.730   0.749
 47 A    46 B    48 A    49 A    47 B    48 B    50 A    49 B                  
  0.751   0.773   0.786   0.796   0.819   0.820   0.838   0.854
 51 A    52 A    50 B    51 B    52 B    53 A    54 A    53 B                  
  0.861   0.878   0.889   0.908   0.914   0.934   0.934   0.952
 55 A    54 B    56 A    57 A    55 B    58 A    56 B    57 B                  
  0.957   0.990   0.996   1.011   1.059   1.071   1.081   1.082
 59 A    58 B    59 B    60 A    60 B    61 A    62 A    61 B                  
  1.094   1.099   1.104   1.113   1.126   1.146   1.170   1.174
 63 A    62 B    63 B    64 A    64 B    65 A    66 A    65 B                  
  1.194   1.214   1.215   1.230   1.245   1.248   1.258   1.263
 66 B    67 B    67 A    68 A    69 A    68 B    69 B    70 A                  
  1.299   1.306   1.318   1.324   1.358   1.401   1.427   1.428
 70 B    71 B    71 A    72 A    73 A    72 B    73 B    74 A                  
  1.433   1.467   1.477   1.490   1.492   1.506   1.519   1.541
 75 A    74 B    76 A    75 B    77 A    78 A    76 B    77 B                  
  1.553   1.563   1.563   1.596   1.606   1.625   1.631   1.631
 78 B    79 B    79 A    80 A    81 A    80 B    81 B    82 A                  
  1.656   1.664   1.732   1.741   1.749   1.762   1.798   1.828
 83 A    82 B    83 B    84 A    84 B    85 A    86 A    85 B                  
  1.843   1.851   1.866   1.890   1.903   1.923   1.948   1.958
 86 B    87 A    87 B    88 B    88 A    89 A    89 B    90 A                  
  1.964   1.989   2.048   2.069   2.094   2.130   2.133   2.134
 90 B    91 A    92 A    91 B    92 B    93 A    93 B    94 A                  
  2.163   2.190   2.203   2.211   2.214   2.238   2.266   2.276
 94 B    95 A    96 A    97 A    95 B    96 B    97 B    98 B                  
  2.278   2.285   2.321   2.407   2.414   2.434   2.442   2.472
 98 A    99 A    99 B   100 A   100 B   101 A   101 B   102 B                  
  2.482   2.515   2.516   2.526   2.553   2.558   2.589   2.599
102 A   103 B   103 A   104 A   105 A   104 B   106 A   105 B                  
  2.665   2.665   2.672   2.683   2.714   2.742   2.746   2.768
107 A   106 B   108 A   107 B   109 A   108 B   110 A   111 A                  
  2.771   2.785   2.797   2.800   2.827   2.846   2.874   2.903
109 B   112 A   110 B   111 B   112 B   113 A   113 B   114 B                  
  2.906   2.917   2.927   2.934   2.988   3.002   3.010   3.035
114 A   115 A   116 A   115 B   116 B   117 A   118 A   117 B                  
  3.043   3.077   3.099   3.100   3.140   3.147   3.166   3.188
118 B   119 A   119 B   120 A   120 B   121 A   122 A   121 B                  
  3.213   3.221   3.225   3.241   3.251   3.271   3.277   3.284
122 B   123 A   123 B   124 A   124 B   125 B   125 A   126 A                  
  3.305   3.312   3.318   3.323   3.332   3.356   3.358   3.399
126 B   127 A   128 A   127 B   129 A   130 A   128 B   129 B                  
  3.408   3.411   3.429   3.439   3.442   3.448   3.468   3.477
130 B   131 A   132 A   133 A   131 B   134 A   132 B   135 A                  
  3.490   3.500   3.512   3.515   3.523   3.526   3.534   3.545
133 B   134 B   136 A   135 B   137 A   138 A   136 B   137 B                  
  3.552   3.566   3.566   3.586   3.588   3.601   3.641   3.671
138 B   139 B   139 A   140 A   140 B   141 A   141 B   142 B                  
  3.681   3.703   3.707   3.728   3.729   3.757   3.766   3.781
142 A   143 B   143 A   144 B   144 A   145 B   145 A   146 A                  
  3.823   3.840   3.880   3.884   3.888   3.898   3.934   3.965
147 A   146 B   148 A   147 B   149 A   148 B   149 B   150 A                  
  3.975   3.984   3.993   4.003   4.014   4.021   4.044   4.051
150 B   151 B   151 A   152 A   153 A   152 B   154 A   153 B                  
  4.079   4.126   4.130   4.139   4.166   4.170   4.185   4.188
155 A   154 B   155 B   156 A   157 A   156 B   157 B   158 A                  
  4.196   4.208   4.217   4.261   4.270   4.299   4.301   4.320
159 A   160 A   158 B   159 B   161 A   162 A   160 B   161 B                  
  4.343   4.356   4.425   4.450   4.458   4.474   4.490   4.493
162 B   163 A   163 B   164 A   165 A   164 B   165 B   166 A                  
  4.510   4.597   4.615   4.628   4.651   4.659   4.684   4.692
167 A   166 B   167 B   168 A   169 A   168 B   170 A   169 B                  
  4.699   4.731   4.742   4.763   4.805   4.835   4.850   4.861
171 A   172 A   170 B   171 B   173 A   174 A   175 A   172 B                  
  4.918   4.962   4.995   5.045   5.053   5.066   5.068   5.093
173 B   174 B   176 A   175 B   177 A   178 A   176 B   179 A                  
  5.148   5.160   5.185   5.246   5.254   5.292   5.328   5.356
177 B   178 B   180 A   179 B   180 B   181 A   182 A   181 B                  
  5.385   5.426   5.450   5.453   5.584   5.617   5.626   5.688
183 A   182 B   184 A   183 B   185 A   184 B   185 B   186 A                  
  5.793   5.881   5.980   6.083   6.087   6.145   6.152   6.246
187 A   186 B   188 A   187 B   189 A   190 A   188 B   189 B                  
  6.499   6.524   6.618   6.671   6.867   9.320  10.961  11.698
190 B   191 A   191 B   192 A   192 B   193 A   193 B   194 A                  
 12.448  13.244  14.036  14.391  15.149
194 B   195 A   195 B   196 A   196 B                                          
 --------------------------------------------------------------
 
          Ground-State Mulliken Net Atomic Charges

     Atom                 Charge (a.u.)
  ----------------------------------------
      1 S                     0.102294
      2 C                    -0.236466
      3 C                    -0.205980
      4 C                    -0.181424
      5 C                    -0.003703
      6 H                     0.164876
      7 C                    -0.003703
      8 S                     0.102294
      9 C                    -0.181424
     10 C                    -0.236466
     11 C                    -0.205980
     12 H                     0.173924
     13 H                     0.186479
     14 H                     0.173924
     15 H                     0.186479
     16 H                     0.164876
  ----------------------------------------
  Sum of atomic charges =     0.000000

 -----------------------------------------------------------------
                    Cartesian Multipole Moments
 -----------------------------------------------------------------
    Charge (ESU x 10^10)
                 0.0000
    Dipole Moment (Debye)
         X       0.0000      Y       0.0000      Z      -0.7377
       Tot       0.7377
    Quadrupole Moments (Debye-Ang)
        XX     -61.0052     XY       0.1048     YY     -78.0063
        XZ       0.0000     YZ      -0.0000     ZZ     -67.5287
    Octopole Moments (Debye-Ang^2)
       XXX       0.0000    XXY      -0.0000    XYY      -0.0000
       YYY       0.0000    XXZ       5.0749    XYZ      -2.7536
       YYZ       3.5071    XZZ       0.0000    YZZ       0.0000
       ZZZ      -8.1741
    Hexadecapole Moments (Debye-Ang^3)
      XXXX   -1823.8316   XXXY       4.0799   XXYY    -404.7486
      XYYY       4.1121   YYYY    -100.8104   XXXZ      -0.0000
      XXYZ      -0.0000   XYYZ       0.0000   YYYZ      -0.0000
      XXZZ    -395.8480   XYZZ       4.4497   YYZZ    -119.0876
      XZZZ       0.0000   YZZZ      -0.0000   ZZZZ    -538.1327
 -----------------------------------------------------------------
Archival summary:
1\1\nid01199\OPT\MP2\BasisUnspecified\286\MonMar616:54:292017MonMar616:54:292017\0\\#,OPT,MP2,BasisUnspecified,\\0,1\S\C,1,1.70659\H,2,1.07161,1,120.208\C,2,1.37263,1,111.342,3,-179.988,0\H,4,1.07434,2,123.059,1,179.931,0\C,4,1.40306,2,112.655,1,-0.376157,0\H,6,1.07504,4,124.239,2,-178.901,0\C,6,1.38031,4,113.218,2,0.00652123,0\C,8,1.43819,6,127.864,4,179.024,0\C,9,1.38031,8,127.864,6,-10,0\H,10,1.07504,9,122.534,8,-2.04747,0\C,10,1.40306,9,113.218,8,179.024,0\H,12,1.07434,10,124.285,9,179.695,0\C,12,1.37263,10,112.655,9,0.00652123,0\H,14,1.07161,12,128.45,10,179.637,0\S,14,1.70659,12,111.342,10,-0.376157,0\\HF=-1101.59711\MP2=-1103.41306\\@

 Total job time:  10449.33s(wall), 54704.49s(cpu) 
 Mon Mar  6 16:54:29 2017

        *************************************************************
        *                                                           *
        *  Thank you very much for using Q-Chem.  Have a nice day.  *
        *                                                           *
        *************************************************************


0 sent ACK to 0 
now end server 0 ... 
