srun -N 1 --ntasks-per-node 1 --cpus-per-task 64 --cpu_bind=cores --nodelist nid01282 /global/project/projectdirs/jcesr/qchem/qc44/cnl_qc441/dist/exe/qcprog.cori.haswell.exe .pt_mp2_-130.0.in.30458.qcin.1 /dev/shm/eg_qchem/qchem30458/
Process 0 of 1 is on nid01282 - thread support 0
initial socket setup ...start
initial socket setup ...done 
now start server 0 ... 
nid01282 10.128.5
Q-Chem Developer Version! Running on 10.128.5.*
                  Welcome to Q-Chem
     A Quantum Leap Into The Future Of Chemistry


 Q-Chem 4.4, Q-Chem, Inc., Pleasanton, CA (2016)

 Y. Shao,  Z. Gan,  E. Epifanovsky,  A. T. B. Gilbert,  M. Wormit,  
 J. Kussmann,  A. W. Lange,  A. Behn,  J. Deng,  X. Feng,  D. Ghosh,  
 M. Goldey,  P. R. Horn,  L. D. Jacobson,  I. Kaliman,  F.Rob,  
 R. Z. Khaliullin,  T. Kus,  A. Landau,  J. Liu,  E. I. Proynov,  Y. M. Rhee,  
 R. M. Richard,  M. A. Rohrdanz,  R. P. Steele,  E. J. Sundstrom,  
 H. L. Woodcock III,  P. M. Zimmerman,  D. Zuev,  B. Albrecht,  E. Alguire,  
 B. Austin,  S. A. Baeppler,  G. J. O. Beran,  Y. A. Bernard,  E. Berquist,  
 K. Brandhorst,  K. B. Bravaya,  S. T. Brown,  D. Casanova,  C.-M. Chang,  
 Y. Chen,  S. H. Chien,  K. D. Closser,  M. P. Coons,  D. L. Crittenden,  
 S. Dasgupta,  M. Diedenhofen,  R. A. DiStasio Jr.,  H. Do,  A. D. Dutoi,  
 R. G. Edgar,  P.-T. Fang,  S. Fatehi,  Q. Feng,  L. Fusti-Molnar,  
 A. Ghysels,  A. Golubeva-Zadorozhnaya,  J. Gomes,  A. Gunina,  
 M. W. D. Hanson-Heine,  P. H. P. Harbach,  A. W. Hauser,  E. G. Hohenstein,  
 Z. C. Holden,  K. Hui,  T.-C. Jagau,  H. Ji,  B. Kaduk,  K. Khistyaev,  
 Jaehoon Kim,  Jihan Kim,  R. A. King,  P. Klunzinger,  D. Kosenkov,  
 T. Kowalczyk,  C. M. Krauter,  A. Kunitsa,  K. U. Lao,  A. Laurent,  
 K. V. Lawler,  D. Lefrancois,  S. Lehtola,  S. V. Levchenko,  C. Y. Lin,  
 Y.-S. Lin,  F. Liu,  E. Livshits,  R. C. Lochan,  A. Luenser,  P. Manohar,  
 S. F. Manzer,  S.-P. Mao,  Y. Mao,  N. Mardirossian,  A. V. Marenich,  
 L. A. Martinez-Martinez,  S. A. Maurer,  N. J. Mayhall,  J.-M. Mewes,  
 A. F. Morrison,  K. Nanda,  C. M. Oana,  R. Olivares-Amaya,  D. P. O'Neill,  
 J. A. Parkhill,  T. M. Perrine,  R. Peverati,  P. A. Pieniazek,  F. Plasser,  
 A. Prociuk,  D. R. Rehn,  E. Rosta,  N. J. Russ,  N. Sergueev,  
 S. M. Sharada,  S. Sharma,  D. W. Small,  A. Sodt,  T. Stauch,  T. Stein,  
 D. Stuck,  Y.-C. Su,  A. J. W. Thom,  T. Tsuchimochi,  L. Vogt,  O. Vydrov,  
 T. Wang,  M. A. Watson,  J. Wenzel,  A. White,  C. F. Williams,  
 V. Vanovschi,  S. Yeganeh,  S. R. Yost,  Z.-Q. You,  I. Y. Zhang,  X. Zhang,  
 Y. Zhao,  B. R. Brooks,  G. K. L. Chan,  D. M. Chipman,  C. J. Cramer,  
 W. A. Goddard III,  M. S. Gordon,  W. J. Hehre,  A. Klamt,  
 H. F. Schaefer III,  M. W. Schmidt,  C. D. Sherrill,  D. G. Truhlar,  
 A. Warshel,  X. Xu,  A. Aspuru-Guzik,  R. Baer,  A. T. Bell,  N. A. Besley,  
 J.-D. Chai,  A. Dreuw,  B. D. Dunietz,  T. R. Furlani,  S. R. Gwaltney,  
 C.-P. Hsu,  Y. Jung,  J. Kong,  D. S. Lambrecht,  W. Liang,  C. Ochsenfeld,  
 V. A. Rassolov,  L. V. Slipchenko,  J. E. Subotnik,  T. Van Voorhis,  
 J. M. Herbert,  A. I. Krylov,  P. M. W. Gill,  M. Head-Gordon

 Contributors to earlier versions of Q-Chem not listed above: 
 R. D. Adamson,  J. Baker,  E. F. C. Byrd,  A. K. Chakraborty,  C.-L. Cheng,  
 H. Dachsel,  R. J. Doerksen,  G. Hawkins,  A. Heyden,  S. Hirata,  
 G. Kedziora,  F. J. Keil,  C. Kelley,  P. P. Korambath,  W. Kurlancheek,  
 A. M. Lee,  M. S. Lee,  D. Liotard,  I. Lotan,  P. E. Maslen,  N. Nair,  
 D. Neuhauser,  R. Olson,  B. Peters,  J. Ritchie,  N. E. Schultz,  
 N. Shenvi,  A. C. Simmonett,  K. S. Thanthiriwatte,  Q. Wu,  W. Zhang

 Please cite Q-Chem as follows:
 Y. Shao et al., Mol. Phys. 113, 184-215 (2015)
 DOI: 10.1080/00268976.2014.952696

 Q-Chem 4.4.1 for Intel X86 EM64T Linux

 Parts of Q-Chem use Armadillo 5.200.1 (Boston Tea Smuggler).
 http://arma.sourceforge.net/

 Q-Chem begins on Mon Mar  6 14:00:25 2017  

Host: nid01196
0

     Scratch files written to /dev/shm/eg_qchem/qchem30458//
 Parallel job on  1  processors

Checking the input file for inconsistencies... 	...done.

--------------------------------------------------------------
User input:
--------------------------------------------------------------
$molecule
 0  1
 S           1.80900300       -1.15938900        0.25896800
 C           3.16466000       -0.14246800        0.05606700
 C           2.78757500        1.14089100       -0.25226100
 C           1.39402000        1.28822000       -0.33563400
 C           0.70898100        0.11689900       -0.08798100
 H           0.89277600        2.20524100       -0.58940400
 C          -0.70898100       -0.11689900       -0.08798100
 S          -1.68384184        0.40029881       -1.40763468
 C          -1.48557010       -0.73297760        0.87116438
 C          -3.10539749       -0.21695331       -0.69259455
 C          -2.84573480       -0.78815750        0.52829473
 H          -3.60757024       -1.23400365        1.14065938
 H           4.15569300       -0.53353100        0.17259300
 H           3.49202900        1.93475000       -0.41867900
 H          -4.04637612       -0.12946521       -1.19812402
 H          -1.06765546       -1.14461418        1.77253830
$end


$rem
         jobtype = opt
        exchange = hf
           basis = cc-pvtz
  max_scf_cycles = 100
      mem_static = 6200
       mem_total = 62000
          method = mp2
$end


$opt
CONSTRAINT
tors 4 5 7 9 -130.0
ENDCONSTRAINT
$end

--------------------------------------------------------------
 Atom   9: ( -1.4314977762, -1.1871075880,  0.6009063498)
         ->( -1.4314977755, -1.1871075840,  0.6009063534)
 Atom  15: ( -4.1294530866,  0.5259612710, -0.3942526260)
         ->( -4.1294530828,  0.5259612765, -0.3942526226)
 ----------------------------------------------------------------
             Standard Nuclear Orientation (Angstroms)
    I     Atom           X                Y                Z
 ----------------------------------------------------------------
    1      S       1.7702476336    -1.1039756445    -0.4727502115
    2      C       3.1535143336    -0.1589437977    -0.1462673132
    3      C       2.8175311211     1.0381170681     0.4354801751
    4      C       1.4314977755     1.1871075840     0.6009063534
    5      C       0.7113285630     0.1016420657     0.1473380135
    6      H       0.9578912181     2.0599375193     1.0137465254
    7      C      -0.7113285637    -0.1016420654     0.1473380129
    8      S      -1.7702476335     1.1039756452    -0.4727502121
    9      C      -1.4314977755    -1.1871075840     0.6009063534
   10      C      -3.1535143315     0.1589437986    -0.1462673117
   11      C      -2.8175311219    -1.0381170667     0.4354801772
   12      H      -3.5446723804    -1.7760937505     0.7197661179
   13      H       4.1294530828    -0.5259612765    -0.3942526226
   14      H       3.5446723842     1.7760937523     0.7197661191
   15      H      -4.1294530828     0.5259612765    -0.3942526226
   16      H      -0.9578912195    -2.0599375173     1.0137465223
 ----------------------------------------------------------------
 Molecular Point Group                 C2    NOp =  2
 Largest Abelian Subgroup              C2    NOp =  2
 Nuclear Repulsion Energy =   636.0634944252 hartrees
 There are       43 alpha and       43 beta electrons
 Requested basis set is cc-pVTZ
 There are 140 shells and 392 basis functions

 Total QAlloc Memory Limit  62000 MB
 Mega-Array Size      6061 MB
 MEM_STATIC part      6200 MB
 A cutoff of  1.0D-11 yielded   8031 shell pairs
 There are     62491 function pairs (     81458 Cartesian)
 
 -------------------------------------------------------
 OpenMP Integral Computing Module                       
 Release: version 1.0, May 2013, Q-Chem Inc. Pittsburgh 
 -------------------------------------------------------
 Integral Job Info:
 Integral job number is                      11
 Integral operator is                         1
 short-range coefficients                     0
 long-range coefficients              100000000
 Omega coefficients                           0
 if combine SR and LR in K                    0
 Integral screening is                        0
 Integral computing path is                   2
 max size of driver memory is            800000
 size of driver memory is                776718
 size of scratch memory is             26248924
 max col of scratch BK array              10000
 max len of scratch array in speh3          662
 max len of scratch index in speh4           32
 max int batch size is                      520
 min int batch size is                       52
 fixed nKL is                                52
 max L of basis functions is                  3
 order of int derivative is                   0
 number of shells is                        140
 number of basis is                         448
 number of cartesian basis is               448
 number of contracted shell pairs          8031
 number of primitive shell pairs          28577
 maxK2 (contraction) of shell pair          121
 max number of K2 of shell pair               1
 max number of CS2 of shell pair           1060
 max number of PS2 of shell pair           3094
 mem total for path MDJ                  223748
 -------------------------------------------------------
 Smallest overlap matrix eigenvalue = 8.67E-05

 Scale SEOQF with 1.000000e-01/1.000000e-01/1.000000e+00

 Standard Electronic Orientation quadrupole field applied
 Nucleus-field energy     =     0.0000000016 hartrees
 Guess from superposition of atomic densities
 Warning:  Energy on first SCF cycle will be non-variational
 A restricted Hartree-Fock SCF calculation will be
 performed using Pulay DIIS extrapolation
 SCF converges when DIIS error is below 1.0E-08
 using 16 threads for integral computing 
 ---------------------------------------
  Cycle       Energy         DIIS Error
 ---------------------------------------
    1   -1106.0021632414      3.00E-02
    2   -1084.9470151572      1.97E-02
    3   -1098.2284139354      8.31E-03
    4   -1101.2918885276      3.67E-03
    5   -1101.5359293756      1.71E-03
    6   -1101.5949582835      3.04E-04
    7   -1101.5977240614      1.06E-04
    8   -1101.5981994509      3.96E-05
    9   -1101.5982716309      1.15E-05
   10   -1101.5982809722      3.85E-06
   11   -1101.5982819493      1.61E-06
   12   -1101.5982821066      5.52E-07
   13   -1101.5982821310      2.09E-07
   14   -1101.5982821365      8.05E-08
   15   -1101.5982821382      2.86E-08
   16   -1101.5982821363      8.76E-09 Convergence criterion met
 ---------------------------------------
 SCF time:  CPU 656.00 s  wall 41.05 s
 SCF   energy in the final basis set = -1101.5982821363
 Total energy in the final basis set = -1101.5982821363
 
 Components of the MP2 correlation energy:
        aaaa  correlation energy =        -0.2322305854 au
        abab  correlation energy =        -1.3502998866 au
        bbbb  correlation energy =        -0.2322305854 au
        non-Brillouin singles    =        -0.0000000000 au

 Total  MP2   correlation energy =        -1.8147610575 au
        MP2         total energy =     -1103.4130431938 au

  Entering Z-vector solver.
   1         0           1      0.000264    0.000264
   2         0           1      0.000116    0.000116
   3         0           1      0.000049    0.000049
   4         0           1      0.000025    0.000025
   5         0           1      0.000006    0.000006
   6         0           1      0.000002    0.000002
   7         1           0      0.000000    0.000000    Roots Converged
 
 --------------------------------------------------------------
             Orbital Energies (a.u.) and Symmetries
 --------------------------------------------------------------
 
 Alpha MOs, Restricted
 -- Occupied --                  
-91.985 -91.985 -11.274 -11.273 -11.261 -11.261 -11.238 -11.238
  1 A     1 B     2 A     2 B     3 B     3 A     4 A     4 B                  
-11.237 -11.237  -8.986  -8.986  -6.667  -6.667  -6.667  -6.667
  5 B     5 A     6 B     6 A     7 B     7 A     8 A     8 B                  
 -6.666  -6.666  -1.196  -1.166  -1.035  -0.997  -0.987  -0.948
  9 B     9 A    10 A    10 B    11 A    11 B    12 A    12 B                  
 -0.809  -0.775  -0.750  -0.718  -0.705  -0.645  -0.571  -0.571
 13 A    13 B    14 A    14 B    15 A    15 B    16 A    16 B                  
 -0.562  -0.555  -0.543  -0.513  -0.511  -0.480  -0.470  -0.358
 17 A    17 B    18 A    18 B    19 A    19 B    20 A    21 A                  
 -0.351  -0.349  -0.292
 22 A    20 B    21 B                                                          
 -- Virtual --                   
  0.086   0.133   0.149   0.154   0.161   0.170   0.184   0.187
 23 A    22 B    23 B    24 A    25 A    24 B    25 B    26 A                  
  0.193   0.199   0.213   0.232   0.245   0.259   0.321   0.331
 27 A    26 B    28 A    27 B    28 B    29 A    29 B    30 A                  
  0.351   0.351   0.364   0.373   0.398   0.404   0.427   0.433
 31 A    30 B    31 B    32 A    33 A    32 B    33 B    34 A                  
  0.443   0.447   0.456   0.463   0.475   0.494   0.513   0.517
 35 A    34 B    35 B    36 A    37 A    36 B    37 B    38 A                  
  0.522   0.522   0.532   0.541   0.546   0.550   0.558   0.565
 38 B    39 A    39 B    40 A    40 B    41 A    41 B    42 B                  
  0.571   0.592   0.597   0.599   0.606   0.612   0.623   0.625
 42 A    43 A    44 A    43 B    44 B    45 A    45 B    46 A                  
  0.638   0.645   0.650   0.669   0.677   0.679   0.704   0.704
 46 B    47 B    47 A    48 A    49 A    48 B    50 A    49 B                  
  0.763   0.769   0.778   0.789   0.810   0.835   0.838   0.839
 51 A    50 B    51 B    52 A    52 B    53 B    54 B    53 A                  
  0.860   0.873   0.886   0.899   0.905   0.907   0.939   0.942
 55 B    54 A    55 A    56 B    56 A    57 A    57 B    58 A                  
  0.981   1.002   1.004   1.021   1.022   1.027   1.070   1.080
 59 A    58 B    60 A    59 B    61 A    60 B    61 B    62 A                  
  1.097   1.105   1.108   1.109   1.149   1.150   1.174   1.176
 62 B    63 A    64 A    63 B    65 A    64 B    66 A    65 B                  
  1.189   1.192   1.208   1.220   1.238   1.253   1.269   1.288
 66 B    67 A    67 B    68 A    68 B    69 A    69 B    70 A                  
  1.292   1.315   1.342   1.359   1.382   1.386   1.408   1.440
 70 B    71 A    72 A    71 B    73 A    72 B    73 B    74 A                  
  1.458   1.474   1.475   1.494   1.495   1.508   1.516   1.532
 74 B    75 A    75 B    76 A    76 B    77 B    77 A    78 A                  
  1.534   1.557   1.567   1.582   1.594   1.617   1.627   1.641
 78 B    79 A    79 B    80 A    80 B    81 A    81 B    82 A                  
  1.678   1.698   1.721   1.731   1.754   1.764   1.773   1.841
 82 B    83 B    83 A    84 B    84 A    85 B    85 A    86 A                  
  1.844   1.846   1.855   1.893   1.900   1.929   1.938   1.939
 86 B    87 A    87 B    88 B    88 A    89 B    89 A    90 B                  
  1.951   1.993   2.045   2.058   2.068   2.092   2.125   2.152
 90 A    91 B    91 A    92 B    92 A    93 A    93 B    94 A                  
  2.174   2.182   2.205   2.211   2.234   2.248   2.263   2.273
 95 A    94 B    95 B    96 B    96 A    97 A    97 B    98 A                  
  2.282   2.319   2.333   2.387   2.402   2.437   2.448   2.455
 98 B    99 B    99 A   100 B   100 A   101 A   102 A   101 B                  
  2.481   2.490   2.523   2.528   2.529   2.563   2.579   2.593
102 B   103 A   103 B   104 A   104 B   105 B   105 A   106 A                  
  2.637   2.683   2.691   2.705   2.711   2.719   2.760   2.763
106 B   107 B   107 A   108 B   109 B   108 A   109 A   110 B                  
  2.766   2.767   2.780   2.794   2.795   2.853   2.892   2.897
110 A   111 B   111 A   112 B   112 A   113 A   113 B   114 A                  
  2.909   2.923   2.939   2.963   3.011   3.015   3.019   3.021
114 B   115 B   115 A   116 A   116 B   117 A   117 B   118 A                  
  3.027   3.051   3.062   3.128   3.156   3.158   3.169   3.187
118 B   119 A   119 B   120 A   121 A   120 B   122 A   121 B                  
  3.203   3.212   3.246   3.256   3.259   3.271   3.272   3.287
123 A   122 B   124 A   123 B   125 A   126 A   124 B   125 B                  
  3.301   3.321   3.337   3.338   3.342   3.347   3.378   3.387
127 A   126 B   128 A   127 B   129 A   128 B   129 B   130 A                  
  3.402   3.431   3.435   3.443   3.451   3.458   3.467   3.484
130 B   131 B   131 A   132 A   132 B   133 A   134 A   133 B                  
  3.486   3.493   3.501   3.509   3.512   3.522   3.532   3.542
135 A   134 B   136 A   135 B   137 A   136 B   137 B   138 A                  
  3.543   3.567   3.578   3.592   3.599   3.606   3.636   3.660
138 B   139 A   140 A   139 B   141 A   142 A   140 B   141 B                  
  3.703   3.704   3.724   3.728   3.736   3.776   3.779   3.784
143 A   142 B   143 B   144 A   145 A   144 B   146 A   145 B                  
  3.839   3.845   3.860   3.886   3.888   3.912   3.920   3.926
146 B   147 A   147 B   148 B   148 A   149 A   150 A   149 B                  
  3.976   3.976   4.000   4.003   4.014   4.025   4.045   4.047
150 B   151 A   152 A   151 B   152 B   153 A   154 A   153 B                  
  4.082   4.119   4.123   4.134   4.152   4.171   4.180   4.188
154 B   155 B   155 A   156 A   156 B   157 A   157 B   158 A                  
  4.213   4.218   4.225   4.261   4.280   4.286   4.308   4.331
158 B   159 A   160 A   159 B   161 A   160 B   161 B   162 A                  
  4.358   4.364   4.375   4.412   4.424   4.462   4.523   4.535
162 B   163 A   164 A   163 B   164 B   165 A   166 A   165 B                  
  4.548   4.567   4.605   4.607   4.650   4.667   4.693   4.693
166 B   167 A   168 A   167 B   168 B   169 A   169 B   170 A                  
  4.713   4.739   4.756   4.777   4.791   4.821   4.836   4.885
170 B   171 A   171 B   172 B   172 A   173 A   173 B   174 B                  
  4.896   4.958   4.983   5.020   5.032   5.059   5.064   5.084
174 A   175 A   175 B   176 B   176 A   177 B   177 A   178 B                  
  5.085   5.111   5.195   5.246   5.250   5.295   5.313   5.382
178 A   179 A   179 B   180 A   180 B   181 B   181 A   182 A                  
  5.396   5.416   5.429   5.504   5.560   5.602   5.646   5.671
182 B   183 A   183 B   184 A   184 B   185 A   186 A   185 B                  
  5.773   5.919   5.943   6.050   6.089   6.139   6.175   6.217
186 B   187 A   187 B   188 A   188 B   189 A   189 B   190 B                  
  6.235   6.545   6.567   6.732   6.745   9.524  10.778  11.807
190 A   191 A   191 B   192 A   192 B   193 A   193 B   194 A                  
 12.292  13.540  13.626  14.624  14.648
194 B   195 A   195 B   196 B   196 A                                          
 
 Beta MOs, Restricted
 -- Occupied --                  
-91.985 -91.985 -11.274 -11.273 -11.261 -11.261 -11.238 -11.238
  1 A     1 B     2 A     2 B     3 B     3 A     4 A     4 B                  
-11.237 -11.237  -8.986  -8.986  -6.667  -6.667  -6.667  -6.667
  5 B     5 A     6 B     6 A     7 B     7 A     8 A     8 B                  
 -6.666  -6.666  -1.196  -1.166  -1.035  -0.997  -0.987  -0.948
  9 B     9 A    10 A    10 B    11 A    11 B    12 A    12 B                  
 -0.809  -0.775  -0.750  -0.718  -0.705  -0.645  -0.571  -0.571
 13 A    13 B    14 A    14 B    15 A    15 B    16 A    16 B                  
 -0.562  -0.555  -0.543  -0.513  -0.511  -0.480  -0.470  -0.358
 17 A    17 B    18 A    18 B    19 A    19 B    20 A    21 A                  
 -0.351  -0.349  -0.292
 22 A    20 B    21 B                                                          
 -- Virtual --                   
  0.086   0.133   0.149   0.154   0.161   0.170   0.184   0.187
 23 A    22 B    23 B    24 A    25 A    24 B    25 B    26 A                  
  0.193   0.199   0.213   0.232   0.245   0.259   0.321   0.331
 27 A    26 B    28 A    27 B    28 B    29 A    29 B    30 A                  
  0.351   0.351   0.364   0.373   0.398   0.404   0.427   0.433
 31 A    30 B    31 B    32 A    33 A    32 B    33 B    34 A                  
  0.443   0.447   0.456   0.463   0.475   0.494   0.513   0.517
 35 A    34 B    35 B    36 A    37 A    36 B    37 B    38 A                  
  0.522   0.522   0.532   0.541   0.546   0.550   0.558   0.565
 38 B    39 A    39 B    40 A    40 B    41 A    41 B    42 B                  
  0.571   0.592   0.597   0.599   0.606   0.612   0.623   0.625
 42 A    43 A    44 A    43 B    44 B    45 A    45 B    46 A                  
  0.638   0.645   0.650   0.669   0.677   0.679   0.704   0.704
 46 B    47 B    47 A    48 A    49 A    48 B    50 A    49 B                  
  0.763   0.769   0.778   0.789   0.810   0.835   0.838   0.839
 51 A    50 B    51 B    52 A    52 B    53 B    54 B    53 A                  
  0.860   0.873   0.886   0.899   0.905   0.907   0.939   0.942
 55 B    54 A    55 A    56 B    56 A    57 A    57 B    58 A                  
  0.981   1.002   1.004   1.021   1.022   1.027   1.070   1.080
 59 A    58 B    60 A    59 B    61 A    60 B    61 B    62 A                  
  1.097   1.105   1.108   1.109   1.149   1.150   1.174   1.176
 62 B    63 A    64 A    63 B    65 A    64 B    66 A    65 B                  
  1.189   1.192   1.208   1.220   1.238   1.253   1.269   1.288
 66 B    67 A    67 B    68 A    68 B    69 A    69 B    70 A                  
  1.292   1.315   1.342   1.359   1.382   1.386   1.408   1.440
 70 B    71 A    72 A    71 B    73 A    72 B    73 B    74 A                  
  1.458   1.474   1.475   1.494   1.495   1.508   1.516   1.532
 74 B    75 A    75 B    76 A    76 B    77 B    77 A    78 A                  
  1.534   1.557   1.567   1.582   1.594   1.617   1.627   1.641
 78 B    79 A    79 B    80 A    80 B    81 A    81 B    82 A                  
  1.678   1.698   1.721   1.731   1.754   1.764   1.773   1.841
 82 B    83 B    83 A    84 B    84 A    85 B    85 A    86 A                  
  1.844   1.846   1.855   1.893   1.900   1.929   1.938   1.939
 86 B    87 A    87 B    88 B    88 A    89 B    89 A    90 B                  
  1.951   1.993   2.045   2.058   2.068   2.092   2.125   2.152
 90 A    91 B    91 A    92 B    92 A    93 A    93 B    94 A                  
  2.174   2.182   2.205   2.211   2.234   2.248   2.263   2.273
 95 A    94 B    95 B    96 B    96 A    97 A    97 B    98 A                  
  2.282   2.319   2.333   2.387   2.402   2.437   2.448   2.455
 98 B    99 B    99 A   100 B   100 A   101 A   102 A   101 B                  
  2.481   2.490   2.523   2.528   2.529   2.563   2.579   2.593
102 B   103 A   103 B   104 A   104 B   105 B   105 A   106 A                  
  2.637   2.683   2.691   2.705   2.711   2.719   2.760   2.763
106 B   107 B   107 A   108 B   109 B   108 A   109 A   110 B                  
  2.766   2.767   2.780   2.794   2.795   2.853   2.892   2.897
110 A   111 B   111 A   112 B   112 A   113 A   113 B   114 A                  
  2.909   2.923   2.939   2.963   3.011   3.015   3.019   3.021
114 B   115 B   115 A   116 A   116 B   117 A   117 B   118 A                  
  3.027   3.051   3.062   3.128   3.156   3.158   3.169   3.187
118 B   119 A   119 B   120 A   121 A   120 B   122 A   121 B                  
  3.203   3.212   3.246   3.256   3.259   3.271   3.272   3.287
123 A   122 B   124 A   123 B   125 A   126 A   124 B   125 B                  
  3.301   3.321   3.337   3.338   3.342   3.347   3.378   3.387
127 A   126 B   128 A   127 B   129 A   128 B   129 B   130 A                  
  3.402   3.431   3.435   3.443   3.451   3.458   3.467   3.484
130 B   131 B   131 A   132 A   132 B   133 A   134 A   133 B                  
  3.486   3.493   3.501   3.509   3.512   3.522   3.532   3.542
135 A   134 B   136 A   135 B   137 A   136 B   137 B   138 A                  
  3.543   3.567   3.578   3.592   3.599   3.606   3.636   3.660
138 B   139 A   140 A   139 B   141 A   142 A   140 B   141 B                  
  3.703   3.704   3.724   3.728   3.736   3.776   3.779   3.784
143 A   142 B   143 B   144 A   145 A   144 B   146 A   145 B                  
  3.839   3.845   3.860   3.886   3.888   3.912   3.920   3.926
146 B   147 A   147 B   148 B   148 A   149 A   150 A   149 B                  
  3.976   3.976   4.000   4.003   4.014   4.025   4.045   4.047
150 B   151 A   152 A   151 B   152 B   153 A   154 A   153 B                  
  4.082   4.119   4.123   4.134   4.152   4.171   4.180   4.188
154 B   155 B   155 A   156 A   156 B   157 A   157 B   158 A                  
  4.213   4.218   4.225   4.261   4.280   4.286   4.308   4.331
158 B   159 A   160 A   159 B   161 A   160 B   161 B   162 A                  
  4.358   4.364   4.375   4.412   4.424   4.462   4.523   4.535
162 B   163 A   164 A   163 B   164 B   165 A   166 A   165 B                  
  4.548   4.567   4.605   4.607   4.650   4.667   4.693   4.693
166 B   167 A   168 A   167 B   168 B   169 A   169 B   170 A                  
  4.713   4.739   4.756   4.777   4.791   4.821   4.836   4.885
170 B   171 A   171 B   172 B   172 A   173 A   173 B   174 B                  
  4.896   4.958   4.983   5.020   5.032   5.059   5.064   5.084
174 A   175 A   175 B   176 B   176 A   177 B   177 A   178 B                  
  5.085   5.111   5.195   5.246   5.250   5.295   5.313   5.382
178 A   179 A   179 B   180 A   180 B   181 B   181 A   182 A                  
  5.396   5.416   5.429   5.504   5.560   5.602   5.646   5.671
182 B   183 A   183 B   184 A   184 B   185 A   186 A   185 B                  
  5.773   5.919   5.943   6.050   6.089   6.139   6.175   6.217
186 B   187 A   187 B   188 A   188 B   189 A   189 B   190 B                  
  6.235   6.545   6.567   6.732   6.745   9.524  10.778  11.807
190 A   191 A   191 B   192 A   192 B   193 A   193 B   194 A                  
 12.292  13.540  13.626  14.624  14.648
194 B   195 A   195 B   196 B   196 A                                          
 --------------------------------------------------------------
 
          Ground-State Mulliken Net Atomic Charges

     Atom                 Charge (a.u.)
  ----------------------------------------
      1 S                     0.120696
      2 C                    -0.238276
      3 C                    -0.191470
      4 C                    -0.213876
      5 C                    -0.009514
      6 H                     0.174227
      7 C                    -0.009514
      8 S                     0.120696
      9 C                    -0.213874
     10 C                    -0.238276
     11 C                    -0.191470
     12 H                     0.174263
     13 H                     0.183949
     14 H                     0.174262
     15 H                     0.183949
     16 H                     0.174228
  ----------------------------------------
  Sum of atomic charges =    -0.000000

 -----------------------------------------------------------------
                    Cartesian Multipole Moments
 -----------------------------------------------------------------
    Charge (ESU x 10^10)
                -0.0000
    Dipole Moment (Debye)
         X       0.0000      Y       0.0000      Z       0.2480
       Tot       0.2480
    Quadrupole Moments (Debye-Ang)
        XX     -61.3155     XY       1.0438     YY     -69.5217
        XZ      -0.0000     YZ      -0.0000     ZZ     -76.1889
    Octopole Moments (Debye-Ang^2)
       XXX       0.0000    XXY       0.0000    XYY       0.0000
       YYY       0.0000    XXZ      -5.9124    XYZ       9.4705
       YYZ       5.3551    XZZ      -0.0000    YZZ       0.0000
       ZZZ      -3.9318
    Hexadecapole Moments (Debye-Ang^3)
      XXXX   -1834.7082   XXXY     -13.5956   XXYY    -406.3566
      XYYY       7.9933   YYYY    -485.5913   XXXZ      -0.0000
      XXYZ      -0.0000   XYYZ      -0.0000   YYYZ       0.0000
      XXZZ    -405.2800   XYZZ      -3.1431   YYZZ    -109.5923
      XZZZ      -0.0000   YZZZ       0.0000   ZZZZ    -185.8074
 -----------------------------------------------------------------
 DrvMan is completing analytic gradient of the MP2 energy
 MP2 relaxed dipole moment
            1
    1   0.0000000
    2   0.0000000
    3   0.0975784
	Magnitude:	 0.098 au	 0.248 Debye
 MP2 energy read as -1103.413043
 Full Analytical Gradient of MP2 Energy (in au.)
             1             2             3             4             5
    1   -0.00004911    0.00029010    0.00008165    0.00060505   -0.00384353
    2   -0.00113975    0.00167818   -0.00088281   -0.00142107    0.00008750
    3    0.00076215   -0.00113684    0.00149751    0.00317310   -0.00212540
             6             7             8             9            10
    1    0.00017784    0.00384352    0.00004911   -0.00060505   -0.00029009
    2    0.00088098   -0.00008750    0.00113975    0.00142107   -0.00167818
    3   -0.00129930   -0.00212540    0.00076215    0.00317310   -0.00113684
            11            12            13            14            15
    1   -0.00008165    0.00004202   -0.00019969   -0.00004201    0.00019969
    2    0.00088280   -0.00003336    0.00025905    0.00003336   -0.00025905
    3    0.00149751   -0.00007411   -0.00079710   -0.00007411   -0.00079710
            16
    1   -0.00017784
    2   -0.00088098
    3   -0.00129930
 Gradient time:  CPU 1.51 s  wall 0.10 s
 Geometry Optimization Parameters
   NAtoms,    NIC,     NZ,  NCons,   NDum,   NFix, NCnnct, MaxDiis
       16     111       0       1       0       0       0       0


** CONSTRAINED OPTIMIZATION IN DELOCALIZED INTERNAL COORDINATES **
   Searching for a Minimum

   Optimization Cycle:   1

                       Coordinates (Angstroms)
     ATOM                X               Y               Z
      1  S         1.7702476335   -1.1039756449   -0.4727502118
      2  C         3.1535143325   -0.1589437981   -0.1462673125
      3  C         2.8175311215    1.0381170674    0.4354801761
      4  C         1.4314977755    1.1871075840    0.6009063534
      5  C         0.7113285634    0.1016420656    0.1473380132
      6  H         0.9578912188    2.0599375183    1.0137465239
      7  C        -0.7113285634   -0.1016420656    0.1473380132
      8  S        -1.7702476335    1.1039756449   -0.4727502118
      9  C        -1.4314977755   -1.1871075840    0.6009063534
     10  C        -3.1535143325    0.1589437981   -0.1462673125
     11  C        -2.8175311215   -1.0381170674    0.4354801761
     12  H        -3.5446723823   -1.7760937514    0.7197661185
     13  H         4.1294530828   -0.5259612765   -0.3942526226
     14  H         3.5446723823    1.7760937514    0.7197661185
     15  H        -4.1294530828    0.5259612765   -0.3942526226
     16  H        -0.9578912188   -2.0599375183    1.0137465239
   Point Group: c2    Number of degrees of freedom:    22


   Energy is  -1103.413043194

              Constraints and their Current Values
                                        Value     Constraint
   Dihedral:        4   5   7   9     -130.000     -130.000

 Attempting to Generate Delocalized Internal Coordinates

 21 Hessian modes will be used to form the next step
  Hessian Eigenvalues:
     0.045000    0.045000    0.045000    0.045002    0.045003    0.045012
     0.159945    0.159993    0.160000    0.221308    0.238060    0.249999
     0.326324    0.340049    0.365509    0.366895    0.370094    0.399848
     0.435412    0.463135    0.495504

 Minimum Search - Taking Simple RFO Step
 Searching for Lamda that Minimizes Along All modes
 Value Taken    Lamda =  -0.00045492
 Step Taken.  Stepsize is  0.096657

                             Maximum     Tolerance    Cnvgd?
         Gradient           0.002684      0.000300      NO
         Displacement       0.064478      0.001200      NO
         Energy change     *********      0.000001      NO


 New Cartesian Coordinates Obtained by Inverse Iteration

 Displacement from previous Coordinates is:  0.189448
 ----------------------------------------------------------------
             Standard Nuclear Orientation (Angstroms)
    I     Atom           X                Y                Z
 ----------------------------------------------------------------
    1      S       1.7767310362    -1.0998575030    -0.4849483662
    2      C       3.1579394446    -0.1652525662    -0.1262948176
    3      C       2.8153322959     1.0420428309     0.4311496378
    4      C       1.4272755251     1.1936254016     0.5791437393
    5      C       0.7128156157     0.1052914145     0.1257760055
    6      H       0.9480230019     2.0612293186     0.9959485311
    7      C      -0.7128156157    -0.1052914145     0.1257760055
    8      S      -1.7767310362     1.0998575030    -0.4849483662
    9      C      -1.4272755251    -1.1936254016     0.5791437393
   10      C      -3.1579394446     0.1652525662    -0.1262948176
   11      C      -2.8153322959    -1.0420428309     0.4311496378
   12      H      -3.5404233649    -1.7773925246     0.7273687861
   13      H       4.1377422922    -0.5413260468    -0.3441764779
   14      H       3.5404233649     1.7773925246     0.7273687861
   15      H      -4.1377422922     0.5413260468    -0.3441764779
   16      H      -0.9480230019    -2.0612293186     0.9959485311
 ----------------------------------------------------------------
 Molecular Point Group                 C2    NOp =  2
 Largest Abelian Subgroup              C2    NOp =  2
 Nuclear Repulsion Energy =   635.9261891594 hartrees
 There are       43 alpha and       43 beta electrons
 Applying Cartesian multipole field
    Component          Value
    ---------          -----
     (2,0,0)        1.00000E-11
     (0,2,0)        2.00000E-11
     (0,0,2)       -3.00000E-10
 Nucleus-field energy     =     0.0000000019 hartrees
 Requested basis set is cc-pVTZ
 There are 140 shells and 392 basis functions
 A cutoff of  1.0D-11 yielded   8029 shell pairs
 There are     62445 function pairs (     81406 Cartesian)
 Smallest overlap matrix eigenvalue = 8.82E-05
 Guess MOs from SCF MO coefficient file
 Reading MOs from coefficient file
 Reading MOs from coefficient file
 A restricted Hartree-Fock SCF calculation will be
 performed using Pulay DIIS extrapolation
 SCF converges when DIIS error is below 1.0E-08
 Geometry optimization detected.  Setting ReadMinima to 0
 Setting SaveMinima to 0
 using 16 threads for integral computing 
 ---------------------------------------
  Cycle       Energy         DIIS Error
 ---------------------------------------
    1   -1101.5971593056      4.13E-04
    2   -1101.5985873517      4.81E-05
    3   -1101.5986981646      1.78E-05
    4   -1101.5987184752      6.34E-06
    5   -1101.5987204731      2.44E-06
    6   -1101.5987208184      9.98E-07
    7   -1101.5987208760      4.42E-07
    8   -1101.5987208841      1.67E-07
    9   -1101.5987208860      6.39E-08
   10   -1101.5987208862      2.10E-08
   11   -1101.5987208857      7.02E-09 Convergence criterion met
 ---------------------------------------
 SCF time:  CPU 723.98 s  wall 45.28 s
 SCF   energy in the final basis set = -1101.5987208857
 Total energy in the final basis set = -1101.5987208857
 
 Components of the MP2 correlation energy:
        aaaa  correlation energy =        -0.2322161269 au
        abab  correlation energy =        -1.3502117341 au
        bbbb  correlation energy =        -0.2322161269 au
        non-Brillouin singles    =        -0.0000000000 au

 Total  MP2   correlation energy =        -1.8146439878 au
        MP2         total energy =     -1103.4133648734 au

  Entering Z-vector solver.
   1         0           1      0.000264    0.000264
   2         0           1      0.000116    0.000116
   3         0           1      0.000049    0.000049
   4         0           1      0.000024    0.000024
   5         0           1      0.000006    0.000006
   6         0           1      0.000002    0.000002
   7         1           0      0.000000    0.000000    Roots Converged
 
 --------------------------------------------------------------
             Orbital Energies (a.u.) and Symmetries
 --------------------------------------------------------------
 
 Alpha MOs, Restricted
 -- Occupied --                  
-91.985 -91.985 -11.274 -11.273 -11.261 -11.261 -11.238 -11.238
  1 A     1 B     2 A     2 B     3 B     3 A     4 A     4 B                  
-11.237 -11.237  -8.986  -8.986  -6.667  -6.667  -6.667  -6.667
  5 B     5 A     6 B     6 A     7 B     7 A     8 A     8 B                  
 -6.666  -6.666  -1.196  -1.166  -1.034  -0.997  -0.987  -0.948
  9 B     9 A    10 A    10 B    11 A    11 B    12 A    12 B                  
 -0.808  -0.775  -0.751  -0.718  -0.705  -0.645  -0.571  -0.571
 13 A    13 B    14 A    14 B    15 A    15 B    16 A    16 B                  
 -0.561  -0.555  -0.543  -0.513  -0.511  -0.480  -0.470  -0.358
 17 A    17 B    18 A    18 B    19 A    19 B    20 A    21 A                  
 -0.351  -0.349  -0.292
 22 A    20 B    21 B                                                          
 -- Virtual --                   
  0.086   0.134   0.149   0.154   0.162   0.170   0.184   0.188
 23 A    22 B    23 B    24 A    25 A    24 B    25 B    26 A                  
  0.193   0.198   0.212   0.232   0.246   0.258   0.320   0.331
 27 A    26 B    28 A    27 B    28 B    29 A    29 B    30 A                  
  0.350   0.351   0.365   0.373   0.399   0.404   0.425   0.433
 31 A    30 B    31 B    32 A    33 A    32 B    33 B    34 A                  
  0.444   0.448   0.457   0.463   0.473   0.494   0.514   0.516
 35 A    34 B    35 B    36 A    37 A    36 B    37 B    38 A                  
  0.522   0.522   0.532   0.538   0.546   0.552   0.556   0.565
 38 B    39 A    39 B    40 A    40 B    41 A    41 B    42 B                  
  0.571   0.594   0.597   0.598   0.606   0.611   0.624   0.625
 42 A    43 A    43 B    44 A    44 B    45 A    45 B    46 A                  
  0.636   0.645   0.649   0.671   0.678   0.679   0.703   0.703
 46 B    47 B    47 A    48 A    49 A    48 B    50 A    49 B                  
  0.763   0.769   0.778   0.788   0.811   0.834   0.838   0.840
 51 A    50 B    51 B    52 A    52 B    53 B    53 A    54 B                  
  0.856   0.876   0.883   0.901   0.903   0.912   0.941   0.941
 55 B    54 A    55 A    56 A    56 B    57 A    57 B    58 A                  
  0.977   1.002   1.004   1.020   1.022   1.027   1.073   1.080
 59 A    58 B    60 A    59 B    61 A    60 B    61 B    62 A                  
  1.096   1.105   1.107   1.107   1.149   1.150   1.173   1.178
 62 B    63 A    64 A    63 B    65 A    64 B    66 A    65 B                  
  1.189   1.192   1.209   1.220   1.238   1.252   1.265   1.289
 66 B    67 A    67 B    68 A    68 B    69 A    69 B    70 A                  
  1.294   1.313   1.343   1.360   1.380   1.387   1.407   1.440
 70 B    71 A    72 A    71 B    73 A    72 B    73 B    74 A                  
  1.457   1.473   1.474   1.493   1.496   1.509   1.518   1.531
 74 B    75 A    75 B    76 A    76 B    77 B    77 A    78 A                  
  1.535   1.559   1.567   1.582   1.591   1.617   1.627   1.641
 78 B    79 A    79 B    80 A    80 B    81 A    81 B    82 A                  
  1.678   1.697   1.719   1.735   1.751   1.764   1.773   1.841
 82 B    83 B    83 A    84 B    84 A    85 B    85 A    86 A                  
  1.846   1.847   1.856   1.894   1.902   1.927   1.939   1.940
 86 B    87 A    87 B    88 B    88 A    89 B    90 B    89 A                  
  1.949   1.993   2.043   2.060   2.069   2.092   2.124   2.151
 90 A    91 B    91 A    92 B    92 A    93 A    93 B    94 A                  
  2.176   2.182   2.204   2.212   2.236   2.250   2.263   2.272
 95 A    94 B    95 B    96 B    96 A    97 A    97 B    98 A                  
  2.282   2.317   2.331   2.386   2.402   2.438   2.450   2.455
 98 B    99 B    99 A   100 B   100 A   101 A   102 A   101 B                  
  2.482   2.489   2.523   2.527   2.529   2.563   2.581   2.594
102 B   103 A   103 B   104 A   104 B   105 B   105 A   106 A                  
  2.637   2.682   2.692   2.704   2.710   2.722   2.759   2.765
106 B   107 B   107 A   108 B   109 B   108 A   109 A   110 B                  
  2.768   2.768   2.780   2.792   2.794   2.850   2.893   2.898
110 A   111 B   111 A   112 B   112 A   113 A   113 B   114 A                  
  2.910   2.920   2.939   2.962   3.010   3.014   3.017   3.022
114 B   115 B   115 A   116 A   116 B   117 A   117 B   118 A                  
  3.027   3.050   3.062   3.125   3.155   3.156   3.169   3.189
118 B   119 A   119 B   120 A   121 A   120 B   122 A   121 B                  
  3.205   3.213   3.247   3.256   3.259   3.270   3.270   3.288
123 A   122 B   124 A   123 B   125 A   126 A   124 B   125 B                  
  3.302   3.319   3.334   3.339   3.342   3.347   3.381   3.385
127 A   126 B   128 A   127 B   129 A   128 B   129 B   130 A                  
  3.404   3.432   3.435   3.443   3.451   3.456   3.465   3.485
130 B   131 B   131 A   132 A   132 B   133 A   134 A   133 B                  
  3.485   3.492   3.501   3.510   3.513   3.521   3.533   3.540
135 A   134 B   136 A   135 B   137 A   136 B   137 B   138 A                  
  3.544   3.566   3.578   3.593   3.599   3.607   3.638   3.659
138 B   139 A   140 A   139 B   141 A   142 A   140 B   141 B                  
  3.699   3.702   3.727   3.728   3.737   3.776   3.781   3.782
143 A   142 B   143 B   144 A   145 A   144 B   146 A   145 B                  
  3.838   3.843   3.860   3.887   3.888   3.910   3.921   3.928
146 B   147 A   147 B   148 B   148 A   149 A   150 A   149 B                  
  3.974   3.978   3.996   4.006   4.014   4.025   4.042   4.045
151 A   150 B   152 A   151 B   152 B   153 A   153 B   154 A                  
  4.080   4.120   4.125   4.134   4.155   4.169   4.179   4.188
154 B   155 B   155 A   156 A   156 B   157 A   157 B   158 A                  
  4.210   4.216   4.227   4.261   4.281   4.286   4.309   4.330
158 B   159 A   160 A   159 B   161 A   160 B   161 B   162 A                  
  4.356   4.364   4.375   4.411   4.425   4.462   4.525   4.530
162 B   163 A   164 A   163 B   164 B   165 A   166 A   165 B                  
  4.547   4.566   4.604   4.604   4.649   4.666   4.694   4.697
166 B   167 A   168 A   167 B   168 B   169 A   170 A   169 B                  
  4.710   4.740   4.757   4.777   4.788   4.817   4.837   4.883
170 B   171 A   171 B   172 B   172 A   173 A   173 B   174 B                  
  4.897   4.960   4.979   5.020   5.029   5.060   5.065   5.081
174 A   175 A   175 B   176 B   176 A   177 B   177 A   178 A                  
  5.085   5.111   5.194   5.247   5.247   5.293   5.313   5.381
178 B   179 A   179 B   180 B   180 A   181 B   181 A   182 A                  
  5.394   5.415   5.429   5.505   5.559   5.601   5.645   5.672
182 B   183 A   183 B   184 A   184 B   185 A   186 A   185 B                  
  5.773   5.918   5.941   6.050   6.089   6.139   6.175   6.220
186 B   187 A   187 B   188 A   188 B   189 A   189 B   190 B                  
  6.234   6.548   6.568   6.728   6.747   9.523  10.755  11.804
190 A   191 A   191 B   192 A   192 B   193 A   193 B   194 A                  
 12.258  13.545  13.612  14.619  14.652
194 B   195 A   195 B   196 B   196 A                                          
 
 Beta MOs, Restricted
 -- Occupied --                  
-91.985 -91.985 -11.274 -11.273 -11.261 -11.261 -11.238 -11.238
  1 A     1 B     2 A     2 B     3 B     3 A     4 A     4 B                  
-11.237 -11.237  -8.986  -8.986  -6.667  -6.667  -6.667  -6.667
  5 B     5 A     6 B     6 A     7 B     7 A     8 A     8 B                  
 -6.666  -6.666  -1.196  -1.166  -1.034  -0.997  -0.987  -0.948
  9 B     9 A    10 A    10 B    11 A    11 B    12 A    12 B                  
 -0.808  -0.775  -0.751  -0.718  -0.705  -0.645  -0.571  -0.571
 13 A    13 B    14 A    14 B    15 A    15 B    16 A    16 B                  
 -0.561  -0.555  -0.543  -0.513  -0.511  -0.480  -0.470  -0.358
 17 A    17 B    18 A    18 B    19 A    19 B    20 A    21 A                  
 -0.351  -0.349  -0.292
 22 A    20 B    21 B                                                          
 -- Virtual --                   
  0.086   0.134   0.149   0.154   0.162   0.170   0.184   0.188
 23 A    22 B    23 B    24 A    25 A    24 B    25 B    26 A                  
  0.193   0.198   0.212   0.232   0.246   0.258   0.320   0.331
 27 A    26 B    28 A    27 B    28 B    29 A    29 B    30 A                  
  0.350   0.351   0.365   0.373   0.399   0.404   0.425   0.433
 31 A    30 B    31 B    32 A    33 A    32 B    33 B    34 A                  
  0.444   0.448   0.457   0.463   0.473   0.494   0.514   0.516
 35 A    34 B    35 B    36 A    37 A    36 B    37 B    38 A                  
  0.522   0.522   0.532   0.538   0.546   0.552   0.556   0.565
 38 B    39 A    39 B    40 A    40 B    41 A    41 B    42 B                  
  0.571   0.594   0.597   0.598   0.606   0.611   0.624   0.625
 42 A    43 A    43 B    44 A    44 B    45 A    45 B    46 A                  
  0.636   0.645   0.649   0.671   0.678   0.679   0.703   0.703
 46 B    47 B    47 A    48 A    49 A    48 B    50 A    49 B                  
  0.763   0.769   0.778   0.788   0.811   0.834   0.838   0.840
 51 A    50 B    51 B    52 A    52 B    53 B    53 A    54 B                  
  0.856   0.876   0.883   0.901   0.903   0.912   0.941   0.941
 55 B    54 A    55 A    56 A    56 B    57 A    57 B    58 A                  
  0.977   1.002   1.004   1.020   1.022   1.027   1.073   1.080
 59 A    58 B    60 A    59 B    61 A    60 B    61 B    62 A                  
  1.096   1.105   1.107   1.107   1.149   1.150   1.173   1.178
 62 B    63 A    64 A    63 B    65 A    64 B    66 A    65 B                  
  1.189   1.192   1.209   1.220   1.238   1.252   1.265   1.289
 66 B    67 A    67 B    68 A    68 B    69 A    69 B    70 A                  
  1.294   1.313   1.343   1.360   1.380   1.387   1.407   1.440
 70 B    71 A    72 A    71 B    73 A    72 B    73 B    74 A                  
  1.457   1.473   1.474   1.493   1.496   1.509   1.518   1.531
 74 B    75 A    75 B    76 A    76 B    77 B    77 A    78 A                  
  1.535   1.559   1.567   1.582   1.591   1.617   1.627   1.641
 78 B    79 A    79 B    80 A    80 B    81 A    81 B    82 A                  
  1.678   1.697   1.719   1.735   1.751   1.764   1.773   1.841
 82 B    83 B    83 A    84 B    84 A    85 B    85 A    86 A                  
  1.846   1.847   1.856   1.894   1.902   1.927   1.939   1.940
 86 B    87 A    87 B    88 B    88 A    89 B    90 B    89 A                  
  1.949   1.993   2.043   2.060   2.069   2.092   2.124   2.151
 90 A    91 B    91 A    92 B    92 A    93 A    93 B    94 A                  
  2.176   2.182   2.204   2.212   2.236   2.250   2.263   2.272
 95 A    94 B    95 B    96 B    96 A    97 A    97 B    98 A                  
  2.282   2.317   2.331   2.386   2.402   2.438   2.450   2.455
 98 B    99 B    99 A   100 B   100 A   101 A   102 A   101 B                  
  2.482   2.489   2.523   2.527   2.529   2.563   2.581   2.594
102 B   103 A   103 B   104 A   104 B   105 B   105 A   106 A                  
  2.637   2.682   2.692   2.704   2.710   2.722   2.759   2.765
106 B   107 B   107 A   108 B   109 B   108 A   109 A   110 B                  
  2.768   2.768   2.780   2.792   2.794   2.850   2.893   2.898
110 A   111 B   111 A   112 B   112 A   113 A   113 B   114 A                  
  2.910   2.920   2.939   2.962   3.010   3.014   3.017   3.022
114 B   115 B   115 A   116 A   116 B   117 A   117 B   118 A                  
  3.027   3.050   3.062   3.125   3.155   3.156   3.169   3.189
118 B   119 A   119 B   120 A   121 A   120 B   122 A   121 B                  
  3.205   3.213   3.247   3.256   3.259   3.270   3.270   3.288
123 A   122 B   124 A   123 B   125 A   126 A   124 B   125 B                  
  3.302   3.319   3.334   3.339   3.342   3.347   3.381   3.385
127 A   126 B   128 A   127 B   129 A   128 B   129 B   130 A                  
  3.404   3.432   3.435   3.443   3.451   3.456   3.465   3.485
130 B   131 B   131 A   132 A   132 B   133 A   134 A   133 B                  
  3.485   3.492   3.501   3.510   3.513   3.521   3.533   3.540
135 A   134 B   136 A   135 B   137 A   136 B   137 B   138 A                  
  3.544   3.566   3.578   3.593   3.599   3.607   3.638   3.659
138 B   139 A   140 A   139 B   141 A   142 A   140 B   141 B                  
  3.699   3.702   3.727   3.728   3.737   3.776   3.781   3.782
143 A   142 B   143 B   144 A   145 A   144 B   146 A   145 B                  
  3.838   3.843   3.860   3.887   3.888   3.910   3.921   3.928
146 B   147 A   147 B   148 B   148 A   149 A   150 A   149 B                  
  3.974   3.978   3.996   4.006   4.014   4.025   4.042   4.045
151 A   150 B   152 A   151 B   152 B   153 A   153 B   154 A                  
  4.080   4.120   4.125   4.134   4.155   4.169   4.179   4.188
154 B   155 B   155 A   156 A   156 B   157 A   157 B   158 A                  
  4.210   4.216   4.227   4.261   4.281   4.286   4.309   4.330
158 B   159 A   160 A   159 B   161 A   160 B   161 B   162 A                  
  4.356   4.364   4.375   4.411   4.425   4.462   4.525   4.530
162 B   163 A   164 A   163 B   164 B   165 A   166 A   165 B                  
  4.547   4.566   4.604   4.604   4.649   4.666   4.694   4.697
166 B   167 A   168 A   167 B   168 B   169 A   170 A   169 B                  
  4.710   4.740   4.757   4.777   4.788   4.817   4.837   4.883
170 B   171 A   171 B   172 B   172 A   173 A   173 B   174 B                  
  4.897   4.960   4.979   5.020   5.029   5.060   5.065   5.081
174 A   175 A   175 B   176 B   176 A   177 B   177 A   178 A                  
  5.085   5.111   5.194   5.247   5.247   5.293   5.313   5.381
178 B   179 A   179 B   180 B   180 A   181 B   181 A   182 A                  
  5.394   5.415   5.429   5.505   5.559   5.601   5.645   5.672
182 B   183 A   183 B   184 A   184 B   185 A   186 A   185 B                  
  5.773   5.918   5.941   6.050   6.089   6.139   6.175   6.220
186 B   187 A   187 B   188 A   188 B   189 A   189 B   190 B                  
  6.234   6.548   6.568   6.728   6.747   9.523  10.755  11.804
190 A   191 A   191 B   192 A   192 B   193 A   193 B   194 A                  
 12.258  13.545  13.612  14.619  14.652
194 B   195 A   195 B   196 B   196 A                                          
 --------------------------------------------------------------
 
          Ground-State Mulliken Net Atomic Charges

     Atom                 Charge (a.u.)
  ----------------------------------------
      1 S                     0.121222
      2 C                    -0.238218
      3 C                    -0.192157
      4 C                    -0.212846
      5 C                    -0.011395
      6 H                     0.174869
      7 C                    -0.011395
      8 S                     0.121222
      9 C                    -0.212846
     10 C                    -0.238218
     11 C                    -0.192157
     12 H                     0.174258
     13 H                     0.184267
     14 H                     0.174258
     15 H                     0.184267
     16 H                     0.174869
  ----------------------------------------
  Sum of atomic charges =     0.000000

 -----------------------------------------------------------------
                    Cartesian Multipole Moments
 -----------------------------------------------------------------
    Charge (ESU x 10^10)
                -0.0000
    Dipole Moment (Debye)
         X      -0.0000      Y      -0.0000      Z       0.3080
       Tot       0.3080
    Quadrupole Moments (Debye-Ang)
        XX     -61.2758     XY       0.9007     YY     -69.5496
        XZ      -0.0000     YZ       0.0000     ZZ     -76.2026
    Octopole Moments (Debye-Ang^2)
       XXX       0.0000    XXY      -0.0000    XYY       0.0000
       YYY      -0.0000    XXZ      -3.9053    XYZ       9.3682
       YYZ       5.9188    XZZ       0.0000    YZZ      -0.0000
       ZZZ      -2.1816
    Hexadecapole Moments (Debye-Ang^3)
      XXXX   -1836.0130   XXXY     -16.2419   XXYY    -406.8329
      XYYY       8.1988   YYYY    -486.5058   XXXZ       0.0000
      XXYZ       0.0000   XYYZ      -0.0000   YYYZ       0.0000
      XXZZ    -406.7403   XYZZ      -2.7461   YYZZ    -109.5111
      XZZZ       0.0000   YZZZ       0.0000   ZZZZ    -184.1788
 -----------------------------------------------------------------
 DrvMan is completing analytic gradient of the MP2 energy
 MP2 relaxed dipole moment
            1
    1  -0.0000000
    2  -0.0000000
    3   0.1211908
	Magnitude:	 0.121 au	 0.308 Debye
 MP2 energy read as -1103.413365
 Full Analytical Gradient of MP2 Energy (in au.)
             1             2             3             4             5
    1    0.00004951    0.00023579    0.00000304    0.00019784   -0.00061447
    2    0.00014346    0.00024857   -0.00002876   -0.00127246    0.00100528
    3   -0.00072916    0.00029840   -0.00025887    0.00244828   -0.00077811
             6             7             8             9            10
    1    0.00001396    0.00061447   -0.00004951   -0.00019784   -0.00023579
    2    0.00042215   -0.00100528   -0.00014346    0.00127246   -0.00024857
    3   -0.00078000   -0.00077811   -0.00072916    0.00244828    0.00029840
            11            12            13            14            15
    1   -0.00000304    0.00000830   -0.00003692   -0.00000830    0.00003692
    2    0.00002876   -0.00000810   -0.00003469    0.00000810    0.00003469
    3   -0.00025887   -0.00000023   -0.00020032   -0.00000023   -0.00020032
            16
    1   -0.00001396
    2   -0.00042215
    3   -0.00078000
 Gradient time:  CPU 1.49 s  wall 0.10 s
 Geometry Optimization Parameters
   NAtoms,    NIC,     NZ,  NCons,   NDum,   NFix, NCnnct, MaxDiis
       16     111       0       1       0       0       0       0

 Cartesian Hessian Update
 Hessian Updated using BFGS Update


** CONSTRAINED OPTIMIZATION IN DELOCALIZED INTERNAL COORDINATES **
   Searching for a Minimum

   Optimization Cycle:   2

                       Coordinates (Angstroms)
     ATOM                X               Y               Z
      1  S         1.7767310362   -1.0998575030   -0.4849483662
      2  C         3.1579394446   -0.1652525662   -0.1262948176
      3  C         2.8153322959    1.0420428309    0.4311496378
      4  C         1.4272755251    1.1936254016    0.5791437393
      5  C         0.7128156157    0.1052914145    0.1257760055
      6  H         0.9480230019    2.0612293186    0.9959485311
      7  C        -0.7128156157   -0.1052914145    0.1257760055
      8  S        -1.7767310362    1.0998575030   -0.4849483662
      9  C        -1.4272755251   -1.1936254016    0.5791437393
     10  C        -3.1579394446    0.1652525662   -0.1262948176
     11  C        -2.8153322959   -1.0420428309    0.4311496378
     12  H        -3.5404233649   -1.7773925246    0.7273687861
     13  H         4.1377422922   -0.5413260468   -0.3441764779
     14  H         3.5404233649    1.7773925246    0.7273687861
     15  H        -4.1377422922    0.5413260468   -0.3441764779
     16  H        -0.9480230019   -2.0612293186    0.9959485311
   Point Group: c2    Number of degrees of freedom:    22


   Energy is  -1103.413364873

              Constraints and their Current Values
                                        Value     Constraint
   Dihedral:        4   5   7   9     -130.000     -130.000
 Hessian Updated using BFGS Update

 20 Hessian modes will be used to form the next step
  Hessian Eigenvalues:
     0.028648    0.045000    0.045001    0.045007    0.057999    0.159370
     0.159991    0.160137    0.221449    0.238031    0.250186    0.325642
     0.339796    0.365488    0.366895    0.370118    0.403255    0.435707
     0.462653    0.495634

 Minimum Search - Taking Simple RFO Step
 Searching for Lamda that Minimizes Along All modes
 Value Taken    Lamda =  -0.00008530
 Step Taken.  Stepsize is  0.052434

                             Maximum     Tolerance    Cnvgd?
         Gradient           0.001158      0.000300      NO
         Displacement       0.030999      0.001200      NO
         Energy change     -0.000322      0.000001      NO


 New Cartesian Coordinates Obtained by Inverse Iteration

 Displacement from previous Coordinates is:  0.094369
 ----------------------------------------------------------------
             Standard Nuclear Orientation (Angstroms)
    I     Atom           X                Y                Z
 ----------------------------------------------------------------
    1      S       1.7796733602    -1.1025214254    -0.4838815106
    2      C       3.1585226097    -0.1678598502    -0.1182666827
    3      C       2.8129581911     1.0431905936     0.4298006346
    4      C       1.4239517293     1.1970708609     0.5656044022
    5      C       0.7129491476     0.1068343639     0.1119653006
    6      H       0.9416970454     2.0607441001     0.9868685666
    7      C      -0.7129491476    -0.1068343639     0.1119653006
    8      S      -1.7796733602     1.1025214254    -0.4838815106
    9      C      -1.4239517293    -1.1970708609     0.5656044022
   10      C      -3.1585226097     0.1678598502    -0.1182666827
   11      C      -2.8129581911    -1.0431905936     0.4298006346
   12      H      -3.5368088321    -1.7770210942     0.7327678951
   13      H       4.1402471177    -0.5473886639    -0.3208915677
   14      H       3.5368088321     1.7770210942     0.7327678951
   15      H      -4.1402471177     0.5473886639    -0.3208915677
   16      H      -0.9416970454    -2.0607441001     0.9868685666
 ----------------------------------------------------------------
 Molecular Point Group                 C2    NOp =  2
 Largest Abelian Subgroup              C2    NOp =  2
 Nuclear Repulsion Energy =   635.9647050063 hartrees
 There are       43 alpha and       43 beta electrons
 Applying Cartesian multipole field
    Component          Value
    ---------          -----
     (2,0,0)        1.00000E-11
     (0,2,0)        2.00000E-11
     (0,0,2)       -3.00000E-10
 Nucleus-field energy     =     0.0000000023 hartrees
 Requested basis set is cc-pVTZ
 There are 140 shells and 392 basis functions
 A cutoff of  1.0D-11 yielded   8025 shell pairs
 There are     62409 function pairs (     81357 Cartesian)
 Smallest overlap matrix eigenvalue = 8.83E-05
 Guess MOs from SCF MO coefficient file
 Reading MOs from coefficient file
 Reading MOs from coefficient file
 A restricted Hartree-Fock SCF calculation will be
 performed using Pulay DIIS extrapolation
 SCF converges when DIIS error is below 1.0E-08
 Geometry optimization detected.  Setting ReadMinima to 0
 Setting SaveMinima to 0
 using 16 threads for integral computing 
 ---------------------------------------
  Cycle       Energy         DIIS Error
 ---------------------------------------
    1   -1101.5980928409      2.07E-04
    2   -1101.5987290470      2.44E-05
    3   -1101.5987569966      9.40E-06
    4   -1101.5987619283      4.35E-06
    5   -1101.5987627426      1.47E-06
    6   -1101.5987628466      6.34E-07
    7   -1101.5987628668      2.74E-07
    8   -1101.5987628694      8.27E-08
    9   -1101.5987628701      3.79E-08
   10   -1101.5987628697      1.06E-08
   11   -1101.5987628694      3.46E-09 Convergence criterion met
 ---------------------------------------
 SCF time:  CPU 703.18 s  wall 43.98 s
 SCF   energy in the final basis set = -1101.5987628694
 Total energy in the final basis set = -1101.5987628694
 
 Components of the MP2 correlation energy:
        aaaa  correlation energy =        -0.2322278161 au
        abab  correlation energy =        -1.3502048250 au
        bbbb  correlation energy =        -0.2322278161 au
        non-Brillouin singles    =        -0.0000000000 au

 Total  MP2   correlation energy =        -1.8146604572 au
        MP2         total energy =     -1103.4134233266 au

  Entering Z-vector solver.
   1         0           1      0.000264    0.000264
   2         0           1      0.000116    0.000116
   3         0           1      0.000049    0.000049
   4         0           1      0.000024    0.000024
   5         0           1      0.000006    0.000006
   6         0           1      0.000002    0.000002
   7         1           0      0.000000    0.000000    Roots Converged
 
 --------------------------------------------------------------
             Orbital Energies (a.u.) and Symmetries
 --------------------------------------------------------------
 
 Alpha MOs, Restricted
 -- Occupied --                  
-91.985 -91.985 -11.274 -11.273 -11.261 -11.261 -11.238 -11.238
  1 A     1 B     2 A     2 B     3 B     3 A     4 A     4 B                  
-11.237 -11.237  -8.986  -8.986  -6.667  -6.667  -6.667  -6.667
  5 B     5 A     6 B     6 A     7 B     7 A     8 A     8 B                  
 -6.666  -6.666  -1.196  -1.167  -1.034  -0.997  -0.987  -0.948
  9 B     9 A    10 A    10 B    11 A    11 B    12 A    12 B                  
 -0.808  -0.775  -0.751  -0.718  -0.705  -0.645  -0.571  -0.571
 13 A    13 B    14 A    14 B    15 A    15 B    16 A    16 B                  
 -0.560  -0.555  -0.543  -0.513  -0.511  -0.481  -0.471  -0.359
 17 A    17 B    18 A    18 B    19 A    19 B    20 A    21 A                  
 -0.351  -0.349  -0.292
 22 A    20 B    21 B                                                          
 -- Virtual --                   
  0.085   0.135   0.149   0.153   0.163   0.170   0.184   0.188
 23 A    22 B    23 B    24 A    25 A    24 B    25 B    26 A                  
  0.193   0.198   0.212   0.232   0.246   0.258   0.320   0.331
 27 A    26 B    28 A    27 B    28 B    29 A    29 B    30 A                  
  0.351   0.351   0.365   0.373   0.399   0.403   0.425   0.433
 31 A    30 B    31 B    32 A    33 A    32 B    33 B    34 A                  
  0.444   0.448   0.456   0.463   0.473   0.494   0.514   0.516
 35 A    34 B    35 B    36 A    37 A    36 B    37 B    38 A                  
  0.522   0.523   0.532   0.537   0.547   0.553   0.556   0.565
 38 B    39 A    39 B    40 A    40 B    41 A    41 B    42 B                  
  0.571   0.594   0.596   0.598   0.606   0.611   0.624   0.625
 42 A    43 A    43 B    44 A    44 B    45 A    45 B    46 A                  
  0.636   0.645   0.648   0.672   0.679   0.679   0.703   0.703
 46 B    47 B    47 A    48 A    49 A    48 B    50 A    49 B                  
  0.763   0.770   0.778   0.788   0.810   0.834   0.837   0.842
 51 A    50 B    51 B    52 A    52 B    53 B    53 A    54 B                  
  0.854   0.877   0.882   0.899   0.905   0.914   0.942   0.942
 55 B    54 A    55 A    56 A    56 B    57 A    57 B    58 A                  
  0.975   1.003   1.004   1.020   1.022   1.026   1.075   1.081
 59 A    58 B    60 A    59 B    61 A    60 B    61 B    62 A                  
  1.096   1.106   1.106   1.107   1.148   1.150   1.173   1.179
 62 B    63 A    63 B    64 A    65 A    64 B    66 A    65 B                  
  1.189   1.192   1.209   1.221   1.238   1.251   1.263   1.290
 66 B    67 A    67 B    68 A    68 B    69 A    69 B    70 A                  
  1.296   1.313   1.343   1.360   1.380   1.387   1.407   1.440
 70 B    71 A    72 A    71 B    73 A    72 B    73 B    74 A                  
  1.457   1.473   1.474   1.492   1.497   1.509   1.520   1.530
 74 B    75 A    75 B    76 A    76 B    77 B    77 A    78 A                  
  1.535   1.559   1.568   1.582   1.589   1.617   1.626   1.641
 78 B    79 A    79 B    80 A    80 B    81 A    81 B    82 A                  
  1.677   1.697   1.719   1.737   1.749   1.765   1.773   1.841
 82 B    83 B    83 A    84 B    84 A    85 B    85 A    86 A                  
  1.846   1.847   1.856   1.894   1.902   1.927   1.941   1.941
 87 A    86 B    87 B    88 B    88 A    89 B    90 B    89 A                  
  1.948   1.992   2.041   2.060   2.069   2.092   2.124   2.152
 90 A    91 B    91 A    92 B    92 A    93 A    93 B    94 A                  
  2.177   2.182   2.204   2.212   2.236   2.253   2.264   2.272
 95 A    94 B    95 B    96 B    96 A    97 A    97 B    98 A                  
  2.281   2.317   2.330   2.385   2.401   2.438   2.451   2.454
 98 B    99 B    99 A   100 B   100 A   101 A   102 A   101 B                  
  2.482   2.489   2.523   2.526   2.529   2.564   2.582   2.595
102 B   103 A   103 B   104 A   104 B   105 B   105 A   106 A                  
  2.636   2.681   2.693   2.705   2.710   2.725   2.759   2.765
106 B   107 B   107 A   108 B   109 B   108 A   109 A   110 B                  
  2.769   2.769   2.781   2.791   2.793   2.849   2.894   2.898
111 B   110 A   111 A   112 B   112 A   113 A   113 B   114 A                  
  2.910   2.919   2.940   2.961   3.010   3.013   3.016   3.024
114 B   115 B   115 A   116 A   116 B   117 A   117 B   118 A                  
  3.027   3.050   3.063   3.124   3.154   3.156   3.169   3.189
118 B   119 A   119 B   120 A   121 A   120 B   122 A   121 B                  
  3.206   3.213   3.247   3.255   3.259   3.269   3.270   3.289
123 A   122 B   124 A   123 B   125 A   126 A   124 B   125 B                  
  3.302   3.318   3.334   3.338   3.343   3.346   3.383   3.385
127 A   126 B   128 A   127 B   129 A   128 B   129 B   130 A                  
  3.406   3.431   3.435   3.442   3.452   3.456   3.464   3.484
130 B   131 B   131 A   132 A   132 B   133 A   134 A   133 B                  
  3.486   3.492   3.501   3.510   3.514   3.521   3.534   3.538
135 A   134 B   136 A   135 B   137 A   136 B   137 B   138 A                  
  3.545   3.566   3.577   3.594   3.599   3.608   3.638   3.658
138 B   139 A   140 A   139 B   141 A   142 A   140 B   141 B                  
  3.697   3.701   3.729   3.731   3.737   3.776   3.781   3.782
143 A   142 B   144 A   143 B   145 A   144 B   145 B   146 A                  
  3.838   3.841   3.861   3.887   3.889   3.910   3.921   3.930
146 B   147 A   147 B   148 B   148 A   149 A   150 A   149 B                  
  3.974   3.979   3.994   4.007   4.015   4.025   4.040   4.046
151 A   150 B   152 A   151 B   152 B   153 A   153 B   154 A                  
  4.078   4.120   4.126   4.133   4.157   4.169   4.178   4.187
154 B   155 B   155 A   156 A   156 B   157 A   157 B   158 A                  
  4.209   4.215   4.227   4.260   4.282   4.287   4.310   4.330
158 B   159 A   160 A   159 B   161 A   160 B   161 B   162 A                  
  4.356   4.364   4.376   4.411   4.426   4.462   4.526   4.527
162 B   163 A   164 A   163 B   164 B   165 A   166 A   165 B                  
  4.546   4.567   4.604   4.604   4.650   4.666   4.694   4.698
166 B   167 A   167 B   168 A   168 B   169 A   170 A   169 B                  
  4.708   4.739   4.759   4.776   4.787   4.816   4.838   4.883
170 B   171 A   171 B   172 B   172 A   173 A   173 B   174 B                  
  4.897   4.962   4.979   5.020   5.026   5.060   5.066   5.080
174 A   175 A   175 B   176 B   176 A   177 B   177 A   178 A                  
  5.086   5.112   5.193   5.245   5.247   5.293   5.314   5.381
178 B   179 A   179 B   180 B   180 A   181 B   181 A   182 A                  
  5.394   5.415   5.429   5.506   5.558   5.601   5.644   5.672
182 B   183 A   183 B   184 A   184 B   185 A   186 A   185 B                  
  5.773   5.919   5.941   6.051   6.090   6.139   6.176   6.222
186 B   187 A   187 B   188 A   188 B   189 A   189 B   190 B                  
  6.235   6.549   6.568   6.727   6.747   9.521  10.751  11.803
190 A   191 A   191 B   192 A   192 B   193 A   193 B   194 A                  
 12.253  13.551  13.607  14.617  14.657
194 B   195 A   195 B   196 B   196 A                                          
 
 Beta MOs, Restricted
 -- Occupied --                  
-91.985 -91.985 -11.274 -11.273 -11.261 -11.261 -11.238 -11.238
  1 A     1 B     2 A     2 B     3 B     3 A     4 A     4 B                  
-11.237 -11.237  -8.986  -8.986  -6.667  -6.667  -6.667  -6.667
  5 B     5 A     6 B     6 A     7 B     7 A     8 A     8 B                  
 -6.666  -6.666  -1.196  -1.167  -1.034  -0.997  -0.987  -0.948
  9 B     9 A    10 A    10 B    11 A    11 B    12 A    12 B                  
 -0.808  -0.775  -0.751  -0.718  -0.705  -0.645  -0.571  -0.571
 13 A    13 B    14 A    14 B    15 A    15 B    16 A    16 B                  
 -0.560  -0.555  -0.543  -0.513  -0.511  -0.481  -0.471  -0.359
 17 A    17 B    18 A    18 B    19 A    19 B    20 A    21 A                  
 -0.351  -0.349  -0.292
 22 A    20 B    21 B                                                          
 -- Virtual --                   
  0.085   0.135   0.149   0.153   0.163   0.170   0.184   0.188
 23 A    22 B    23 B    24 A    25 A    24 B    25 B    26 A                  
  0.193   0.198   0.212   0.232   0.246   0.258   0.320   0.331
 27 A    26 B    28 A    27 B    28 B    29 A    29 B    30 A                  
  0.351   0.351   0.365   0.373   0.399   0.403   0.425   0.433
 31 A    30 B    31 B    32 A    33 A    32 B    33 B    34 A                  
  0.444   0.448   0.456   0.463   0.473   0.494   0.514   0.516
 35 A    34 B    35 B    36 A    37 A    36 B    37 B    38 A                  
  0.522   0.523   0.532   0.537   0.547   0.553   0.556   0.565
 38 B    39 A    39 B    40 A    40 B    41 A    41 B    42 B                  
  0.571   0.594   0.596   0.598   0.606   0.611   0.624   0.625
 42 A    43 A    43 B    44 A    44 B    45 A    45 B    46 A                  
  0.636   0.645   0.648   0.672   0.679   0.679   0.703   0.703
 46 B    47 B    47 A    48 A    49 A    48 B    50 A    49 B                  
  0.763   0.770   0.778   0.788   0.810   0.834   0.837   0.842
 51 A    50 B    51 B    52 A    52 B    53 B    53 A    54 B                  
  0.854   0.877   0.882   0.899   0.905   0.914   0.942   0.942
 55 B    54 A    55 A    56 A    56 B    57 A    57 B    58 A                  
  0.975   1.003   1.004   1.020   1.022   1.026   1.075   1.081
 59 A    58 B    60 A    59 B    61 A    60 B    61 B    62 A                  
  1.096   1.106   1.106   1.107   1.148   1.150   1.173   1.179
 62 B    63 A    63 B    64 A    65 A    64 B    66 A    65 B                  
  1.189   1.192   1.209   1.221   1.238   1.251   1.263   1.290
 66 B    67 A    67 B    68 A    68 B    69 A    69 B    70 A                  
  1.296   1.313   1.343   1.360   1.380   1.387   1.407   1.440
 70 B    71 A    72 A    71 B    73 A    72 B    73 B    74 A                  
  1.457   1.473   1.474   1.492   1.497   1.509   1.520   1.530
 74 B    75 A    75 B    76 A    76 B    77 B    77 A    78 A                  
  1.535   1.559   1.568   1.582   1.589   1.617   1.626   1.641
 78 B    79 A    79 B    80 A    80 B    81 A    81 B    82 A                  
  1.677   1.697   1.719   1.737   1.749   1.765   1.773   1.841
 82 B    83 B    83 A    84 B    84 A    85 B    85 A    86 A                  
  1.846   1.847   1.856   1.894   1.902   1.927   1.941   1.941
 87 A    86 B    87 B    88 B    88 A    89 B    90 B    89 A                  
  1.948   1.992   2.041   2.060   2.069   2.092   2.124   2.152
 90 A    91 B    91 A    92 B    92 A    93 A    93 B    94 A                  
  2.177   2.182   2.204   2.212   2.236   2.253   2.264   2.272
 95 A    94 B    95 B    96 B    96 A    97 A    97 B    98 A                  
  2.281   2.317   2.330   2.385   2.401   2.438   2.451   2.454
 98 B    99 B    99 A   100 B   100 A   101 A   102 A   101 B                  
  2.482   2.489   2.523   2.526   2.529   2.564   2.582   2.595
102 B   103 A   103 B   104 A   104 B   105 B   105 A   106 A                  
  2.636   2.681   2.693   2.705   2.710   2.725   2.759   2.765
106 B   107 B   107 A   108 B   109 B   108 A   109 A   110 B                  
  2.769   2.769   2.781   2.791   2.793   2.849   2.894   2.898
111 B   110 A   111 A   112 B   112 A   113 A   113 B   114 A                  
  2.910   2.919   2.940   2.961   3.010   3.013   3.016   3.024
114 B   115 B   115 A   116 A   116 B   117 A   117 B   118 A                  
  3.027   3.050   3.063   3.124   3.154   3.156   3.169   3.189
118 B   119 A   119 B   120 A   121 A   120 B   122 A   121 B                  
  3.206   3.213   3.247   3.255   3.259   3.269   3.270   3.289
123 A   122 B   124 A   123 B   125 A   126 A   124 B   125 B                  
  3.302   3.318   3.334   3.338   3.343   3.346   3.383   3.385
127 A   126 B   128 A   127 B   129 A   128 B   129 B   130 A                  
  3.406   3.431   3.435   3.442   3.452   3.456   3.464   3.484
130 B   131 B   131 A   132 A   132 B   133 A   134 A   133 B                  
  3.486   3.492   3.501   3.510   3.514   3.521   3.534   3.538
135 A   134 B   136 A   135 B   137 A   136 B   137 B   138 A                  
  3.545   3.566   3.577   3.594   3.599   3.608   3.638   3.658
138 B   139 A   140 A   139 B   141 A   142 A   140 B   141 B                  
  3.697   3.701   3.729   3.731   3.737   3.776   3.781   3.782
143 A   142 B   144 A   143 B   145 A   144 B   145 B   146 A                  
  3.838   3.841   3.861   3.887   3.889   3.910   3.921   3.930
146 B   147 A   147 B   148 B   148 A   149 A   150 A   149 B                  
  3.974   3.979   3.994   4.007   4.015   4.025   4.040   4.046
151 A   150 B   152 A   151 B   152 B   153 A   153 B   154 A                  
  4.078   4.120   4.126   4.133   4.157   4.169   4.178   4.187
154 B   155 B   155 A   156 A   156 B   157 A   157 B   158 A                  
  4.209   4.215   4.227   4.260   4.282   4.287   4.310   4.330
158 B   159 A   160 A   159 B   161 A   160 B   161 B   162 A                  
  4.356   4.364   4.376   4.411   4.426   4.462   4.526   4.527
162 B   163 A   164 A   163 B   164 B   165 A   166 A   165 B                  
  4.546   4.567   4.604   4.604   4.650   4.666   4.694   4.698
166 B   167 A   167 B   168 A   168 B   169 A   170 A   169 B                  
  4.708   4.739   4.759   4.776   4.787   4.816   4.838   4.883
170 B   171 A   171 B   172 B   172 A   173 A   173 B   174 B                  
  4.897   4.962   4.979   5.020   5.026   5.060   5.066   5.080
174 A   175 A   175 B   176 B   176 A   177 B   177 A   178 A                  
  5.086   5.112   5.193   5.245   5.247   5.293   5.314   5.381
178 B   179 A   179 B   180 B   180 A   181 B   181 A   182 A                  
  5.394   5.415   5.429   5.506   5.558   5.601   5.644   5.672
182 B   183 A   183 B   184 A   184 B   185 A   186 A   185 B                  
  5.773   5.919   5.941   6.051   6.090   6.139   6.176   6.222
186 B   187 A   187 B   188 A   188 B   189 A   189 B   190 B                  
  6.235   6.549   6.568   6.727   6.747   9.521  10.751  11.803
190 A   191 A   191 B   192 A   192 B   193 A   193 B   194 A                  
 12.253  13.551  13.607  14.617  14.657
194 B   195 A   195 B   196 B   196 A                                          
 --------------------------------------------------------------
 
          Ground-State Mulliken Net Atomic Charges

     Atom                 Charge (a.u.)
  ----------------------------------------
      1 S                     0.121194
      2 C                    -0.238219
      3 C                    -0.192692
      4 C                    -0.212434
      5 C                    -0.011305
      6 H                     0.174935
      7 C                    -0.011305
      8 S                     0.121194
      9 C                    -0.212434
     10 C                    -0.238219
     11 C                    -0.192692
     12 H                     0.174224
     13 H                     0.184296
     14 H                     0.174224
     15 H                     0.184296
     16 H                     0.174935
  ----------------------------------------
  Sum of atomic charges =     0.000000

 -----------------------------------------------------------------
                    Cartesian Multipole Moments
 -----------------------------------------------------------------
    Charge (ESU x 10^10)
                 0.0000
    Dipole Moment (Debye)
         X       0.0000      Y      -0.0000      Z       0.3546
       Tot       0.3546
    Quadrupole Moments (Debye-Ang)
        XX     -61.2793     XY       0.8174     YY     -69.5533
        XZ      -0.0000     YZ      -0.0000     ZZ     -76.2092
    Octopole Moments (Debye-Ang^2)
       XXX       0.0000    XXY      -0.0000    XYY       0.0000
       YYY      -0.0000    XXZ      -2.9584    XYZ       9.3126
       YYZ       6.1363    XZZ       0.0000    YZZ      -0.0000
       ZZZ      -1.5683
    Hexadecapole Moments (Debye-Ang^3)
      XXXX   -1835.7865   XXXY     -16.6981   XXYY    -407.0339
      XYYY       8.7560   YYYY    -488.3570   XXXZ      -0.0000
      XXYZ      -0.0000   XYYZ      -0.0000   YYYZ      -0.0000
      XXZZ    -406.8816   XYZZ      -2.1833   YYZZ    -109.5459
      XZZZ      -0.0000   YZZZ      -0.0000   ZZZZ    -182.2124
 -----------------------------------------------------------------
 DrvMan is completing analytic gradient of the MP2 energy
 MP2 relaxed dipole moment
            1
    1   0.0000000
    2  -0.0000000
    3   0.1395093
	Magnitude:	 0.140 au	 0.355 Debye
 MP2 energy read as -1103.413423
 Full Analytical Gradient of MP2 Energy (in au.)
             1             2             3             4             5
    1    0.00004692   -0.00005590   -0.00005023    0.00006686    0.00037400
    2    0.00020188   -0.00009794    0.00020469   -0.00091835    0.00132173
    3   -0.00053097    0.00009892   -0.00040856    0.00181192   -0.00084917
             6             7             8             9            10
    1   -0.00002855   -0.00037400   -0.00004692   -0.00006686    0.00005590
    2    0.00011823   -0.00132173   -0.00020188    0.00091835    0.00009794
    3   -0.00029377   -0.00084917   -0.00053097    0.00181192    0.00009892
            11            12            13            14            15
    1    0.00005023    0.00000616   -0.00000863   -0.00000616    0.00000863
    2   -0.00020469    0.00004005   -0.00005806   -0.00004005    0.00005806
    3   -0.00040856    0.00013712    0.00003452    0.00013712    0.00003452
            16
    1    0.00002855
    2   -0.00011823
    3   -0.00029377
 Gradient time:  CPU 1.53 s  wall 0.10 s
 Geometry Optimization Parameters
   NAtoms,    NIC,     NZ,  NCons,   NDum,   NFix, NCnnct, MaxDiis
       16     111       0       1       0       0       0       0

 Cartesian Hessian Update
 Hessian Updated using BFGS Update


** CONSTRAINED OPTIMIZATION IN DELOCALIZED INTERNAL COORDINATES **
   Searching for a Minimum

   Optimization Cycle:   3

                       Coordinates (Angstroms)
     ATOM                X               Y               Z
      1  S         1.7796733602   -1.1025214254   -0.4838815106
      2  C         3.1585226097   -0.1678598502   -0.1182666827
      3  C         2.8129581911    1.0431905936    0.4298006346
      4  C         1.4239517293    1.1970708609    0.5656044022
      5  C         0.7129491476    0.1068343639    0.1119653006
      6  H         0.9416970454    2.0607441001    0.9868685666
      7  C        -0.7129491476   -0.1068343639    0.1119653006
      8  S        -1.7796733602    1.1025214254   -0.4838815106
      9  C        -1.4239517293   -1.1970708609    0.5656044022
[...]
         Gradient           0.000032      0.000300     YES
         Displacement       0.001056      0.001200     YES
         Energy change     -0.000000      0.000001     YES

 Final energy is   -1103.41345304513     


 ******************************
 **  OPTIMIZATION CONVERGED  **
 ******************************

                       Coordinates (Angstroms)
     ATOM                X               Y               Z
      1  S         1.7841289786   -1.1103603533   -0.4719624652
      2  C         3.1602551958   -0.1732335920   -0.1013240733
      3  C         2.8102405506    1.0433597971    0.4311302020
      4  C         1.4200135093    1.2013088886    0.5477518708
      5  C         0.7121458101    0.1087078213    0.0939075703
      6  H         0.9349186049    2.0661209665    0.9634241400
      7  C        -0.7121458101   -0.1087078213    0.0939075703
      8  S        -1.7841289786    1.1103603533   -0.4719624652
      9  C        -1.4200135093   -1.2013088886    0.5477518708
     10  C        -3.1602551958    0.1732335920   -0.1013240733
     11  C        -2.8102405506   -1.0433597971    0.4311302020
     12  H        -3.5316822069   -1.7803392825    0.7321694256
     13  H         4.1436506895   -0.5549886841   -0.2911296320
     14  H         3.5316822069    1.7803392825    0.7321694256
     15  H        -4.1436506895    0.5549886841   -0.2911296320
     16  H        -0.9349186049   -2.0661209665    0.9634241400

Z-matrix Print:
$molecule
0 1
S 
C  1 1.705668
H  2 1.071835 1 120.401680
C  2 1.373360 1 111.427944 3 -179.899987 0
H  4 1.074356 2 123.035940 1 -179.947434 0
C  4 1.404023 2 112.595050 1 -0.617445 0
H  6 1.075175 4 124.704510 2 -178.282062 0
C  6 1.378705 4 113.072112 2 0.488104 0
C  8 1.440790 6 128.839134 4 -177.828156 0
C  9 1.378705 8 128.839134 6 130.000000 0
H  10 1.075175 9 122.211579 8 0.976880 0
C  10 1.404023 9 113.072112 8 -177.828156 0
H  12 1.074356 10 124.365338 9 179.807644 0
C  12 1.373360 10 112.595050 9 0.488104 0
H  14 1.071835 12 128.170287 10 179.492278 0
S  14 1.705668 12 111.427944 10 -0.617445 0
$end

 
 --------------------------------------------------------------
             Orbital Energies (a.u.) and Symmetries
 --------------------------------------------------------------
 
 Alpha MOs, Restricted
 -- Occupied --                  
-91.985 -91.985 -11.274 -11.273 -11.261 -11.261 -11.238 -11.238
  1 A     1 B     2 A     2 B     3 B     3 A     4 A     4 B                  
-11.237 -11.237  -8.986  -8.986  -6.667  -6.667  -6.667  -6.667
  5 B     5 A     6 B     6 A     7 B     7 A     8 A     8 B                  
 -6.666  -6.666  -1.196  -1.167  -1.035  -0.997  -0.987  -0.948
  9 B     9 A    10 A    10 B    11 A    11 B    12 A    12 B                  
 -0.808  -0.776  -0.750  -0.718  -0.705  -0.645  -0.571  -0.571
 13 A    13 B    14 A    14 B    15 A    15 B    16 A    16 B                  
 -0.560  -0.555  -0.544  -0.513  -0.511  -0.481  -0.470  -0.360
 17 A    17 B    18 A    18 B    19 A    19 B    20 A    21 A                  
 -0.351  -0.349  -0.291
 22 A    20 B    21 B                                                          
 -- Virtual --                   
  0.085   0.136   0.149   0.153   0.163   0.170   0.184   0.188
 23 A    22 B    23 B    24 A    25 A    24 B    25 B    26 A                  
  0.193   0.199   0.212   0.231   0.247   0.258   0.320   0.332
 27 A    26 B    28 A    27 B    28 B    29 A    29 B    30 A                  
  0.351   0.351   0.365   0.373   0.399   0.403   0.425   0.434
 30 B    31 A    31 B    32 A    33 A    32 B    33 B    34 A                  
  0.445   0.448   0.456   0.463   0.473   0.493   0.515   0.517
 35 A    34 B    35 B    36 A    37 A    36 B    37 B    38 A                  
  0.524   0.526   0.531   0.536   0.548   0.553   0.555   0.564
 38 B    39 A    39 B    40 A    40 B    41 A    41 B    42 B                  
  0.571   0.594   0.596   0.597   0.606   0.611   0.625   0.626
 42 A    43 A    43 B    44 A    44 B    45 A    45 B    46 A                  
  0.635   0.645   0.647   0.671   0.679   0.680   0.703   0.703
 46 B    47 B    47 A    48 A    48 B    49 A    50 A    49 B                  
  0.764   0.771   0.778   0.788   0.810   0.833   0.837   0.842
 51 A    50 B    51 B    52 A    52 B    53 B    53 A    54 B                  
  0.854   0.876   0.882   0.898   0.905   0.914   0.944   0.945
 55 B    54 A    55 A    56 A    56 B    57 A    58 A    57 B                  
  0.973   1.003   1.007   1.019   1.021   1.026   1.075   1.081
 59 A    58 B    60 A    59 B    61 A    60 B    61 B    62 A                  
  1.096   1.105   1.106   1.107   1.149   1.150   1.173   1.178
 62 B    63 A    63 B    64 A    65 A    64 B    66 A    65 B                  
  1.188   1.192   1.207   1.221   1.238   1.251   1.261   1.291
 66 B    67 A    67 B    68 A    68 B    69 A    69 B    70 A                  
  1.296   1.313   1.343   1.360   1.379   1.388   1.408   1.439
 70 B    71 A    72 A    71 B    73 A    72 B    73 B    74 A                  
  1.458   1.471   1.474   1.491   1.497   1.508   1.520   1.529
 74 B    75 A    75 B    76 A    76 B    77 B    77 A    78 A                  
  1.534   1.559   1.568   1.582   1.588   1.616   1.627   1.641
 78 B    79 A    79 B    80 A    80 B    81 A    81 B    82 A                  
  1.678   1.695   1.718   1.736   1.748   1.767   1.775   1.841
 82 B    83 B    83 A    84 B    84 A    85 B    85 A    86 A                  
  1.846   1.846   1.857   1.894   1.901   1.926   1.944   1.944
 87 A    86 B    87 B    88 B    88 A    89 B    90 B    89 A                  
  1.947   1.991   2.039   2.061   2.067   2.091   2.124   2.152
 90 A    91 B    91 A    92 B    92 A    93 A    93 B    94 A                  
  2.179   2.182   2.202   2.211   2.237   2.257   2.265   2.273
 95 A    94 B    95 B    96 B    96 A    97 A    97 B    98 A                  
  2.281   2.318   2.331   2.384   2.399   2.439   2.452   2.452
 98 B    99 B    99 A   100 B   100 A   101 A   101 B   102 A                  
  2.480   2.489   2.524   2.524   2.530   2.564   2.582   2.594
102 B   103 A   103 B   104 A   104 B   105 B   105 A   106 A                  
  2.635   2.679   2.693   2.705   2.710   2.731   2.759   2.765
106 B   107 B   107 A   108 B   109 B   108 A   109 A   110 B                  
  2.769   2.770   2.783   2.789   2.793   2.849   2.894   2.898
110 A   111 B   111 A   112 B   112 A   113 A   113 B   114 A                  
  2.908   2.917   2.944   2.959   3.010   3.011   3.015   3.025
114 B   115 B   115 A   116 A   117 A   116 B   117 B   118 A                  
  3.026   3.051   3.062   3.123   3.154   3.156   3.167   3.191
118 B   119 A   119 B   120 A   121 A   120 B   122 A   121 B                  
  3.207   3.213   3.246   3.253   3.259   3.269   3.270   3.291
123 A   122 B   124 A   123 B   125 A   126 A   124 B   125 B                  
  3.301   3.317   3.332   3.335   3.344   3.344   3.385   3.387
127 A   126 B   128 A   127 B   129 A   128 B   130 A   129 B                  
  3.410   3.429   3.434   3.441   3.450   3.456   3.463   3.484
130 B   131 B   131 A   132 A   132 B   133 A   134 A   133 B                  
  3.487   3.493   3.499   3.509   3.515   3.523   3.533   3.536
135 A   134 B   136 A   135 B   137 A   136 B   137 B   138 A                  
  3.545   3.565   3.576   3.593   3.599   3.607   3.636   3.658
138 B   139 A   140 A   139 B   141 A   142 A   140 B   141 B                  
  3.694   3.700   3.729   3.734   3.735   3.776   3.781   3.782
143 A   142 B   144 A   143 B   145 A   144 B   146 A   145 B                  
  3.836   3.840   3.863   3.887   3.889   3.911   3.920   3.931
146 B   147 A   147 B   148 B   148 A   149 A   150 A   149 B                  
  3.975   3.981   3.992   4.005   4.015   4.025   4.039   4.048
151 A   150 B   152 A   151 B   152 B   153 A   153 B   154 A                  
  4.077   4.120   4.123   4.133   4.158   4.169   4.178   4.187
154 B   155 B   155 A   156 A   156 B   157 A   157 B   158 A                  
  4.210   4.215   4.228   4.261   4.282   4.287   4.310   4.331
158 B   159 A   160 A   159 B   161 A   160 B   161 B   162 A                  
  4.355   4.365   4.376   4.410   4.426   4.462   4.526   4.526
162 B   163 A   164 A   163 B   164 B   165 A   165 B   166 A                  
  4.546   4.568   4.604   4.605   4.650   4.668   4.695   4.698
166 B   167 A   167 B   168 A   168 B   169 A   170 A   169 B                  
  4.708   4.737   4.760   4.776   4.784   4.816   4.839   4.884
170 B   171 A   171 B   172 B   172 A   173 A   173 B   174 B                  
  4.898   4.963   4.983   5.019   5.026   5.058   5.065   5.079
174 A   175 A   175 B   176 B   176 A   177 B   177 A   178 A                  
  5.086   5.114   5.194   5.244   5.248   5.292   5.315   5.381
178 B   179 A   179 B   180 B   180 A   181 B   181 A   182 A                  
  5.394   5.415   5.429   5.506   5.558   5.602   5.643   5.672
182 B   183 A   183 B   184 A   184 B   185 A   186 A   185 B                  
  5.773   5.919   5.939   6.053   6.092   6.141   6.175   6.225
186 B   187 A   187 B   188 A   188 B   189 A   189 B   190 B                  
  6.236   6.550   6.567   6.725   6.747   9.514  10.757  11.801
190 A   191 A   191 B   192 A   192 B   193 A   193 B   194 A                  
 12.263  13.565  13.606  14.615  14.663
194 B   195 A   195 B   196 B   196 A                                          
 
 Beta MOs, Restricted
 -- Occupied --                  
-91.985 -91.985 -11.274 -11.273 -11.261 -11.261 -11.238 -11.238
  1 A     1 B     2 A     2 B     3 B     3 A     4 A     4 B                  
-11.237 -11.237  -8.986  -8.986  -6.667  -6.667  -6.667  -6.667
  5 B     5 A     6 B     6 A     7 B     7 A     8 A     8 B                  
 -6.666  -6.666  -1.196  -1.167  -1.035  -0.997  -0.987  -0.948
  9 B     9 A    10 A    10 B    11 A    11 B    12 A    12 B                  
 -0.808  -0.776  -0.750  -0.718  -0.705  -0.645  -0.571  -0.571
 13 A    13 B    14 A    14 B    15 A    15 B    16 A    16 B                  
 -0.560  -0.555  -0.544  -0.513  -0.511  -0.481  -0.470  -0.360
 17 A    17 B    18 A    18 B    19 A    19 B    20 A    21 A                  
 -0.351  -0.349  -0.291
 22 A    20 B    21 B                                                          
 -- Virtual --                   
  0.085   0.136   0.149   0.153   0.163   0.170   0.184   0.188
 23 A    22 B    23 B    24 A    25 A    24 B    25 B    26 A                  
  0.193   0.199   0.212   0.231   0.247   0.258   0.320   0.332
 27 A    26 B    28 A    27 B    28 B    29 A    29 B    30 A                  
  0.351   0.351   0.365   0.373   0.399   0.403   0.425   0.434
 30 B    31 A    31 B    32 A    33 A    32 B    33 B    34 A                  
  0.445   0.448   0.456   0.463   0.473   0.493   0.515   0.517
 35 A    34 B    35 B    36 A    37 A    36 B    37 B    38 A                  
  0.524   0.526   0.531   0.536   0.548   0.553   0.555   0.564
 38 B    39 A    39 B    40 A    40 B    41 A    41 B    42 B                  
  0.571   0.594   0.596   0.597   0.606   0.611   0.625   0.626
 42 A    43 A    43 B    44 A    44 B    45 A    45 B    46 A                  
  0.635   0.645   0.647   0.671   0.679   0.680   0.703   0.703
 46 B    47 B    47 A    48 A    48 B    49 A    50 A    49 B                  
  0.764   0.771   0.778   0.788   0.810   0.833   0.837   0.842
 51 A    50 B    51 B    52 A    52 B    53 B    53 A    54 B                  
  0.854   0.876   0.882   0.898   0.905   0.914   0.944   0.945
 55 B    54 A    55 A    56 A    56 B    57 A    58 A    57 B                  
  0.973   1.003   1.007   1.019   1.021   1.026   1.075   1.081
 59 A    58 B    60 A    59 B    61 A    60 B    61 B    62 A                  
  1.096   1.105   1.106   1.107   1.149   1.150   1.173   1.178
 62 B    63 A    63 B    64 A    65 A    64 B    66 A    65 B                  
  1.188   1.192   1.207   1.221   1.238   1.251   1.261   1.291
 66 B    67 A    67 B    68 A    68 B    69 A    69 B    70 A                  
  1.296   1.313   1.343   1.360   1.379   1.388   1.408   1.439
 70 B    71 A    72 A    71 B    73 A    72 B    73 B    74 A                  
  1.458   1.471   1.474   1.491   1.497   1.508   1.520   1.529
 74 B    75 A    75 B    76 A    76 B    77 B    77 A    78 A                  
  1.534   1.559   1.568   1.582   1.588   1.616   1.627   1.641
 78 B    79 A    79 B    80 A    80 B    81 A    81 B    82 A                  
  1.678   1.695   1.718   1.736   1.748   1.767   1.775   1.841
 82 B    83 B    83 A    84 B    84 A    85 B    85 A    86 A                  
  1.846   1.846   1.857   1.894   1.901   1.926   1.944   1.944
 87 A    86 B    87 B    88 B    88 A    89 B    90 B    89 A                  
  1.947   1.991   2.039   2.061   2.067   2.091   2.124   2.152
 90 A    91 B    91 A    92 B    92 A    93 A    93 B    94 A                  
  2.179   2.182   2.202   2.211   2.237   2.257   2.265   2.273
 95 A    94 B    95 B    96 B    96 A    97 A    97 B    98 A                  
  2.281   2.318   2.331   2.384   2.399   2.439   2.452   2.452
 98 B    99 B    99 A   100 B   100 A   101 A   101 B   102 A                  
  2.480   2.489   2.524   2.524   2.530   2.564   2.582   2.594
102 B   103 A   103 B   104 A   104 B   105 B   105 A   106 A                  
  2.635   2.679   2.693   2.705   2.710   2.731   2.759   2.765
106 B   107 B   107 A   108 B   109 B   108 A   109 A   110 B                  
  2.769   2.770   2.783   2.789   2.793   2.849   2.894   2.898
110 A   111 B   111 A   112 B   112 A   113 A   113 B   114 A                  
  2.908   2.917   2.944   2.959   3.010   3.011   3.015   3.025
114 B   115 B   115 A   116 A   117 A   116 B   117 B   118 A                  
  3.026   3.051   3.062   3.123   3.154   3.156   3.167   3.191
118 B   119 A   119 B   120 A   121 A   120 B   122 A   121 B                  
  3.207   3.213   3.246   3.253   3.259   3.269   3.270   3.291
123 A   122 B   124 A   123 B   125 A   126 A   124 B   125 B                  
  3.301   3.317   3.332   3.335   3.344   3.344   3.385   3.387
127 A   126 B   128 A   127 B   129 A   128 B   130 A   129 B                  
  3.410   3.429   3.434   3.441   3.450   3.456   3.463   3.484
130 B   131 B   131 A   132 A   132 B   133 A   134 A   133 B                  
  3.487   3.493   3.499   3.509   3.515   3.523   3.533   3.536
135 A   134 B   136 A   135 B   137 A   136 B   137 B   138 A                  
  3.545   3.565   3.576   3.593   3.599   3.607   3.636   3.658
138 B   139 A   140 A   139 B   141 A   142 A   140 B   141 B                  
  3.694   3.700   3.729   3.734   3.735   3.776   3.781   3.782
143 A   142 B   144 A   143 B   145 A   144 B   146 A   145 B                  
  3.836   3.840   3.863   3.887   3.889   3.911   3.920   3.931
146 B   147 A   147 B   148 B   148 A   149 A   150 A   149 B                  
  3.975   3.981   3.992   4.005   4.015   4.025   4.039   4.048
151 A   150 B   152 A   151 B   152 B   153 A   153 B   154 A                  
  4.077   4.120   4.123   4.133   4.158   4.169   4.178   4.187
154 B   155 B   155 A   156 A   156 B   157 A   157 B   158 A                  
  4.210   4.215   4.228   4.261   4.282   4.287   4.310   4.331
158 B   159 A   160 A   159 B   161 A   160 B   161 B   162 A                  
  4.355   4.365   4.376   4.410   4.426   4.462   4.526   4.526
162 B   163 A   164 A   163 B   164 B   165 A   165 B   166 A                  
  4.546   4.568   4.604   4.605   4.650   4.668   4.695   4.698
166 B   167 A   167 B   168 A   168 B   169 A   170 A   169 B                  
  4.708   4.737   4.760   4.776   4.784   4.816   4.839   4.884
170 B   171 A   171 B   172 B   172 A   173 A   173 B   174 B                  
  4.898   4.963   4.983   5.019   5.026   5.058   5.065   5.079
174 A   175 A   175 B   176 B   176 A   177 B   177 A   178 A                  
  5.086   5.114   5.194   5.244   5.248   5.292   5.315   5.381
178 B   179 A   179 B   180 B   180 A   181 B   181 A   182 A                  
  5.394   5.415   5.429   5.506   5.558   5.602   5.643   5.672
182 B   183 A   183 B   184 A   184 B   185 A   186 A   185 B                  
  5.773   5.919   5.939   6.053   6.092   6.141   6.175   6.225
186 B   187 A   187 B   188 A   188 B   189 A   189 B   190 B                  
  6.236   6.550   6.567   6.725   6.747   9.514  10.757  11.801
190 A   191 A   191 B   192 A   192 B   193 A   193 B   194 A                  
 12.263  13.565  13.606  14.615  14.663
194 B   195 A   195 B   196 B   196 A                                          
 --------------------------------------------------------------
 
          Ground-State Mulliken Net Atomic Charges

     Atom                 Charge (a.u.)
  ----------------------------------------
      1 S                     0.120078
      2 C                    -0.237701
      3 C                    -0.193767
      4 C                    -0.211313
      5 C                    -0.010557
      6 H                     0.174680
      7 C                    -0.010557
      8 S                     0.120078
      9 C                    -0.211313
     10 C                    -0.237701
     11 C                    -0.193767
     12 H                     0.174220
     13 H                     0.184360
     14 H                     0.174220
     15 H                     0.184360
     16 H                     0.174680
  ----------------------------------------
  Sum of atomic charges =     0.000000

 -----------------------------------------------------------------
                    Cartesian Multipole Moments
 -----------------------------------------------------------------
    Charge (ESU x 10^10)
                 0.0000
    Dipole Moment (Debye)
         X      -0.0000      Y       0.0000      Z       0.3811
       Tot       0.3811
    Quadrupole Moments (Debye-Ang)
        XX     -61.2630     XY       0.7712     YY     -69.4995
        XZ      -0.0000     YZ      -0.0000     ZZ     -76.2907
    Octopole Moments (Debye-Ang^2)
       XXX      -0.0000    XXY      -0.0000    XYY      -0.0000
       YYY       0.0000    XXZ      -2.4581    XYZ       9.1115
       YYZ       5.9925    XZZ      -0.0000    YZZ       0.0000
       ZZZ      -1.9399
    Hexadecapole Moments (Debye-Ang^3)
      XXXX   -1836.0577   XXXY     -15.7153   XXYY    -407.3077
      XYYY      10.8523   YYYY    -491.7810   XXXZ      -0.0000
      XXYZ      -0.0000   XYYZ       0.0000   YYYZ      -0.0000
      XXZZ    -407.2538   XYZZ      -1.2646   YYZZ    -109.8807
      XZZZ      -0.0000   YZZZ      -0.0000   ZZZZ    -178.1487
 -----------------------------------------------------------------
Archival summary:
1\1\nid01282\OPT\MP2\BasisUnspecified\286\MonMar616:53:282017MonMar616:53:282017\0\\#,OPT,MP2,BasisUnspecified,\\0,1\S\C,1,1.70567\H,2,1.07183,1,120.402\C,2,1.37336,1,111.428,3,-179.9,0\H,4,1.07436,2,123.036,1,-179.947,0\C,4,1.40402,2,112.595,1,-0.617445,0\H,6,1.07517,4,124.705,2,-178.282,0\C,6,1.37871,4,113.072,2,0.488104,0\C,8,1.44079,6,128.839,4,-177.828,0\C,9,1.37871,8,128.839,6,130,0\H,10,1.07517,9,122.212,8,0.97688,0\C,10,1.40402,9,113.072,8,-177.828,0\H,12,1.07436,10,124.365,9,179.808,0\C,12,1.37336,10,112.595,9,0.488104,0\H,14,1.07183,12,128.17,10,179.492,0\S,14,1.70567,12,111.428,10,-0.617445,0\\HF=-1101.59873\MP2=-1103.41345\\@

 Total job time:  10382.89s(wall), 53772.71s(cpu) 
 Mon Mar  6 16:53:28 2017

        *************************************************************
        *                                                           *
        *  Thank you very much for using Q-Chem.  Have a nice day.  *
        *                                                           *
        *************************************************************


0 sent ACK to 0 
now end server 0 ... 
