srun -N 1 --ntasks-per-node 1 --cpus-per-task 64 --cpu_bind=cores --nodelist nid01259 /global/project/projectdirs/jcesr/qchem/qc44/cnl_qc441/dist/exe/qcprog.cori.haswell.exe .pt_mp2_-160.0.in.29321.qcin.1 /dev/shm/eg_qchem/qchem29321/
Process 0 of 1 is on nid01259 - thread support 0
initial socket setup ...start
initial socket setup ...done 
now start server 0 ... 
nid01259 10.128.4
Q-Chem Developer Version! Running on 10.128.4.*
                  Welcome to Q-Chem
     A Quantum Leap Into The Future Of Chemistry


 Q-Chem 4.4, Q-Chem, Inc., Pleasanton, CA (2016)

 Y. Shao,  Z. Gan,  E. Epifanovsky,  A. T. B. Gilbert,  M. Wormit,  
 J. Kussmann,  A. W. Lange,  A. Behn,  J. Deng,  X. Feng,  D. Ghosh,  
 M. Goldey,  P. R. Horn,  L. D. Jacobson,  I. Kaliman,  F.Rob,  
 R. Z. Khaliullin,  T. Kus,  A. Landau,  J. Liu,  E. I. Proynov,  Y. M. Rhee,  
 R. M. Richard,  M. A. Rohrdanz,  R. P. Steele,  E. J. Sundstrom,  
 H. L. Woodcock III,  P. M. Zimmerman,  D. Zuev,  B. Albrecht,  E. Alguire,  
 B. Austin,  S. A. Baeppler,  G. J. O. Beran,  Y. A. Bernard,  E. Berquist,  
 K. Brandhorst,  K. B. Bravaya,  S. T. Brown,  D. Casanova,  C.-M. Chang,  
 Y. Chen,  S. H. Chien,  K. D. Closser,  M. P. Coons,  D. L. Crittenden,  
 S. Dasgupta,  M. Diedenhofen,  R. A. DiStasio Jr.,  H. Do,  A. D. Dutoi,  
 R. G. Edgar,  P.-T. Fang,  S. Fatehi,  Q. Feng,  L. Fusti-Molnar,  
 A. Ghysels,  A. Golubeva-Zadorozhnaya,  J. Gomes,  A. Gunina,  
 M. W. D. Hanson-Heine,  P. H. P. Harbach,  A. W. Hauser,  E. G. Hohenstein,  
 Z. C. Holden,  K. Hui,  T.-C. Jagau,  H. Ji,  B. Kaduk,  K. Khistyaev,  
 Jaehoon Kim,  Jihan Kim,  R. A. King,  P. Klunzinger,  D. Kosenkov,  
 T. Kowalczyk,  C. M. Krauter,  A. Kunitsa,  K. U. Lao,  A. Laurent,  
 K. V. Lawler,  D. Lefrancois,  S. Lehtola,  S. V. Levchenko,  C. Y. Lin,  
 Y.-S. Lin,  F. Liu,  E. Livshits,  R. C. Lochan,  A. Luenser,  P. Manohar,  
 S. F. Manzer,  S.-P. Mao,  Y. Mao,  N. Mardirossian,  A. V. Marenich,  
 L. A. Martinez-Martinez,  S. A. Maurer,  N. J. Mayhall,  J.-M. Mewes,  
 A. F. Morrison,  K. Nanda,  C. M. Oana,  R. Olivares-Amaya,  D. P. O'Neill,  
 J. A. Parkhill,  T. M. Perrine,  R. Peverati,  P. A. Pieniazek,  F. Plasser,  
 A. Prociuk,  D. R. Rehn,  E. Rosta,  N. J. Russ,  N. Sergueev,  
 S. M. Sharada,  S. Sharma,  D. W. Small,  A. Sodt,  T. Stauch,  T. Stein,  
 D. Stuck,  Y.-C. Su,  A. J. W. Thom,  T. Tsuchimochi,  L. Vogt,  O. Vydrov,  
 T. Wang,  M. A. Watson,  J. Wenzel,  A. White,  C. F. Williams,  
 V. Vanovschi,  S. Yeganeh,  S. R. Yost,  Z.-Q. You,  I. Y. Zhang,  X. Zhang,  
 Y. Zhao,  B. R. Brooks,  G. K. L. Chan,  D. M. Chipman,  C. J. Cramer,  
 W. A. Goddard III,  M. S. Gordon,  W. J. Hehre,  A. Klamt,  
 H. F. Schaefer III,  M. W. Schmidt,  C. D. Sherrill,  D. G. Truhlar,  
 A. Warshel,  X. Xu,  A. Aspuru-Guzik,  R. Baer,  A. T. Bell,  N. A. Besley,  
 J.-D. Chai,  A. Dreuw,  B. D. Dunietz,  T. R. Furlani,  S. R. Gwaltney,  
 C.-P. Hsu,  Y. Jung,  J. Kong,  D. S. Lambrecht,  W. Liang,  C. Ochsenfeld,  
 V. A. Rassolov,  L. V. Slipchenko,  J. E. Subotnik,  T. Van Voorhis,  
 J. M. Herbert,  A. I. Krylov,  P. M. W. Gill,  M. Head-Gordon

 Contributors to earlier versions of Q-Chem not listed above: 
 R. D. Adamson,  J. Baker,  E. F. C. Byrd,  A. K. Chakraborty,  C.-L. Cheng,  
 H. Dachsel,  R. J. Doerksen,  G. Hawkins,  A. Heyden,  S. Hirata,  
 G. Kedziora,  F. J. Keil,  C. Kelley,  P. P. Korambath,  W. Kurlancheek,  
 A. M. Lee,  M. S. Lee,  D. Liotard,  I. Lotan,  P. E. Maslen,  N. Nair,  
 D. Neuhauser,  R. Olson,  B. Peters,  J. Ritchie,  N. E. Schultz,  
 N. Shenvi,  A. C. Simmonett,  K. S. Thanthiriwatte,  Q. Wu,  W. Zhang

 Please cite Q-Chem as follows:
 Y. Shao et al., Mol. Phys. 113, 184-215 (2015)
 DOI: 10.1080/00268976.2014.952696

 Q-Chem 4.4.1 for Intel X86 EM64T Linux

 Parts of Q-Chem use Armadillo 5.200.1 (Boston Tea Smuggler).
 http://arma.sourceforge.net/

 Q-Chem begins on Mon Mar  6 14:00:22 2017  

Host: nid01196
0

     Scratch files written to /dev/shm/eg_qchem/qchem29321//
 Parallel job on  1  processors

Checking the input file for inconsistencies... 	...done.

--------------------------------------------------------------
User input:
--------------------------------------------------------------
$molecule
 0  1
 S           1.80900300       -1.15938900        0.25896800
 C           3.16466000       -0.14246800        0.05606700
 C           2.78757500        1.14089100       -0.25226100
 C           1.39402000        1.28822000       -0.33563400
 C           0.70898100        0.11689900       -0.08798100
 H           0.89277600        2.20524100       -0.58940400
 C          -0.70898100       -0.11689900       -0.08798100
 S          -1.77660743        0.96291301       -0.89638245
 C          -1.41804546       -1.14250792        0.50189801
 C          -3.14823301        0.04283991       -0.46602006
 C          -2.80246397       -1.05059086        0.28838202
 H          -3.52137443       -1.75677283        0.66072229
 H           4.15569300       -0.53353100        0.17259300
 H           3.49202900        1.93475000       -0.41867900
 H          -4.12511496        0.34807821       -0.78411787
 H          -0.93714446       -1.93615065        1.04543985
$end


$rem
         jobtype = opt
        exchange = hf
           basis = cc-pvtz
  max_scf_cycles = 100
      mem_static = 6200
       mem_total = 62000
          method = mp2
$end


$opt
CONSTRAINT
tors 4 5 7 9 -160.0
ENDCONSTRAINT
$end

--------------------------------------------------------------
 Atom  10: ( -3.1650115224,  0.1502833232, -0.0660411487)
         ->( -3.1650115238,  0.1502833255, -0.0660411427)
 Atom   9: ( -1.3937784975, -1.2987625070,  0.2477479203)
         ->( -1.3937785006, -1.2987625117,  0.2477479200)
 Atom  15: ( -4.1557216657,  0.5441095046, -0.1758105956)
         ->( -4.1557216718,  0.5441095013, -0.1758105898)
 ----------------------------------------------------------------
             Standard Nuclear Orientation (Angstroms)
    I     Atom           X                Y                Z
 ----------------------------------------------------------------
    1      S       1.8105667170    -1.1814181387    -0.1899092171
    2      C       3.1650115238    -0.1502833255    -0.0660411427
    3      C       2.7875425919     1.1469359725     0.1768762799
    4      C       1.3937785006     1.2987625117     0.2477479200
    5      C       0.7091438210     0.1159071901     0.0613827713
    6      H       0.8906200719     2.2360473842     0.4055482311
    7      C      -0.7091438196    -0.1159071901     0.0613827712
    8      S      -1.8105667199     1.1814181383    -0.1899092147
    9      C      -1.3937785006    -1.2987625117     0.2477479200
   10      C      -3.1650115238     0.1502833255    -0.0660411427
   11      C      -2.7875425914    -1.1469359732     0.1768762841
   12      H      -3.4912977832    -1.9508738273     0.2890148491
   13      H       4.1557216718    -0.5441095013    -0.1758105898
   14      H       3.4912977865     1.9508738236     0.2890148472
   15      H      -4.1557216718     0.5441095013    -0.1758105898
   16      H      -0.8906200731    -2.2360473876     0.4055482341
 ----------------------------------------------------------------
 Molecular Point Group                 C2    NOp =  2
 Largest Abelian Subgroup              C2    NOp =  2
 Nuclear Repulsion Energy =   636.6806093406 hartrees
 There are       43 alpha and       43 beta electrons
 Requested basis set is cc-pVTZ
 There are 140 shells and 392 basis functions

 Total QAlloc Memory Limit  62000 MB
 Mega-Array Size      6061 MB
 MEM_STATIC part      6200 MB
 A cutoff of  1.0D-11 yielded   8033 shell pairs
 There are     62405 function pairs (     81355 Cartesian)
 
 -------------------------------------------------------
 OpenMP Integral Computing Module                       
 Release: version 1.0, May 2013, Q-Chem Inc. Pittsburgh 
 -------------------------------------------------------
 Integral Job Info:
 Integral job number is                      11
 Integral operator is                         1
 short-range coefficients                     0
 long-range coefficients              100000000
 Omega coefficients                           0
 if combine SR and LR in K                    0
 Integral screening is                        0
 Integral computing path is                   2
 max size of driver memory is            800000
 size of driver memory is                776718
 size of scratch memory is             26248924
 max col of scratch BK array              10000
 max len of scratch array in speh3          662
 max len of scratch index in speh4           32
 max int batch size is                      520
 min int batch size is                       52
 fixed nKL is                                52
 max L of basis functions is                  3
 order of int derivative is                   0
 number of shells is                        140
 number of basis is                         448
 number of cartesian basis is               448
 number of contracted shell pairs          8033
 number of primitive shell pairs          28591
 maxK2 (contraction) of shell pair          121
 max number of K2 of shell pair               1
 max number of CS2 of shell pair           1054
 max number of PS2 of shell pair           3080
 mem total for path MDJ                  223748
 -------------------------------------------------------
 Smallest overlap matrix eigenvalue = 6.93E-05

 Scale SEOQF with 1.000000e-01/1.000000e-01/1.000000e+00

 Standard Electronic Orientation quadrupole field applied
 Nucleus-field energy     =     0.0000000185 hartrees
 Guess from superposition of atomic densities
 Warning:  Energy on first SCF cycle will be non-variational
 A restricted Hartree-Fock SCF calculation will be
 performed using Pulay DIIS extrapolation
 SCF converges when DIIS error is below 1.0E-08
 using 16 threads for integral computing 
 ---------------------------------------
  Cycle       Energy         DIIS Error
 ---------------------------------------
    1   -1106.0204493007      2.98E-02
    2   -1090.7805648418      1.63E-02
    3   -1101.1686460610      4.21E-03
    4   -1101.5223158554      1.92E-03
    5   -1101.5908079746      5.85E-04
    6   -1101.5977132116      1.99E-04
    7   -1101.5986948578      4.15E-05
    8   -1101.5987964813      1.97E-05
    9   -1101.5988242730      8.10E-06
   10   -1101.5988303296      2.52E-06
   11   -1101.5988310278      7.94E-07
   12   -1101.5988310980      3.35E-07
   13   -1101.5988311065      8.61E-08
   14   -1101.5988311036      4.01E-08
   15   -1101.5988311024      8.79E-09 Convergence criterion met
 ---------------------------------------
 SCF time:  CPU 600.44 s  wall 37.59 s
 SCF   energy in the final basis set = -1101.5988311024
 Total energy in the final basis set = -1101.5988311024
 
 Components of the MP2 correlation energy:
        aaaa  correlation energy =        -0.2323156761 au
        abab  correlation energy =        -1.3503817863 au
        bbbb  correlation energy =        -0.2323156761 au
        non-Brillouin singles    =        -0.0000000000 au

 Total  MP2   correlation energy =        -1.8150131386 au
        MP2         total energy =     -1103.4138442410 au

  Entering Z-vector solver.
   1         0           1      0.000264    0.000264
   2         0           1      0.000116    0.000116
   3         0           1      0.000049    0.000049
   4         0           1      0.000024    0.000024
   5         0           1      0.000006    0.000006
   6         0           1      0.000002    0.000002
   7         1           0      0.000000    0.000000    Roots Converged
 
 --------------------------------------------------------------
             Orbital Energies (a.u.) and Symmetries
 --------------------------------------------------------------
 
 Alpha MOs, Restricted
 -- Occupied --                  
-91.984 -91.984 -11.276 -11.275 -11.262 -11.262 -11.239 -11.239
  1 A     1 B     2 A     2 B     3 B     3 A     4 B     4 A                  
-11.237 -11.237  -8.986  -8.986  -6.667  -6.667  -6.667  -6.667
  5 A     5 B     6 A     6 B     7 B     7 A     8 A     8 B                  
 -6.666  -6.666  -1.197  -1.167  -1.036  -1.001  -0.985  -0.948
  9 B     9 A    10 A    10 B    11 A    11 B    12 A    12 B                  
 -0.810  -0.781  -0.745  -0.718  -0.708  -0.645  -0.572  -0.572
 13 A    13 B    14 A    14 B    15 A    15 B    16 A    16 B                  
 -0.558  -0.555  -0.549  -0.513  -0.513  -0.484  -0.466  -0.375
 17 A    17 B    18 A    18 B    19 A    19 B    20 A    21 A                  
 -0.355  -0.348  -0.279
 20 B    22 A    21 B                                                          
 -- Virtual --                   
  0.073   0.144   0.148   0.153   0.163   0.172   0.183   0.191
 23 A    22 B    23 B    24 A    25 A    24 B    25 B    26 A                  
  0.197   0.205   0.212   0.228   0.261   0.273   0.321   0.346
 27 A    26 B    28 A    27 B    28 B    29 A    29 B    30 A                  
  0.352   0.363   0.369   0.370   0.397   0.403   0.423   0.444
 31 A    30 B    32 A    31 B    33 A    32 B    33 B    34 B                  
  0.445   0.457   0.461   0.465   0.479   0.481   0.514   0.520
 34 A    35 B    35 A    36 A    36 B    37 A    38 A    37 B                  
  0.533   0.538   0.539   0.546   0.554   0.554   0.563   0.571
 39 A    38 B    39 B    40 A    41 A    40 B    41 B    42 A                  
  0.577   0.591   0.595   0.604   0.612   0.619   0.622   0.627
 42 B    43 A    43 B    44 B    44 A    45 B    45 A    46 A                  
  0.627   0.646   0.648   0.657   0.663   0.676   0.707   0.710
 46 B    47 B    47 A    48 A    49 A    48 B    50 A    49 B                  
  0.770   0.779   0.791   0.797   0.816   0.836   0.845   0.849
 51 A    50 B    51 B    52 A    52 B    53 B    54 B    53 A                  
  0.861   0.871   0.881   0.896   0.910   0.931   0.954   0.969
 55 B    54 A    56 B    55 A    56 A    57 A    57 B    58 A                  
  0.981   0.994   1.004   1.018   1.024   1.030   1.066   1.086
 58 B    59 A    60 A    59 B    61 A    60 B    62 A    61 B                  
  1.094   1.095   1.113   1.115   1.148   1.151   1.168   1.169
 63 A    62 B    64 A    63 B    64 B    65 B    65 A    66 B                  
  1.172   1.190   1.195   1.230   1.243   1.254   1.267   1.282
 66 A    67 B    67 A    68 A    69 A    68 B    69 B    70 A                  
  1.287   1.307   1.324   1.341   1.394   1.396   1.415   1.434
 70 B    71 A    71 B    72 A    72 B    73 A    74 A    73 B                  
  1.446   1.450   1.468   1.485   1.489   1.515   1.529   1.536
 75 A    74 B    76 A    75 B    76 B    77 A    77 B    78 B                  
  1.539   1.561   1.563   1.577   1.594   1.616   1.626   1.650
 78 A    79 B    79 A    80 B    80 A    81 A    81 B    82 A                  
  1.671   1.686   1.710   1.734   1.755   1.781   1.816   1.836
 82 B    83 B    83 A    84 B    84 A    85 A    85 B    86 B                  
  1.846   1.862   1.874   1.891   1.901   1.912   1.919   1.939
 86 A    87 A    87 B    88 A    88 B    89 B    89 A    90 A                  
  1.953   1.978   2.032   2.062   2.065   2.088   2.132   2.172
 90 B    91 B    91 A    92 B    92 A    93 A    93 B    94 A                  
  2.175   2.191   2.194   2.201   2.253   2.262   2.274   2.292
 94 B    95 A    95 B    96 B    96 A    97 B    97 A    98 B                  
  2.297   2.300   2.322   2.373   2.405   2.428   2.438   2.461
 98 A    99 B    99 A   100 B   100 A   101 B   101 A   102 B                  
  2.463   2.508   2.518   2.534   2.538   2.565   2.585   2.602
102 A   103 A   104 A   103 B   104 B   105 B   105 A   106 A                  
  2.630   2.652   2.695   2.703   2.725   2.731   2.750   2.758
106 B   107 B   108 B   107 A   109 B   108 A   109 A   110 B                  
  2.766   2.769   2.795   2.803   2.811   2.828   2.881   2.901
111 B   110 A   112 B   111 A   112 A   113 A   113 B   114 A                  
  2.906   2.933   2.940   2.973   2.988   3.008   3.013   3.016
114 B   115 B   115 A   116 B   116 A   117 B   117 A   118 B                  
  3.022   3.061   3.086   3.128   3.139   3.156   3.157   3.201
118 A   119 B   119 A   120 A   121 A   120 B   122 A   121 B                  
  3.202   3.210   3.245   3.247   3.250   3.271   3.276   3.287
123 A   122 B   123 B   124 A   124 B   125 A   125 B   126 A                  
  3.297   3.303   3.317   3.328   3.330   3.348   3.374   3.376
126 B   127 A   127 B   128 A   128 B   129 A   130 A   131 A                  
  3.389   3.428   3.434   3.441   3.453   3.463   3.471   3.479
129 B   130 B   131 B   132 A   133 A   134 A   132 B   135 A                  
  3.484   3.502   3.503   3.510   3.520   3.528   3.534   3.539
133 B   134 B   136 A   135 B   137 A   136 B   138 A   137 B                  
  3.547   3.557   3.560   3.574   3.597   3.618   3.644   3.668
138 B   139 A   140 A   141 A   139 B   142 A   140 B   141 B                  
  3.694   3.697   3.709   3.731   3.757   3.758   3.777   3.781
143 A   142 B   143 B   144 A   145 A   144 B   145 B   146 A                  
  3.826   3.839   3.864   3.888   3.893   3.898   3.940   3.943
146 B   147 A   147 B   148 A   149 A   148 B   149 B   150 A                  
  3.955   3.983   4.001   4.004   4.024   4.031   4.034   4.052
151 A   150 B   152 A   151 B   153 A   152 B   153 B   154 A                  
  4.087   4.096   4.117   4.127   4.153   4.173   4.180   4.191
155 A   154 B   155 B   156 B   156 A   157 A   157 B   158 A                  
  4.205   4.209   4.226   4.262   4.269   4.278   4.314   4.321
158 B   159 A   160 A   161 A   159 B   160 B   162 A   161 B                  
  4.335   4.368   4.380   4.411   4.420   4.464   4.514   4.533
163 A   162 B   164 A   163 B   164 B   165 A   166 A   165 B                  
  4.560   4.593   4.613   4.632   4.642   4.675   4.689   4.700
166 B   167 A   168 A   167 B   168 B   169 A   169 B   170 A                  
  4.710   4.733   4.755   4.758   4.786   4.814   4.826   4.871
171 A   170 B   172 A   171 B   172 B   173 B   173 A   174 B                  
  4.889   4.962   5.010   5.033   5.047   5.071   5.074   5.091
174 A   175 B   176 B   175 A   176 A   177 A   177 B   178 B                  
  5.091   5.138   5.185   5.250   5.263   5.291   5.317   5.392
178 A   179 A   179 B   180 A   180 B   181 B   181 A   182 A                  
  5.403   5.414   5.423   5.502   5.552   5.615   5.634   5.675
182 B   183 A   183 B   184 A   184 B   185 A   186 A   185 B                  
  5.762   5.936   5.937   6.078   6.097   6.161   6.163   6.269
186 B   187 B   187 A   188 A   188 B   189 B   189 A   190 B                  
  6.300   6.561   6.564   6.742   6.756   9.502  10.835  11.792
190 A   191 A   191 B   192 B   192 A   193 A   193 B   194 A                  
 12.376  13.626  13.721  14.627  14.746
194 B   195 B   195 A   196 B   196 A                                          
 
 Beta MOs, Restricted
 -- Occupied --                  
-91.984 -91.984 -11.276 -11.275 -11.262 -11.262 -11.239 -11.239
  1 A     1 B     2 A     2 B     3 B     3 A     4 B     4 A                  
-11.237 -11.237  -8.986  -8.986  -6.667  -6.667  -6.667  -6.667
  5 A     5 B     6 A     6 B     7 B     7 A     8 A     8 B                  
 -6.666  -6.666  -1.197  -1.167  -1.036  -1.001  -0.985  -0.948
  9 B     9 A    10 A    10 B    11 A    11 B    12 A    12 B                  
 -0.810  -0.781  -0.745  -0.718  -0.708  -0.645  -0.572  -0.572
 13 A    13 B    14 A    14 B    15 A    15 B    16 A    16 B                  
 -0.558  -0.555  -0.549  -0.513  -0.513  -0.484  -0.466  -0.375
 17 A    17 B    18 A    18 B    19 A    19 B    20 A    21 A                  
 -0.355  -0.348  -0.279
 20 B    22 A    21 B                                                          
 -- Virtual --                   
  0.073   0.144   0.148   0.153   0.163   0.172   0.183   0.191
 23 A    22 B    23 B    24 A    25 A    24 B    25 B    26 A                  
  0.197   0.205   0.212   0.228   0.261   0.273   0.321   0.346
 27 A    26 B    28 A    27 B    28 B    29 A    29 B    30 A                  
  0.352   0.363   0.369   0.370   0.397   0.403   0.423   0.444
 31 A    30 B    32 A    31 B    33 A    32 B    33 B    34 B                  
  0.445   0.457   0.461   0.465   0.479   0.481   0.514   0.520
 34 A    35 B    35 A    36 A    36 B    37 A    38 A    37 B                  
  0.533   0.538   0.539   0.546   0.554   0.554   0.563   0.571
 39 A    38 B    39 B    40 A    41 A    40 B    41 B    42 A                  
  0.577   0.591   0.595   0.604   0.612   0.619   0.622   0.627
 42 B    43 A    43 B    44 B    44 A    45 B    45 A    46 A                  
  0.627   0.646   0.648   0.657   0.663   0.676   0.707   0.710
 46 B    47 B    47 A    48 A    49 A    48 B    50 A    49 B                  
  0.770   0.779   0.791   0.797   0.816   0.836   0.845   0.849
 51 A    50 B    51 B    52 A    52 B    53 B    54 B    53 A                  
  0.861   0.871   0.881   0.896   0.910   0.931   0.954   0.969
 55 B    54 A    56 B    55 A    56 A    57 A    57 B    58 A                  
  0.981   0.994   1.004   1.018   1.024   1.030   1.066   1.086
 58 B    59 A    60 A    59 B    61 A    60 B    62 A    61 B                  
  1.094   1.095   1.113   1.115   1.148   1.151   1.168   1.169
 63 A    62 B    64 A    63 B    64 B    65 B    65 A    66 B                  
  1.172   1.190   1.195   1.230   1.243   1.254   1.267   1.282
 66 A    67 B    67 A    68 A    69 A    68 B    69 B    70 A                  
  1.287   1.307   1.324   1.341   1.394   1.396   1.415   1.434
 70 B    71 A    71 B    72 A    72 B    73 A    74 A    73 B                  
  1.446   1.450   1.468   1.485   1.489   1.515   1.529   1.536
 75 A    74 B    76 A    75 B    76 B    77 A    77 B    78 B                  
  1.539   1.561   1.563   1.577   1.594   1.616   1.626   1.650
 78 A    79 B    79 A    80 B    80 A    81 A    81 B    82 A                  
  1.671   1.686   1.710   1.734   1.755   1.781   1.816   1.836
 82 B    83 B    83 A    84 B    84 A    85 A    85 B    86 B                  
  1.846   1.862   1.874   1.891   1.901   1.912   1.919   1.939
 86 A    87 A    87 B    88 A    88 B    89 B    89 A    90 A                  
  1.953   1.978   2.032   2.062   2.065   2.088   2.132   2.172
 90 B    91 B    91 A    92 B    92 A    93 A    93 B    94 A                  
  2.175   2.191   2.194   2.201   2.253   2.262   2.274   2.292
 94 B    95 A    95 B    96 B    96 A    97 B    97 A    98 B                  
  2.297   2.300   2.322   2.373   2.405   2.428   2.438   2.461
 98 A    99 B    99 A   100 B   100 A   101 B   101 A   102 B                  
  2.463   2.508   2.518   2.534   2.538   2.565   2.585   2.602
102 A   103 A   104 A   103 B   104 B   105 B   105 A   106 A                  
  2.630   2.652   2.695   2.703   2.725   2.731   2.750   2.758
106 B   107 B   108 B   107 A   109 B   108 A   109 A   110 B                  
  2.766   2.769   2.795   2.803   2.811   2.828   2.881   2.901
111 B   110 A   112 B   111 A   112 A   113 A   113 B   114 A                  
  2.906   2.933   2.940   2.973   2.988   3.008   3.013   3.016
114 B   115 B   115 A   116 B   116 A   117 B   117 A   118 B                  
  3.022   3.061   3.086   3.128   3.139   3.156   3.157   3.201
118 A   119 B   119 A   120 A   121 A   120 B   122 A   121 B                  
  3.202   3.210   3.245   3.247   3.250   3.271   3.276   3.287
123 A   122 B   123 B   124 A   124 B   125 A   125 B   126 A                  
  3.297   3.303   3.317   3.328   3.330   3.348   3.374   3.376
126 B   127 A   127 B   128 A   128 B   129 A   130 A   131 A                  
  3.389   3.428   3.434   3.441   3.453   3.463   3.471   3.479
129 B   130 B   131 B   132 A   133 A   134 A   132 B   135 A                  
  3.484   3.502   3.503   3.510   3.520   3.528   3.534   3.539
133 B   134 B   136 A   135 B   137 A   136 B   138 A   137 B                  
  3.547   3.557   3.560   3.574   3.597   3.618   3.644   3.668
138 B   139 A   140 A   141 A   139 B   142 A   140 B   141 B                  
  3.694   3.697   3.709   3.731   3.757   3.758   3.777   3.781
143 A   142 B   143 B   144 A   145 A   144 B   145 B   146 A                  
  3.826   3.839   3.864   3.888   3.893   3.898   3.940   3.943
146 B   147 A   147 B   148 A   149 A   148 B   149 B   150 A                  
  3.955   3.983   4.001   4.004   4.024   4.031   4.034   4.052
151 A   150 B   152 A   151 B   153 A   152 B   153 B   154 A                  
  4.087   4.096   4.117   4.127   4.153   4.173   4.180   4.191
155 A   154 B   155 B   156 B   156 A   157 A   157 B   158 A                  
  4.205   4.209   4.226   4.262   4.269   4.278   4.314   4.321
158 B   159 A   160 A   161 A   159 B   160 B   162 A   161 B                  
  4.335   4.368   4.380   4.411   4.420   4.464   4.514   4.533
163 A   162 B   164 A   163 B   164 B   165 A   166 A   165 B                  
  4.560   4.593   4.613   4.632   4.642   4.675   4.689   4.700
166 B   167 A   168 A   167 B   168 B   169 A   169 B   170 A                  
  4.710   4.733   4.755   4.758   4.786   4.814   4.826   4.871
171 A   170 B   172 A   171 B   172 B   173 B   173 A   174 B                  
  4.889   4.962   5.010   5.033   5.047   5.071   5.074   5.091
174 A   175 B   176 B   175 A   176 A   177 A   177 B   178 B                  
  5.091   5.138   5.185   5.250   5.263   5.291   5.317   5.392
178 A   179 A   179 B   180 A   180 B   181 B   181 A   182 A                  
  5.403   5.414   5.423   5.502   5.552   5.615   5.634   5.675
182 B   183 A   183 B   184 A   184 B   185 A   186 A   185 B                  
  5.762   5.936   5.937   6.078   6.097   6.161   6.163   6.269
186 B   187 B   187 A   188 A   188 B   189 B   189 A   190 B                  
  6.300   6.561   6.564   6.742   6.756   9.502  10.835  11.792
190 A   191 A   191 B   192 B   192 A   193 A   193 B   194 A                  
 12.376  13.626  13.721  14.627  14.746
194 B   195 B   195 A   196 B   196 A                                          
 --------------------------------------------------------------
 
          Ground-State Mulliken Net Atomic Charges

     Atom                 Charge (a.u.)
  ----------------------------------------
      1 S                     0.105999
      2 C                    -0.237452
      3 C                    -0.196252
      4 C                    -0.216057
      5 C                     0.021298
      6 H                     0.162639
      7 C                     0.021298
      8 S                     0.105999
      9 C                    -0.216058
     10 C                    -0.237451
     11 C                    -0.196253
     12 H                     0.174671
     13 H                     0.185155
     14 H                     0.174671
     15 H                     0.185155
     16 H                     0.162638
  ----------------------------------------
  Sum of atomic charges =     0.000000

 -----------------------------------------------------------------
                    Cartesian Multipole Moments
 -----------------------------------------------------------------
    Charge (ESU x 10^10)
                -0.0000
    Dipole Moment (Debye)
         X       0.0000      Y      -0.0000      Z       0.0754
       Tot       0.0754
    Quadrupole Moments (Debye-Ang)
        XX     -61.1845     XY       0.9968     YY     -68.0617
        XZ      -0.0000     YZ      -0.0000     ZZ     -77.8327
    Octopole Moments (Debye-Ang^2)
       XXX      -0.0000    XXY      -0.0000    XYY       0.0000
       YYY      -0.0000    XXZ      -3.1782    XYZ       4.0622
       YYZ       2.6395    XZZ      -0.0000    YZZ      -0.0000
       ZZZ      -2.0718
    Hexadecapole Moments (Debye-Ang^3)
      XXXX   -1833.6009   XXXY     -19.9943   XXYY    -409.0569
      XYYY      13.9737   YYYY    -541.8021   XXXZ      -0.0000
      XXYZ      -0.0000   XYYZ      -0.0000   YYYZ      -0.0000
      XXZZ    -407.1485   XYZZ      -7.4817   YYZZ    -119.0661
      XZZZ      -0.0000   YZZZ      -0.0000   ZZZZ    -110.6656
 -----------------------------------------------------------------
 DrvMan is completing analytic gradient of the MP2 energy
 MP2 relaxed dipole moment
            1
    1   0.0000000
    2  -0.0000000
    3   0.0296839
	Magnitude:	 0.030 au	 0.075 Debye
 MP2 energy read as -1103.413844
 Full Analytical Gradient of MP2 Energy (in au.)
             1             2             3             4             5
    1   -0.00001698   -0.00014758   -0.00005127   -0.00003450    0.00044143
    2   -0.00014701   -0.00017293   -0.00018266   -0.00008821    0.00031336
    3    0.00160794   -0.00161100    0.00147616    0.00245501   -0.00167067
             6             7             8             9            10
    1   -0.00016833   -0.00044143    0.00001698    0.00003451    0.00014758
    2    0.00009540   -0.00031336    0.00014701    0.00008821    0.00017293
    3   -0.00157513   -0.00167067    0.00160794    0.00245501   -0.00161100
            11            12            13            14            15
    1    0.00005127   -0.00000235    0.00002829    0.00000236   -0.00002829
    2    0.00018266   -0.00000894    0.00017479    0.00000894   -0.00017479
    3    0.00147617   -0.00000883   -0.00067349   -0.00000883   -0.00067349
            16
    1    0.00016833
    2   -0.00009540
    3   -0.00157513
 Gradient time:  CPU 1.51 s  wall 0.10 s
 Geometry Optimization Parameters
   NAtoms,    NIC,     NZ,  NCons,   NDum,   NFix, NCnnct, MaxDiis
       16     111       0       1       0       0       0       0


** CONSTRAINED OPTIMIZATION IN DELOCALIZED INTERNAL COORDINATES **
   Searching for a Minimum

   Optimization Cycle:   1

                       Coordinates (Angstroms)
     ATOM                X               Y               Z
      1  S         1.8105667184   -1.1814181385   -0.1899092159
      2  C         3.1650115238   -0.1502833255   -0.0660411427
      3  C         2.7875425916    1.1469359728    0.1768762820
      4  C         1.3937785006    1.2987625117    0.2477479200
      5  C         0.7091438203    0.1159071901    0.0613827713
      6  H         0.8906200725    2.2360473859    0.4055482326
      7  C        -0.7091438203   -0.1159071901    0.0613827713
      8  S        -1.8105667184    1.1814181385   -0.1899092159
      9  C        -1.3937785006   -1.2987625117    0.2477479200
     10  C        -3.1650115238    0.1502833255   -0.0660411427
     11  C        -2.7875425916   -1.1469359728    0.1768762820
     12  H        -3.4912977849   -1.9508738254    0.2890148482
     13  H         4.1557216718   -0.5441095013   -0.1758105898
     14  H         3.4912977849    1.9508738254    0.2890148482
     15  H        -4.1557216718    0.5441095013   -0.1758105898
     16  H        -0.8906200725   -2.2360473859    0.4055482326
   Point Group: c2    Number of degrees of freedom:    22


   Energy is  -1103.413844241

              Constraints and their Current Values
                                        Value     Constraint
   Dihedral:        4   5   7   9     -160.000     -160.000

 Attempting to Generate Delocalized Internal Coordinates

 21 Hessian modes will be used to form the next step
  Hessian Eigenvalues:
     0.045000    0.045000    0.045000    0.045002    0.045003    0.045012
     0.159945    0.159993    0.160000    0.221308    0.238060    0.249999
     0.326324    0.340049    0.365509    0.366895    0.370094    0.399848
     0.435412    0.463135    0.495504

 Minimum Search - Taking Simple RFO Step
 Searching for Lamda that Minimizes Along All modes
 Value Taken    Lamda =  -0.00031899
 Step Taken.  Stepsize is  0.083574

                             Maximum     Tolerance    Cnvgd?
         Gradient           0.003086      0.000300      NO
         Displacement       0.068354      0.001200      NO
         Energy change     *********      0.000001      NO


 New Cartesian Coordinates Obtained by Inverse Iteration

 Displacement from previous Coordinates is:  0.117441
 ----------------------------------------------------------------
             Standard Nuclear Orientation (Angstroms)
    I     Atom           X                Y                Z
 ----------------------------------------------------------------
    1      S       1.8122393342    -1.1785367574    -0.2081130249
    2      C       3.1666309324    -0.1509484631    -0.0545087538
    3      C       2.7874488840     1.1482449553     0.1728580442
    4      C       1.3932398952     1.2998553981     0.2346327072
    5      C       0.7090029286     0.1165483339     0.0483170381
    6      H       0.8906406489     2.2355681818     0.4038208763
    7      C      -0.7090029286    -0.1165483339     0.0483170381
    8      S      -1.8122393342     1.1785367574    -0.2081130249
    9      C      -1.3932398952    -1.2998553981     0.2346327072
   10      C      -3.1666309324     0.1509484631    -0.0545087538
   11      C      -2.7874488840    -1.1482449553     0.1728580442
   12      H      -3.4905946325    -1.9511502675     0.2956179556
   13      H       4.1581757150    -0.5477138863    -0.1438157370
   14      H       3.4905946325     1.9511502675     0.2956179556
   15      H      -4.1581757150     0.5477138863    -0.1438157370
   16      H      -0.8906406489    -2.2355681818     0.4038208763
 ----------------------------------------------------------------
 Molecular Point Group                 C2    NOp =  2
 Largest Abelian Subgroup              C2    NOp =  2
 Nuclear Repulsion Energy =   636.5929545921 hartrees
 There are       43 alpha and       43 beta electrons
 Applying Cartesian multipole field
    Component          Value
    ---------          -----
     (2,0,0)        1.00000E-11
     (0,2,0)        2.00000E-11
     (0,0,2)       -3.00000E-10
 Nucleus-field energy     =     0.0000000184 hartrees
 Requested basis set is cc-pVTZ
 There are 140 shells and 392 basis functions
 A cutoff of  1.0D-11 yielded   8033 shell pairs
 There are     62405 function pairs (     81355 Cartesian)
 Smallest overlap matrix eigenvalue = 6.96E-05
 Guess MOs from SCF MO coefficient file
 Reading MOs from coefficient file
 Reading MOs from coefficient file
 A restricted Hartree-Fock SCF calculation will be
 performed using Pulay DIIS extrapolation
 SCF converges when DIIS error is below 1.0E-08
 Geometry optimization detected.  Setting ReadMinima to 0
 Setting SaveMinima to 0
 using 16 threads for integral computing 
 ---------------------------------------
  Cycle       Energy         DIIS Error
 ---------------------------------------
    1   -1101.5982567068      2.75E-04
    2   -1101.5990986294      3.29E-05
    3   -1101.5991531566      1.22E-05
    4   -1101.5991632970      3.36E-06
    5   -1101.5991639190      1.70E-06
    6   -1101.5991640406      6.86E-07
    7   -1101.5991640655      2.45E-07
    8   -1101.5991640686      7.97E-08
    9   -1101.5991640690      3.02E-08
   10   -1101.5991640688      1.19E-08
   11   -1101.5991640689      3.67E-09 Convergence criterion met
 ---------------------------------------
 SCF time:  CPU 723.49 s  wall 45.25 s
 SCF   energy in the final basis set = -1101.5991640689
 Total energy in the final basis set = -1101.5991640689
 
 Components of the MP2 correlation energy:
        aaaa  correlation energy =        -0.2323117967 au
        abab  correlation energy =        -1.3503562612 au
        bbbb  correlation energy =        -0.2323117967 au
        non-Brillouin singles    =        -0.0000000000 au

 Total  MP2   correlation energy =        -1.8149798547 au
        MP2         total energy =     -1103.4141439235 au

  Entering Z-vector solver.
   1         0           1      0.000264    0.000264
   2         0           1      0.000116    0.000116
   3         0           1      0.000049    0.000049
   4         0           1      0.000024    0.000024
   5         0           1      0.000006    0.000006
   6         0           1      0.000002    0.000002
   7         1           0      0.000000    0.000000    Roots Converged
 
 --------------------------------------------------------------
             Orbital Energies (a.u.) and Symmetries
 --------------------------------------------------------------
 
 Alpha MOs, Restricted
 -- Occupied --                  
-91.984 -91.984 -11.276 -11.275 -11.262 -11.262 -11.239 -11.239
  1 A     1 B     2 A     2 B     3 B     3 A     4 B     4 A                  
-11.237 -11.237  -8.986  -8.986  -6.667  -6.667  -6.667  -6.667
  5 A     5 B     6 A     6 B     7 B     7 A     8 A     8 B                  
 -6.666  -6.666  -1.197  -1.167  -1.036  -1.000  -0.985  -0.949
  9 B     9 A    10 A    10 B    11 A    11 B    12 A    12 B                  
 -0.810  -0.781  -0.745  -0.718  -0.708  -0.645  -0.572  -0.572
 13 A    13 B    14 A    14 B    15 A    15 B    16 A    16 B                  
 -0.558  -0.555  -0.550  -0.513  -0.513  -0.483  -0.466  -0.375
 17 A    17 B    18 A    18 B    19 A    19 B    20 A    21 A                  
 -0.355  -0.348  -0.279
 20 B    22 A    21 B                                                          
 -- Virtual --                   
  0.073   0.144   0.149   0.153   0.163   0.172   0.183   0.192
 23 A    22 B    23 B    24 A    25 A    24 B    25 B    26 A                  
  0.197   0.205   0.211   0.228   0.261   0.272   0.321   0.345
 27 A    26 B    28 A    27 B    28 B    29 A    29 B    30 A                  
  0.351   0.362   0.369   0.370   0.398   0.403   0.423   0.444
 31 A    30 B    32 A    31 B    33 A    32 B    33 B    34 B                  
  0.444   0.457   0.461   0.464   0.479   0.481   0.514   0.522
 34 A    35 B    35 A    36 A    36 B    37 A    38 A    37 B                  
  0.531   0.538   0.539   0.546   0.553   0.554   0.563   0.571
 39 A    38 B    39 B    40 A    41 A    40 B    41 B    42 A                  
  0.577   0.593   0.594   0.605   0.612   0.616   0.622   0.627
 42 B    43 A    43 B    44 B    44 A    45 B    45 A    46 A                  
  0.628   0.646   0.648   0.659   0.664   0.676   0.708   0.710
 46 B    47 B    47 A    48 A    49 A    48 B    50 A    49 B                  
  0.770   0.779   0.790   0.797   0.816   0.837   0.846   0.848
 51 A    50 B    51 B    52 A    52 B    53 B    54 B    53 A                  
  0.858   0.873   0.885   0.898   0.907   0.930   0.955   0.969
 55 B    54 A    56 B    55 A    56 A    57 A    57 B    58 A                  
  0.980   0.994   1.003   1.018   1.023   1.030   1.066   1.089
 58 B    59 A    60 A    59 B    61 A    60 B    62 A    61 B                  
  1.096   1.096   1.111   1.114   1.147   1.154   1.168   1.170
 62 B    63 A    64 A    63 B    64 B    65 B    65 A    66 B                  
  1.172   1.188   1.196   1.230   1.243   1.254   1.267   1.282
 66 A    67 B    67 A    68 A    69 A    68 B    69 B    70 A                  
  1.286   1.307   1.324   1.341   1.395   1.396   1.414   1.433
 70 B    71 A    71 B    72 A    72 B    73 A    74 A    73 B                  
  1.446   1.449   1.467   1.484   1.489   1.516   1.529   1.538
 75 A    74 B    76 A    75 B    76 B    77 A    77 B    78 A                  
  1.539   1.563   1.564   1.575   1.593   1.616   1.625   1.649
 78 B    79 B    79 A    80 B    80 A    81 A    81 B    82 A                  
  1.671   1.687   1.710   1.736   1.755   1.780   1.817   1.837
 82 B    83 B    83 A    84 B    84 A    85 A    85 B    86 B                  
  1.845   1.862   1.874   1.893   1.901   1.912   1.921   1.940
 86 A    87 A    87 B    88 A    88 B    89 B    89 A    90 A                  
  1.954   1.978   2.032   2.061   2.065   2.089   2.132   2.170
 90 B    91 B    91 A    92 B    92 A    93 A    93 B    94 A                  
  2.175   2.191   2.194   2.202   2.254   2.263   2.274   2.291
 94 B    95 A    95 B    96 B    96 A    97 B    97 A    98 B                  
  2.297   2.298   2.320   2.373   2.406   2.428   2.439   2.461
 98 A    99 B    99 A   100 B   100 A   101 B   101 A   102 A                  
  2.462   2.508   2.517   2.533   2.538   2.565   2.586   2.603
102 B   103 A   104 A   103 B   104 B   105 B   105 A   106 A                  
  2.629   2.653   2.696   2.704   2.723   2.730   2.753   2.759
106 B   107 B   108 B   107 A   109 B   108 A   109 A   110 B                  
  2.766   2.768   2.794   2.803   2.811   2.825   2.882   2.901
111 B   110 A   112 B   111 A   112 A   113 A   113 B   114 A                  
  2.909   2.930   2.942   2.972   2.986   3.008   3.012   3.016
114 B   115 B   115 A   116 B   116 A   117 B   117 A   118 B                  
  3.022   3.060   3.088   3.128   3.139   3.155   3.158   3.202
118 A   119 B   119 A   120 A   121 A   120 B   122 A   121 B                  
  3.202   3.210   3.244   3.246   3.249   3.271   3.280   3.288
123 A   122 B   123 B   124 A   124 B   125 A   125 B   126 A                  
  3.296   3.301   3.318   3.328   3.330   3.349   3.373   3.376
126 B   127 A   127 B   128 A   128 B   129 A   130 A   131 A                  
  3.390   3.428   3.435   3.442   3.452   3.461   3.470   3.480
129 B   130 B   131 B   132 A   133 A   134 A   132 B   135 A                  
  3.486   3.502   3.502   3.509   3.520   3.527   3.534   3.539
133 B   136 A   134 B   135 B   137 A   136 B   138 A   137 B                  
  3.545   3.556   3.561   3.573   3.598   3.618   3.642   3.669
138 B   139 A   140 A   141 A   139 B   142 A   140 B   141 B                  
  3.693   3.700   3.708   3.732   3.757   3.759   3.775   3.783
143 A   142 B   143 B   144 A   144 B   145 A   145 B   146 A                  
  3.826   3.840   3.865   3.887   3.893   3.899   3.940   3.943
146 B   147 A   147 B   148 A   149 A   148 B   149 B   150 A                  
  3.954   3.986   3.999   4.004   4.023   4.030   4.032   4.052
151 A   150 B   152 A   151 B   153 A   152 B   153 B   154 A                  
  4.089   4.096   4.117   4.129   4.154   4.172   4.178   4.192
155 A   154 B   155 B   156 B   156 A   157 A   157 B   158 A                  
  4.205   4.209   4.223   4.262   4.272   4.276   4.312   4.321
158 B   159 A   160 A   161 A   159 B   160 B   162 A   161 B                  
  4.337   4.369   4.381   4.411   4.422   4.464   4.515   4.534
163 A   162 B   164 A   163 B   164 B   165 A   166 A   165 B                  
  4.557   4.593   4.613   4.633   4.639   4.676   4.693   4.701
166 B   167 A   168 A   167 B   168 B   169 A   169 B   170 A                  
  4.710   4.734   4.754   4.754   4.787   4.815   4.825   4.870
171 A   170 B   171 B   172 A   172 B   173 B   173 A   174 B                  
  4.889   4.962   5.011   5.036   5.045   5.071   5.073   5.089
174 A   175 B   176 B   175 A   176 A   177 A   177 B   178 A                  
  5.093   5.139   5.185   5.250   5.261   5.291   5.318   5.393
178 B   179 A   179 B   180 A   180 B   181 B   181 A   182 A                  
  5.403   5.415   5.422   5.501   5.552   5.615   5.634   5.675
182 B   183 A   183 B   184 A   184 B   185 A   186 A   185 B                  
  5.760   5.936   5.937   6.080   6.098   6.161   6.164   6.268
186 B   187 A   187 B   188 A   188 B   189 B   189 A   190 B                  
  6.298   6.560   6.564   6.743   6.756   9.503  10.834  11.791
190 A   191 A   191 B   192 B   192 A   193 A   193 B   194 A                  
 12.376  13.627  13.723  14.627  14.745
194 B   195 B   195 A   196 B   196 A                                          
 
 Beta MOs, Restricted
 -- Occupied --                  
-91.984 -91.984 -11.276 -11.275 -11.262 -11.262 -11.239 -11.239
  1 A     1 B     2 A     2 B     3 B     3 A     4 B     4 A                  
-11.237 -11.237  -8.986  -8.986  -6.667  -6.667  -6.667  -6.667
  5 A     5 B     6 A     6 B     7 B     7 A     8 A     8 B                  
 -6.666  -6.666  -1.197  -1.167  -1.036  -1.000  -0.985  -0.949
  9 B     9 A    10 A    10 B    11 A    11 B    12 A    12 B                  
 -0.810  -0.781  -0.745  -0.718  -0.708  -0.645  -0.572  -0.572
 13 A    13 B    14 A    14 B    15 A    15 B    16 A    16 B                  
 -0.558  -0.555  -0.550  -0.513  -0.513  -0.483  -0.466  -0.375
 17 A    17 B    18 A    18 B    19 A    19 B    20 A    21 A                  
 -0.355  -0.348  -0.279
 20 B    22 A    21 B                                                          
 -- Virtual --                   
  0.073   0.144   0.149   0.153   0.163   0.172   0.183   0.192
 23 A    22 B    23 B    24 A    25 A    24 B    25 B    26 A                  
  0.197   0.205   0.211   0.228   0.261   0.272   0.321   0.345
 27 A    26 B    28 A    27 B    28 B    29 A    29 B    30 A                  
  0.351   0.362   0.369   0.370   0.398   0.403   0.423   0.444
 31 A    30 B    32 A    31 B    33 A    32 B    33 B    34 B                  
  0.444   0.457   0.461   0.464   0.479   0.481   0.514   0.522
 34 A    35 B    35 A    36 A    36 B    37 A    38 A    37 B                  
  0.531   0.538   0.539   0.546   0.553   0.554   0.563   0.571
 39 A    38 B    39 B    40 A    41 A    40 B    41 B    42 A                  
  0.577   0.593   0.594   0.605   0.612   0.616   0.622   0.627
 42 B    43 A    43 B    44 B    44 A    45 B    45 A    46 A                  
  0.628   0.646   0.648   0.659   0.664   0.676   0.708   0.710
 46 B    47 B    47 A    48 A    49 A    48 B    50 A    49 B                  
  0.770   0.779   0.790   0.797   0.816   0.837   0.846   0.848
 51 A    50 B    51 B    52 A    52 B    53 B    54 B    53 A                  
  0.858   0.873   0.885   0.898   0.907   0.930   0.955   0.969
 55 B    54 A    56 B    55 A    56 A    57 A    57 B    58 A                  
  0.980   0.994   1.003   1.018   1.023   1.030   1.066   1.089
 58 B    59 A    60 A    59 B    61 A    60 B    62 A    61 B                  
  1.096   1.096   1.111   1.114   1.147   1.154   1.168   1.170
 62 B    63 A    64 A    63 B    64 B    65 B    65 A    66 B                  
  1.172   1.188   1.196   1.230   1.243   1.254   1.267   1.282
 66 A    67 B    67 A    68 A    69 A    68 B    69 B    70 A                  
  1.286   1.307   1.324   1.341   1.395   1.396   1.414   1.433
 70 B    71 A    71 B    72 A    72 B    73 A    74 A    73 B                  
  1.446   1.449   1.467   1.484   1.489   1.516   1.529   1.538
 75 A    74 B    76 A    75 B    76 B    77 A    77 B    78 A                  
  1.539   1.563   1.564   1.575   1.593   1.616   1.625   1.649
 78 B    79 B    79 A    80 B    80 A    81 A    81 B    82 A                  
  1.671   1.687   1.710   1.736   1.755   1.780   1.817   1.837
 82 B    83 B    83 A    84 B    84 A    85 A    85 B    86 B                  
  1.845   1.862   1.874   1.893   1.901   1.912   1.921   1.940
 86 A    87 A    87 B    88 A    88 B    89 B    89 A    90 A                  
  1.954   1.978   2.032   2.061   2.065   2.089   2.132   2.170
 90 B    91 B    91 A    92 B    92 A    93 A    93 B    94 A                  
  2.175   2.191   2.194   2.202   2.254   2.263   2.274   2.291
 94 B    95 A    95 B    96 B    96 A    97 B    97 A    98 B                  
  2.297   2.298   2.320   2.373   2.406   2.428   2.439   2.461
 98 A    99 B    99 A   100 B   100 A   101 B   101 A   102 A                  
  2.462   2.508   2.517   2.533   2.538   2.565   2.586   2.603
102 B   103 A   104 A   103 B   104 B   105 B   105 A   106 A                  
  2.629   2.653   2.696   2.704   2.723   2.730   2.753   2.759
106 B   107 B   108 B   107 A   109 B   108 A   109 A   110 B                  
  2.766   2.768   2.794   2.803   2.811   2.825   2.882   2.901
111 B   110 A   112 B   111 A   112 A   113 A   113 B   114 A                  
  2.909   2.930   2.942   2.972   2.986   3.008   3.012   3.016
114 B   115 B   115 A   116 B   116 A   117 B   117 A   118 B                  
  3.022   3.060   3.088   3.128   3.139   3.155   3.158   3.202
118 A   119 B   119 A   120 A   121 A   120 B   122 A   121 B                  
  3.202   3.210   3.244   3.246   3.249   3.271   3.280   3.288
123 A   122 B   123 B   124 A   124 B   125 A   125 B   126 A                  
  3.296   3.301   3.318   3.328   3.330   3.349   3.373   3.376
126 B   127 A   127 B   128 A   128 B   129 A   130 A   131 A                  
  3.390   3.428   3.435   3.442   3.452   3.461   3.470   3.480
129 B   130 B   131 B   132 A   133 A   134 A   132 B   135 A                  
  3.486   3.502   3.502   3.509   3.520   3.527   3.534   3.539
133 B   136 A   134 B   135 B   137 A   136 B   138 A   137 B                  
  3.545   3.556   3.561   3.573   3.598   3.618   3.642   3.669
138 B   139 A   140 A   141 A   139 B   142 A   140 B   141 B                  
  3.693   3.700   3.708   3.732   3.757   3.759   3.775   3.783
143 A   142 B   143 B   144 A   144 B   145 A   145 B   146 A                  
  3.826   3.840   3.865   3.887   3.893   3.899   3.940   3.943
146 B   147 A   147 B   148 A   149 A   148 B   149 B   150 A                  
  3.954   3.986   3.999   4.004   4.023   4.030   4.032   4.052
151 A   150 B   152 A   151 B   153 A   152 B   153 B   154 A                  
  4.089   4.096   4.117   4.129   4.154   4.172   4.178   4.192
155 A   154 B   155 B   156 B   156 A   157 A   157 B   158 A                  
  4.205   4.209   4.223   4.262   4.272   4.276   4.312   4.321
158 B   159 A   160 A   161 A   159 B   160 B   162 A   161 B                  
  4.337   4.369   4.381   4.411   4.422   4.464   4.515   4.534
163 A   162 B   164 A   163 B   164 B   165 A   166 A   165 B                  
  4.557   4.593   4.613   4.633   4.639   4.676   4.693   4.701
166 B   167 A   168 A   167 B   168 B   169 A   169 B   170 A                  
  4.710   4.734   4.754   4.754   4.787   4.815   4.825   4.870
171 A   170 B   171 B   172 A   172 B   173 B   173 A   174 B                  
  4.889   4.962   5.011   5.036   5.045   5.071   5.073   5.089
174 A   175 B   176 B   175 A   176 A   177 A   177 B   178 A                  
  5.093   5.139   5.185   5.250   5.261   5.291   5.318   5.393
178 B   179 A   179 B   180 A   180 B   181 B   181 A   182 A                  
  5.403   5.415   5.422   5.501   5.552   5.615   5.634   5.675
182 B   183 A   183 B   184 A   184 B   185 A   186 A   185 B                  
  5.760   5.936   5.937   6.080   6.098   6.161   6.164   6.268
186 B   187 A   187 B   188 A   188 B   189 B   189 A   190 B                  
  6.298   6.560   6.564   6.743   6.756   9.503  10.834  11.791
190 A   191 A   191 B   192 B   192 A   193 A   193 B   194 A                  
 12.376  13.627  13.723  14.627  14.745
194 B   195 B   195 A   196 B   196 A                                          
 --------------------------------------------------------------
 
          Ground-State Mulliken Net Atomic Charges

     Atom                 Charge (a.u.)
  ----------------------------------------
      1 S                     0.106509
      2 C                    -0.237730
      3 C                    -0.196395
      4 C                    -0.216102
      5 C                     0.020178
      6 H                     0.163344
      7 C                     0.020178
      8 S                     0.106509
      9 C                    -0.216102
     10 C                    -0.237730
     11 C                    -0.196395
     12 H                     0.174882
     13 H                     0.185315
     14 H                     0.174882
     15 H                     0.185315
     16 H                     0.163344
  ----------------------------------------
  Sum of atomic charges =    -0.000000

 -----------------------------------------------------------------
                    Cartesian Multipole Moments
 -----------------------------------------------------------------
    Charge (ESU x 10^10)
                -0.0000
    Dipole Moment (Debye)
         X      -0.0000      Y      -0.0000      Z       0.1224
       Tot       0.1224
    Quadrupole Moments (Debye-Ang)
        XX     -61.1547     XY       0.9779     YY     -68.0895
        XZ       0.0000     YZ       0.0000     ZZ     -77.8180
    Octopole Moments (Debye-Ang^2)
       XXX      -0.0000    XXY      -0.0000    XYY       0.0000
       YYY      -0.0000    XXZ      -1.4877    XYZ       4.0810
       YYZ       3.3098    XZZ       0.0000    YZZ      -0.0000
       ZZZ      -0.1426
    Hexadecapole Moments (Debye-Ang^3)
      XXXX   -1834.0501   XXXY     -20.9443   XXYY    -409.1464
      XYYY      13.7428   YYYY    -541.5012   XXXZ      -0.0000
      XXYZ      -0.0000   XYYZ      -0.0000   YYYZ       0.0000
      XXZZ    -407.6866   XYZZ      -7.4802   YYZZ    -118.9205
      XZZZ       0.0000   YZZZ       0.0000   ZZZZ    -110.9656
 -----------------------------------------------------------------
 DrvMan is completing analytic gradient of the MP2 energy
 MP2 relaxed dipole moment
            1
    1  -0.0000000
    2  -0.0000000
    3   0.0481524
	Magnitude:	 0.048 au	 0.122 Debye
 MP2 energy read as -1103.414144
 Full Analytical Gradient of MP2 Energy (in au.)
             1             2             3             4             5
    1   -0.00008190   -0.00000939    0.00007062    0.00008669    0.00018310
    2    0.00012102   -0.00003845    0.00000354   -0.00023784    0.00010178
    3   -0.00006440    0.00014706   -0.00014841    0.00148859   -0.00028914
             6             7             8             9            10
    1   -0.00006198   -0.00018310    0.00008190   -0.00008669    0.00000939
    2    0.00014478   -0.00010178   -0.00012102    0.00023784    0.00003845
    3   -0.00099006   -0.00028914   -0.00006440    0.00148859    0.00014706
            11            12            13            14            15
    1   -0.00007062   -0.00002541    0.00000501    0.00002541   -0.00000501
    2   -0.00000354    0.00001403    0.00007452   -0.00001403   -0.00007452
    3   -0.00014841    0.00002476   -0.00016840    0.00002476   -0.00016840
            16
    1    0.00006198
    2   -0.00014478
    3   -0.00099006
 Gradient time:  CPU 1.47 s  wall 0.09 s
 Geometry Optimization Parameters
   NAtoms,    NIC,     NZ,  NCons,   NDum,   NFix, NCnnct, MaxDiis
       16     111       0       1       0       0       0       0

 Cartesian Hessian Update
 Hessian Updated using BFGS Update


** CONSTRAINED OPTIMIZATION IN DELOCALIZED INTERNAL COORDINATES **
   Searching for a Minimum

   Optimization Cycle:   2

                       Coordinates (Angstroms)
     ATOM                X               Y               Z
      1  S         1.8122393342   -1.1785367574   -0.2081130249
      2  C         3.1666309324   -0.1509484631   -0.0545087538
      3  C         2.7874488840    1.1482449553    0.1728580442
      4  C         1.3932398952    1.2998553981    0.2346327072
      5  C         0.7090029286    0.1165483339    0.0483170381
      6  H         0.8906406489    2.2355681818    0.4038208763
      7  C        -0.7090029286   -0.1165483339    0.0483170381
      8  S        -1.8122393342    1.1785367574   -0.2081130249
      9  C        -1.3932398952   -1.2998553981    0.2346327072
     10  C        -3.1666309324    0.1509484631   -0.0545087538
     11  C        -2.7874488840   -1.1482449553    0.1728580442
     12  H        -3.4905946325   -1.9511502675    0.2956179556
     13  H         4.1581757150   -0.5477138863   -0.1438157370
     14  H         3.4905946325    1.9511502675    0.2956179556
     15  H        -4.1581757150    0.5477138863   -0.1438157370
     16  H        -0.8906406489   -2.2355681818    0.4038208763
   Point Group: c2    Number of degrees of freedom:    22


   Energy is  -1103.414143924

              Constraints and their Current Values
                                        Value     Constraint
   Dihedral:        4   5   7   9     -160.000     -160.000
 Hessian Updated using BFGS Update

 21 Hessian modes will be used to form the next step
  Hessian Eigenvalues:
     0.028657    0.045000    0.045000    0.045001    0.045004    0.057302
     0.159775    0.159995    0.160030    0.221434    0.238622    0.250030
     0.326173    0.340047    0.365515    0.366894    0.370100    0.399998
     0.435451    0.463752    0.495620

 Minimum Search - Taking Simple RFO Step
 Searching for Lamda that Minimizes Along All modes
 Value Taken    Lamda =  -0.00005507
 Step Taken.  Stepsize is  0.042608

                             Maximum     Tolerance    Cnvgd?
         Gradient           0.000769      0.000300      NO
         Displacement       0.029930      0.001200      NO
         Energy change     -0.000300      0.000001      NO


 New Cartesian Coordinates Obtained by Inverse Iteration

 Displacement from previous Coordinates is:  0.038426
 ----------------------------------------------------------------
             Standard Nuclear Orientation (Angstroms)
    I     Atom           X                Y                Z
 ----------------------------------------------------------------
    1      S       1.8123570733    -1.1779164041    -0.2146313883
    2      C       3.1664512185    -0.1505975196    -0.0566804199
    3      C       2.7868791949     1.1484354252     0.1711271599
    4      C       1.3926892423     1.3000233741     0.2313566718
    5      C       0.7087978200     0.1165559992     0.0450119156
    6      H       0.8906782686     2.2335270494     0.4140511784
    7      C      -0.7087978200    -0.1165559992     0.0450119156
    8      S      -1.8123570733     1.1779164041    -0.2146313883
    9      C      -1.3926892423    -1.3000233741     0.2313566718
   10      C      -3.1664512185     0.1505975196    -0.0566804199
   11      C      -2.7868791949    -1.1484354252     0.1711271599
   12      H      -3.4897649996    -1.9506631763     0.2995296950
   13      H       4.1580684103    -0.5483076799    -0.1409557069
   14      H       3.4897649996     1.9506631763     0.2995296950
   15      H      -4.1580684103     0.5483076799    -0.1409557069
   16      H      -0.8906782686    -2.2335270494     0.4140511784
 ----------------------------------------------------------------
 Molecular Point Group                 C2    NOp =  2
 Largest Abelian Subgroup              C2    NOp =  2
 Nuclear Repulsion Energy =   636.5979845551 hartrees
 There are       43 alpha and       43 beta electrons
 Applying Cartesian multipole field
    Component          Value
    ---------          -----
     (2,0,0)        1.00000E-11
     (0,2,0)        2.00000E-11
     (0,0,2)       -3.00000E-10
 Nucleus-field energy     =     0.0000000184 hartrees
 Requested basis set is cc-pVTZ
 There are 140 shells and 392 basis functions
 A cutoff of  1.0D-11 yielded   8033 shell pairs
 There are     62405 function pairs (     81355 Cartesian)
 Smallest overlap matrix eigenvalue = 6.93E-05
 Guess MOs from SCF MO coefficient file
 Reading MOs from coefficient file
 Reading MOs from coefficient file
 A restricted Hartree-Fock SCF calculation will be
 performed using Pulay DIIS extrapolation
 SCF converges when DIIS error is below 1.0E-08
 Geometry optimization detected.  Setting ReadMinima to 0
 Setting SaveMinima to 0
 using 16 threads for integral computing 
 ---------------------------------------
  Cycle       Energy         DIIS Error
 ---------------------------------------
    1   -1101.5990488589      5.55E-05
    2   -1101.5991795687      9.72E-06
    3   -1101.5991843750      3.37E-06
    4   -1101.5991851664      9.67E-07
    5   -1101.5991852133      4.02E-07
    6   -1101.5991852192      1.67E-07
    7   -1101.5991852195      5.73E-08
    8   -1101.5991852202      1.51E-08
    9   -1101.5991852210      5.91E-09 Convergence criterion met
 ---------------------------------------
 SCF time:  CPU 593.49 s  wall 37.12 s
 SCF   energy in the final basis set = -1101.5991852210
 Total energy in the final basis set = -1101.5991852210
 
 Components of the MP2 correlation energy:
        aaaa  correlation energy =        -0.2323166441 au
        abab  correlation energy =        -1.3503625350 au
        bbbb  correlation energy =        -0.2323166441 au
        non-Brillouin singles    =        -0.0000000000 au

 Total  MP2   correlation energy =        -1.8149958232 au
        MP2         total energy =     -1103.4141810442 au

  Entering Z-vector solver.
   1         0           1      0.000264    0.000264
   2         0           1      0.000116    0.000116
   3         0           1      0.000049    0.000049
   4         0           1      0.000024    0.000024
   5         0           1      0.000006    0.000006
   6         0           1      0.000002    0.000002
   7         1           0      0.000000    0.000000    Roots Converged
 
 --------------------------------------------------------------
             Orbital Energies (a.u.) and Symmetries
 --------------------------------------------------------------
 
 Alpha MOs, Restricted
 -- Occupied --                  
-91.984 -91.984 -11.276 -11.275 -11.262 -11.262 -11.239 -11.239
  1 A     1 B     2 A     2 B     3 B     3 A     4 B     4 A                  
-11.237 -11.237  -8.986  -8.986  -6.667  -6.667  -6.667  -6.667
  5 A     5 B     6 A     6 B     7 B     7 A     8 A     8 B                  
 -6.666  -6.666  -1.197  -1.167  -1.036  -1.000  -0.985  -0.948
  9 B     9 A    10 A    10 B    11 A    11 B    12 A    12 B                  
 -0.810  -0.781  -0.745  -0.718  -0.708  -0.645  -0.572  -0.572
 13 A    13 B    14 A    14 B    15 A    15 B    16 A    16 B                  
 -0.558  -0.555  -0.549  -0.513  -0.512  -0.483  -0.466  -0.375
 17 A    17 B    18 A    18 B    19 A    19 B    20 A    21 A                  
 -0.354  -0.348  -0.279
 20 B    22 A    21 B                                                          
 -- Virtual --                   
  0.073   0.145   0.149   0.153   0.163   0.172   0.183   0.192
 23 A    22 B    23 B    24 A    25 A    24 B    25 B    26 A                  
  0.197   0.205   0.211   0.228   0.261   0.272   0.321   0.345
 27 A    26 B    28 A    27 B    28 B    29 A    29 B    30 A                  
  0.352   0.362   0.369   0.370   0.398   0.402   0.423   0.444
 31 A    30 B    32 A    31 B    33 A    32 B    33 B    34 A                  
  0.444   0.457   0.461   0.464   0.480   0.481   0.514   0.522
 34 B    35 B    35 A    36 A    36 B    37 A    38 A    37 B                  
  0.531   0.538   0.539   0.546   0.553   0.554   0.563   0.571
 39 A    38 B    39 B    40 A    41 A    40 B    41 B    42 A                  
  0.577   0.593   0.594   0.605   0.612   0.616   0.621   0.627
 42 B    43 A    43 B    44 B    44 A    45 B    45 A    46 A                  
  0.628   0.646   0.648   0.659   0.665   0.676   0.708   0.710
 46 B    47 B    47 A    48 A    49 A    48 B    50 A    49 B                  
  0.770   0.779   0.790   0.797   0.816   0.837   0.846   0.847
 51 A    50 B    51 B    52 A    52 B    53 B    54 B    53 A                  
  0.856   0.873   0.887   0.899   0.906   0.930   0.957   0.968
 55 B    54 A    56 B    55 A    56 A    57 A    57 B    58 A                  
  0.979   0.993   1.003   1.018   1.022   1.030   1.066   1.089
 58 B    59 A    60 A    59 B    61 A    60 B    62 A    61 B                  
  1.096   1.097   1.110   1.113   1.148   1.155   1.168   1.171
 62 B    63 A    64 A    63 B    64 B    65 B    65 A    66 B                  
  1.172   1.188   1.195   1.230   1.243   1.254   1.266   1.284
 66 A    67 B    67 A    68 A    69 A    68 B    69 B    70 A                  
  1.285   1.307   1.325   1.341   1.395   1.397   1.414   1.432
 70 B    71 A    71 B    72 A    72 B    73 A    74 A    73 B                  
  1.446   1.449   1.467   1.483   1.489   1.516   1.529   1.538
 75 A    74 B    76 A    75 B    76 B    77 A    77 B    78 A                  
  1.540   1.564   1.564   1.575   1.592   1.616   1.624   1.649
 78 B    79 B    79 A    80 B    80 A    81 A    81 B    82 A                  
  1.671   1.688   1.710   1.737   1.755   1.780   1.816   1.836
 82 B    83 B    83 A    84 B    84 A    85 A    85 B    86 B                  
  1.845   1.863   1.875   1.893   1.901   1.913   1.921   1.941
 86 A    87 A    87 B    88 A    88 B    89 B    89 A    90 A                  
  1.954   1.977   2.033   2.060   2.065   2.088   2.132   2.170
 90 B    91 B    91 A    92 B    92 A    93 A    93 B    94 A                  
  2.175   2.191   2.194   2.202   2.253   2.264   2.274   2.289
 94 B    95 A    95 B    96 B    96 A    97 B    97 A    98 B                  
  2.298   2.299   2.318   2.374   2.406   2.428   2.440   2.460
 99 B    98 A    99 A   100 B   100 A   101 B   101 A   102 A                  
  2.462   2.509   2.517   2.533   2.537   2.565   2.587   2.603
102 B   103 A   104 A   103 B   104 B   105 B   105 A   106 A                  
  2.629   2.654   2.697   2.705   2.722   2.730   2.754   2.759
106 B   107 B   108 B   107 A   109 B   108 A   109 A   110 B                  
  2.766   2.768   2.792   2.803   2.810   2.823   2.883   2.901
111 B   110 A   112 B   111 A   112 A   113 A   113 B   114 A                  
  2.909   2.929   2.943   2.973   2.984   3.009   3.011   3.015
114 B   115 B   115 A   116 B   116 A   117 B   117 A   118 B                  
  3.023   3.060   3.088   3.128   3.139   3.155   3.159   3.202
118 A   119 B   119 A   120 A   121 A   120 B   122 A   121 B                  
  3.203   3.210   3.243   3.246   3.249   3.270   3.281   3.288
123 A   122 B   123 B   124 A   124 B   125 A   125 B   126 A                  
  3.295   3.301   3.320   3.327   3.329   3.350   3.373   3.376
126 B   127 A   127 B   128 A   128 B   129 A   130 A   131 A                  
  3.390   3.428   3.436   3.442   3.452   3.461   3.468   3.480
129 B   130 B   131 B   132 A   133 A   134 A   132 B   135 A                  
  3.487   3.501   3.502   3.509   3.521   3.527   3.534   3.539
133 B   136 A   134 B   135 B   137 A   136 B   138 A   137 B                  
  3.545   3.556   3.562   3.573   3.598   3.618   3.642   3.669
138 B   139 A   140 A   141 A   139 B   142 A   140 B   141 B                  
  3.693   3.700   3.709   3.732   3.758   3.758   3.775   3.784
143 A   142 B   143 B   144 A   144 B   145 A   145 B   146 A                  
  3.826   3.840   3.865   3.886   3.893   3.899   3.940   3.943
146 B   147 A   147 B   148 A   149 A   148 B   149 B   150 A                  
  3.954   3.987   3.998   4.005   4.023   4.029   4.032   4.052
151 A   150 B   152 A   151 B   153 A   152 B   153 B   154 A                  
  4.090   4.096   4.117   4.130   4.155   4.173   4.177   4.192
155 A   154 B   155 B   156 B   156 A   157 A   157 B   158 A                  
  4.204   4.210   4.223   4.262   4.271   4.277   4.311   4.321
158 B   159 A   160 A   161 A   159 B   160 B   162 A   161 B                  
  4.337   4.369   4.381   4.411   4.423   4.463   4.515   4.534
163 A   162 B   164 A   163 B   164 B   165 A   166 A   165 B                  
  4.555   4.593   4.613   4.634   4.637   4.677   4.696   4.700
166 B   167 A   168 A   167 B   168 B   169 A   169 B   170 A                  
  4.711   4.734   4.751   4.753   4.788   4.817   4.825   4.869
171 A   170 B   171 B   172 A   172 B   173 B   173 A   174 B                  
  4.889   4.963   5.011   5.037   5.043   5.071   5.072   5.088
174 A   175 B   176 B   175 A   176 A   177 A   177 B   178 A                  
  5.094   5.139   5.184   5.251   5.260   5.292   5.319   5.394
178 B   179 A   179 B   180 A   180 B   181 B   181 A   182 A                  
  5.403   5.415   5.422   5.500   5.553   5.615   5.634   5.675
182 B   183 A   183 B   184 A   184 B   185 A   186 A   185 B                  
  5.759   5.937   5.937   6.080   6.098   6.161   6.164   6.267
186 B   187 A   187 B   188 A   188 B   189 B   189 A   190 B                  
  6.298   6.560   6.564   6.743   6.757   9.504  10.836  11.790
190 A   191 A   191 B   192 B   192 A   193 A   193 B   194 A                  
 12.378  13.627  13.723  14.628  14.746
194 B   195 B   195 A   196 B   196 A                                          
 
 Beta MOs, Restricted
 -- Occupied --                  
-91.984 -91.984 -11.276 -11.275 -11.262 -11.262 -11.239 -11.239
  1 A     1 B     2 A     2 B     3 B     3 A     4 B     4 A                  
-11.237 -11.237  -8.986  -8.986  -6.667  -6.667  -6.667  -6.667
  5 A     5 B     6 A     6 B     7 B     7 A     8 A     8 B                  
 -6.666  -6.666  -1.197  -1.167  -1.036  -1.000  -0.985  -0.948
  9 B     9 A    10 A    10 B    11 A    11 B    12 A    12 B                  
 -0.810  -0.781  -0.745  -0.718  -0.708  -0.645  -0.572  -0.572
 13 A    13 B    14 A    14 B    15 A    15 B    16 A    16 B                  
 -0.558  -0.555  -0.549  -0.513  -0.512  -0.483  -0.466  -0.375
 17 A    17 B    18 A    18 B    19 A    19 B    20 A    21 A                  
 -0.354  -0.348  -0.279
 20 B    22 A    21 B                                                          
 -- Virtual --                   
  0.073   0.145   0.149   0.153   0.163   0.172   0.183   0.192
 23 A    22 B    23 B    24 A    25 A    24 B    25 B    26 A                  
  0.197   0.205   0.211   0.228   0.261   0.272   0.321   0.345
 27 A    26 B    28 A    27 B    28 B    29 A    29 B    30 A                  
  0.352   0.362   0.369   0.370   0.398   0.402   0.423   0.444
 31 A    30 B    32 A    31 B    33 A    32 B    33 B    34 A                  
  0.444   0.457   0.461   0.464   0.480   0.481   0.514   0.522
 34 B    35 B    35 A    36 A    36 B    37 A    38 A    37 B                  
  0.531   0.538   0.539   0.546   0.553   0.554   0.563   0.571
 39 A    38 B    39 B    40 A    41 A    40 B    41 B    42 A                  
  0.577   0.593   0.594   0.605   0.612   0.616   0.621   0.627
 42 B    43 A    43 B    44 B    44 A    45 B    45 A    46 A                  
  0.628   0.646   0.648   0.659   0.665   0.676   0.708   0.710
 46 B    47 B    47 A    48 A    49 A    48 B    50 A    49 B                  
  0.770   0.779   0.790   0.797   0.816   0.837   0.846   0.847
 51 A    50 B    51 B    52 A    52 B    53 B    54 B    53 A                  
  0.856   0.873   0.887   0.899   0.906   0.930   0.957   0.968
 55 B    54 A    56 B    55 A    56 A    57 A    57 B    58 A                  
  0.979   0.993   1.003   1.018   1.022   1.030   1.066   1.089
 58 B    59 A    60 A    59 B    61 A    60 B    62 A    61 B                  
  1.096   1.097   1.110   1.113   1.148   1.155   1.168   1.171
 62 B    63 A    64 A    63 B    64 B    65 B    65 A    66 B                  
  1.172   1.188   1.195   1.230   1.243   1.254   1.266   1.284
 66 A    67 B    67 A    68 A    69 A    68 B    69 B    70 A                  
  1.285   1.307   1.325   1.341   1.395   1.397   1.414   1.432
 70 B    71 A    71 B    72 A    72 B    73 A    74 A    73 B                  
  1.446   1.449   1.467   1.483   1.489   1.516   1.529   1.538
 75 A    74 B    76 A    75 B    76 B    77 A    77 B    78 A                  
  1.540   1.564   1.564   1.575   1.592   1.616   1.624   1.649
 78 B    79 B    79 A    80 B    80 A    81 A    81 B    82 A                  
  1.671   1.688   1.710   1.737   1.755   1.780   1.816   1.836
 82 B    83 B    83 A    84 B    84 A    85 A    85 B    86 B                  
  1.845   1.863   1.875   1.893   1.901   1.913   1.921   1.941
 86 A    87 A    87 B    88 A    88 B    89 B    89 A    90 A                  
  1.954   1.977   2.033   2.060   2.065   2.088   2.132   2.170
 90 B    91 B    91 A    92 B    92 A    93 A    93 B    94 A                  
  2.175   2.191   2.194   2.202   2.253   2.264   2.274   2.289
 94 B    95 A    95 B    96 B    96 A    97 B    97 A    98 B                  
  2.298   2.299   2.318   2.374   2.406   2.428   2.440   2.460
 99 B    98 A    99 A   100 B   100 A   101 B   101 A   102 A                  
  2.462   2.509   2.517   2.533   2.537   2.565   2.587   2.603
102 B   103 A   104 A   103 B   104 B   105 B   105 A   106 A                  
  2.629   2.654   2.697   2.705   2.722   2.730   2.754   2.759
106 B   107 B   108 B   107 A   109 B   108 A   109 A   110 B                  
  2.766   2.768   2.792   2.803   2.810   2.823   2.883   2.901
111 B   110 A   112 B   111 A   112 A   113 A   113 B   114 A                  
  2.909   2.929   2.943   2.973   2.984   3.009   3.011   3.015
114 B   115 B   115 A   116 B   116 A   117 B   117 A   118 B                  
  3.023   3.060   3.088   3.128   3.139   3.155   3.159   3.202
118 A   119 B   119 A   120 A   121 A   120 B   122 A   121 B                  
  3.203   3.210   3.243   3.246   3.249   3.270   3.281   3.288
123 A   122 B   123 B   124 A   124 B   125 A   125 B   126 A                  
  3.295   3.301   3.320   3.327   3.329   3.350   3.373   3.376
126 B   127 A   127 B   128 A   128 B   129 A   130 A   131 A                  
  3.390   3.428   3.436   3.442   3.452   3.461   3.468   3.480
129 B   130 B   131 B   132 A   133 A   134 A   132 B   135 A                  
  3.487   3.501   3.502   3.509   3.521   3.527   3.534   3.539
133 B   136 A   134 B   135 B   137 A   136 B   138 A   137 B                  
  3.545   3.556   3.562   3.573   3.598   3.618   3.642   3.669
138 B   139 A   140 A   141 A   139 B   142 A   140 B   141 B                  
  3.693   3.700   3.709   3.732   3.758   3.758   3.775   3.784
143 A   142 B   143 B   144 A   144 B   145 A   145 B   146 A                  
  3.826   3.840   3.865   3.886   3.893   3.899   3.940   3.943
146 B   147 A   147 B   148 A   149 A   148 B   149 B   150 A                  
  3.954   3.987   3.998   4.005   4.023   4.029   4.032   4.052
151 A   150 B   152 A   151 B   153 A   152 B   153 B   154 A                  
  4.090   4.096   4.117   4.130   4.155   4.173   4.177   4.192
155 A   154 B   155 B   156 B   156 A   157 A   157 B   158 A                  
  4.204   4.210   4.223   4.262   4.271   4.277   4.311   4.321
158 B   159 A   160 A   161 A   159 B   160 B   162 A   161 B                  
  4.337   4.369   4.381   4.411   4.423   4.463   4.515   4.534
163 A   162 B   164 A   163 B   164 B   165 A   166 A   165 B                  
  4.555   4.593   4.613   4.634   4.637   4.677   4.696   4.700
166 B   167 A   168 A   167 B   168 B   169 A   169 B   170 A                  
  4.711   4.734   4.751   4.753   4.788   4.817   4.825   4.869
171 A   170 B   171 B   172 A   172 B   173 B   173 A   174 B                  
  4.889   4.963   5.011   5.037   5.043   5.071   5.072   5.088
174 A   175 B   176 B   175 A   176 A   177 A   177 B   178 A                  
  5.094   5.139   5.184   5.251   5.260   5.292   5.319   5.394
178 B   179 A   179 B   180 A   180 B   181 B   181 A   182 A                  
  5.403   5.415   5.422   5.500   5.553   5.615   5.634   5.675
182 B   183 A   183 B   184 A   184 B   185 A   186 A   185 B                  
  5.759   5.937   5.937   6.080   6.098   6.161   6.164   6.267
186 B   187 A   187 B   188 A   188 B   189 B   189 A   190 B                  
  6.298   6.560   6.564   6.743   6.757   9.504  10.836  11.790
190 A   191 A   191 B   192 B   192 A   193 A   193 B   194 A                  
 12.378  13.627  13.723  14.628  14.746
194 B   195 B   195 A   196 B   196 A                                          
 --------------------------------------------------------------
 
          Ground-State Mulliken Net Atomic Charges

     Atom                 Charge (a.u.)
  ----------------------------------------
      1 S                     0.106738
      2 C                    -0.237768
      3 C                    -0.196339
      4 C                    -0.216542
      5 C                     0.020288
      6 H                     0.163500
      7 C                     0.020288
      8 S                     0.106738
      9 C                    -0.216542
     10 C                    -0.237768
     11 C                    -0.196339
     12 H                     0.174857
     13 H                     0.185265
     14 H                     0.174857
     15 H                     0.185265
     16 H                     0.163500
  ----------------------------------------
  Sum of atomic charges =     0.000000

 -----------------------------------------------------------------
                    Cartesian Multipole Moments
 -----------------------------------------------------------------
    Charge (ESU x 10^10)
                -0.0000
    Dipole Moment (Debye)
         X       0.0000      Y       0.0000      Z       0.1556
       Tot       0.1556
    Quadrupole Moments (Debye-Ang)
        XX     -61.1603     XY       0.9623     YY     -68.1090
        XZ      -0.0000     YZ       0.0000     ZZ     -77.7945
    Octopole Moments (Debye-Ang^2)
       XXX       0.0000    XXY       0.0000    XYY      -0.0000
       YYY       0.0000    XXZ      -0.9481    XYZ       4.1679
       YYZ       3.7225    XZZ       0.0000    YZZ       0.0000
       ZZZ       0.7008
    Hexadecapole Moments (Debye-Ang^3)
      XXXX   -1833.8692   XXXY     -21.2860   XXYY    -409.0954
      XYYY      13.5581   YYYY    -541.5038   XXXZ      -0.0000
      XXYZ       0.0000   XYYZ       0.0000   YYYZ       0.0000
      XXZZ    -407.6312   XYZZ      -7.4354   YYZZ    -118.8043
      XZZZ      -0.0000   YZZZ       0.0000   ZZZZ    -111.3100
 -----------------------------------------------------------------
 DrvMan is completing analytic gradient of the MP2 energy
 MP2 relaxed dipole moment
            1
    1   0.0000000
    2   0.0000000
    3   0.0612246
	Magnitude:	 0.061 au	 0.156 Debye
 MP2 energy read as -1103.414181
 Full Analytical Gradient of MP2 Energy (in au.)
             1             2             3             4             5
    1    0.00000749   -0.00001707   -0.00002005    0.00002831    0.00000943
    2    0.00001776   -0.00001510    0.00005509   -0.00009959    0.00002468
    3   -0.00016168    0.00021541   -0.00035263    0.00051828    0.00010072
             6             7             8             9            10
    1   -0.00000349   -0.00000943   -0.00000749   -0.00002831    0.00001707
    2    0.00010477   -0.00002468   -0.00001776    0.00009959    0.00001510
    3   -0.00043813    0.00010072   -0.00016168    0.00051828    0.00021541
            11            12            13            14            15
    1    0.00002005    0.00000151   -0.00000578   -0.00000151    0.00000578
    2   -0.00005509    0.00002835    0.00000168   -0.00002835   -0.00000168
    3   -0.00035263    0.00012646   -0.00000843    0.00012646   -0.00000843
            16
    1    0.00000349
    2   -0.00010477
    3   -0.00043813
 Gradient time:  CPU 1.54 s  wall 0.10 s
 Geometry Optimization Parameters
   NAtoms,    NIC,     NZ,  NCons,   NDum,   NFix, NCnnct, MaxDiis
       16     111       0       1       0       0       0       0

 Cartesian Hessian Update
 Hessian Updated using BFGS Update


** CONSTRAINED OPTIMIZATION IN DELOCALIZED INTERNAL COORDINATES **
   Searching for a Minimum

   Optimization Cycle:   3

                       Coordinates (Angstroms)
     ATOM                X               Y               Z
      1  S         1.8123570733   -1.1779164041   -0.2146313883
      2  C         3.1664512185   -0.1505975196   -0.0566804199
      3  C         2.7868791949    1.1484354252    0.1711271599
      4  C         1.3926892423    1.3000233741    0.2313566718
      5  C         0.7087978200    0.1165559992    0.0450119156
      6  H         0.8906782686    2.2335270494    0.4140511784
      7  C        -0.7087978200   -0.1165559992    0.0450119156
      8  S        -1.8123570733    1.1779164041   -0.2146313883
      9  C        -1.3926892423   -1.3000233741    0.2313566718
[...]
         Gradient           0.000055      0.000300     YES
         Displacement       0.001647      0.001200      NO
         Energy change     -0.000001      0.000001     YES

 Final energy is   -1103.41419490244     


 ******************************
 **  OPTIMIZATION CONVERGED  **
 ******************************

                       Coordinates (Angstroms)
     ATOM                X               Y               Z
      1  S         1.8113982841   -1.1770418086   -0.2187104968
      2  C         3.1659873217   -0.1495790095   -0.0658129333
      3  C         2.7872223899    1.1482673921    0.1702190627
      4  C         1.3932488101    1.2993119014    0.2373218437
      5  C         0.7088521651    0.1161681640    0.0509645258
      6  H         0.8919022391    2.2299491547    0.4356363323
      7  C        -0.7088521651   -0.1161681640    0.0509645258
      8  S        -1.8113982841    1.1770418086   -0.2187104968
      9  C        -1.3932488101   -1.2993119014    0.2373218437
     10  C        -3.1659873217    0.1495790095   -0.0658129333
     11  C        -2.7872223899   -1.1482673921    0.1702190627
     12  H        -3.4904679771   -1.9506244104    0.2959077897
     13  H         4.1573062773   -0.5466014593   -0.1567170186
     14  H         3.4904679771    1.9506244104    0.2959077897
     15  H        -4.1573062773    0.5466014593   -0.1567170186
     16  H        -0.8919022391   -2.2299491547    0.4356363323

Z-matrix Print:
$molecule
0 1
S 
C  1 1.707035
H  2 1.071729 1 120.226829
C  2 1.372436 1 111.444005 3 -179.955573 0
H  4 1.074304 2 123.074873 1 179.938019 0
C  4 1.403738 2 112.583867 1 -0.519029 0
H  6 1.075529 4 124.389606 2 -178.580777 0
C  6 1.379477 4 113.199351 2 0.063087 0
C  8 1.436616 6 128.925096 4 179.953249 0
C  9 1.379477 8 128.925096 6 160.000000 0
H  10 1.075529 9 122.396625 8 -1.372134 0
C  10 1.403738 9 113.199351 8 179.953249 0
H  12 1.074304 10 124.339552 9 179.599259 0
C  12 1.372436 10 112.583867 9 0.063087 0
H  14 1.071729 12 128.329148 10 179.529904 0
S  14 1.707035 12 111.444005 10 -0.519029 0
$end

 
 --------------------------------------------------------------
             Orbital Energies (a.u.) and Symmetries
 --------------------------------------------------------------
 
 Alpha MOs, Restricted
 -- Occupied --                  
-91.984 -91.984 -11.276 -11.275 -11.262 -11.261 -11.239 -11.239
  1 A     1 B     2 A     2 B     3 B     3 A     4 B     4 A                  
-11.237 -11.237  -8.986  -8.986  -6.667  -6.667  -6.667  -6.667
  5 A     5 B     6 A     6 B     7 B     7 A     8 A     8 B                  
 -6.666  -6.666  -1.197  -1.167  -1.036  -1.000  -0.985  -0.948
  9 B     9 A    10 A    10 B    11 A    11 B    12 A    12 B                  
 -0.810  -0.781  -0.745  -0.718  -0.708  -0.645  -0.572  -0.572
 13 A    13 B    14 A    14 B    15 A    15 B    16 A    16 B                  
 -0.558  -0.555  -0.549  -0.513  -0.513  -0.483  -0.466  -0.375
 17 A    17 B    18 A    18 B    19 A    19 B    20 A    21 A                  
 -0.354  -0.348  -0.279
 20 B    22 A    21 B                                                          
 -- Virtual --                   
  0.073   0.144   0.149   0.153   0.163   0.172   0.183   0.192
 23 A    22 B    23 B    24 A    25 A    24 B    25 B    26 A                  
  0.197   0.204   0.211   0.228   0.261   0.271   0.321   0.345
 27 A    26 B    28 A    27 B    28 B    29 A    29 B    30 A                  
  0.352   0.362   0.369   0.370   0.399   0.402   0.423   0.444
 31 A    30 B    32 A    31 B    33 A    32 B    33 B    34 A                  
  0.444   0.457   0.461   0.464   0.480   0.481   0.514   0.522
 34 B    35 B    35 A    36 A    36 B    37 A    38 A    37 B                  
  0.531   0.538   0.540   0.545   0.553   0.554   0.562   0.571
 39 A    38 B    39 B    40 A    41 A    40 B    41 B    42 A                  
  0.576   0.593   0.593   0.605   0.612   0.616   0.621   0.628
 42 B    43 A    43 B    44 B    44 A    45 B    45 A    46 B                  
  0.628   0.646   0.648   0.659   0.666   0.677   0.708   0.709
 46 A    47 B    47 A    48 A    49 A    48 B    50 A    49 B                  
  0.770   0.779   0.790   0.798   0.816   0.837   0.846   0.847
 51 A    50 B    51 B    52 A    52 B    53 B    54 B    53 A                  
  0.856   0.873   0.888   0.899   0.906   0.930   0.958   0.968
 55 B    54 A    56 B    55 A    56 A    57 A    57 B    58 A                  
  0.977   0.993   1.003   1.019   1.022   1.030   1.066   1.089
 58 B    59 A    60 A    59 B    61 A    60 B    62 A    61 B                  
  1.096   1.097   1.110   1.113   1.148   1.154   1.167   1.171
 62 B    63 A    64 A    63 B    64 B    65 B    65 A    66 B                  
  1.172   1.188   1.195   1.229   1.244   1.254   1.266   1.285
 66 A    67 B    67 A    68 A    69 A    68 B    69 B    70 B                  
  1.286   1.307   1.325   1.341   1.395   1.398   1.414   1.432
 70 A    71 A    71 B    72 A    72 B    73 A    74 A    73 B                  
  1.446   1.449   1.467   1.482   1.489   1.515   1.529   1.538
 75 A    74 B    76 A    75 B    76 B    77 A    77 B    78 A                  
  1.539   1.564   1.565   1.575   1.592   1.616   1.624   1.648
 78 B    79 B    79 A    80 B    80 A    81 A    81 B    82 A                  
  1.671   1.688   1.710   1.737   1.754   1.780   1.814   1.837
 82 B    83 B    83 A    84 B    84 A    85 A    85 B    86 B                  
  1.845   1.864   1.876   1.893   1.902   1.914   1.923   1.941
 86 A    87 A    87 B    88 A    88 B    89 B    89 A    90 A                  
  1.953   1.977   2.032   2.058   2.065   2.088   2.133   2.169
 90 B    91 B    91 A    92 B    92 A    93 A    93 B    94 A                  
  2.175   2.191   2.194   2.202   2.251   2.265   2.274   2.287
 94 B    95 A    95 B    96 B    96 A    97 B    97 A    98 B                  
  2.298   2.299   2.317   2.375   2.407   2.429   2.441   2.458
 99 B    98 A    99 A   100 B   100 A   101 B   101 A   102 A                  
  2.462   2.510   2.517   2.533   2.537   2.565   2.587   2.603
102 B   103 A   104 A   103 B   104 B   105 B   105 A   106 A                  
  2.629   2.656   2.697   2.705   2.721   2.730   2.755   2.759
106 B   107 B   108 B   107 A   109 B   108 A   109 A   110 B                  
  2.766   2.769   2.791   2.802   2.808   2.822   2.883   2.901
111 B   110 A   112 B   111 A   112 A   113 A   113 B   114 A                  
  2.909   2.930   2.944   2.973   2.982   3.008   3.010   3.014
114 B   115 B   115 A   116 B   116 A   117 A   117 B   118 B                  
  3.023   3.060   3.088   3.129   3.138   3.154   3.159   3.202
118 A   119 B   119 A   120 A   121 A   120 B   122 A   121 B                  
  3.204   3.209   3.243   3.246   3.249   3.270   3.282   3.288
123 A   122 B   123 B   124 A   124 B   125 A   125 B   126 A                  
  3.293   3.300   3.323   3.327   3.327   3.350   3.373   3.377
126 B   127 A   127 B   128 A   128 B   129 A   130 A   131 A                  
  3.390   3.428   3.436   3.441   3.452   3.461   3.466   3.481
129 B   130 B   131 B   132 A   133 A   134 A   132 B   135 A                  
  3.486   3.501   3.502   3.509   3.520   3.527   3.534   3.538
133 B   136 A   134 B   135 B   137 A   136 B   138 A   137 B                  
  3.546   3.556   3.562   3.573   3.598   3.618   3.641   3.669
138 B   139 A   140 A   141 A   139 B   142 A   140 B   141 B                  
  3.694   3.700   3.711   3.733   3.758   3.758   3.775   3.785
143 A   142 B   143 B   144 A   145 A   144 B   145 B   146 A                  
  3.826   3.840   3.866   3.886   3.893   3.898   3.940   3.943
146 B   147 A   147 B   148 A   149 A   148 B   149 B   150 A                  
  3.954   3.987   3.996   4.005   4.022   4.028   4.031   4.053
151 A   150 B   152 A   151 B   153 A   152 B   153 B   154 A                  
  4.091   4.095   4.117   4.132   4.155   4.174   4.176   4.193
155 A   154 B   155 B   156 B   156 A   157 A   157 B   158 A                  
  4.204   4.209   4.222   4.262   4.269   4.279   4.311   4.322
158 B   159 A   160 A   161 A   159 B   160 B   162 A   161 B                  
  4.338   4.369   4.381   4.411   4.423   4.463   4.516   4.534
163 A   162 B   164 A   163 B   164 B   165 A   166 A   165 B                  
  4.555   4.593   4.613   4.633   4.636   4.678   4.696   4.700
166 B   167 A   168 A   167 B   168 B   169 A   169 B   170 A                  
  4.713   4.732   4.749   4.752   4.789   4.818   4.825   4.869
171 A   170 B   171 B   172 A   172 B   173 B   173 A   174 B                  
  4.889   4.964   5.009   5.037   5.041   5.071   5.073   5.087
174 A   175 B   176 B   175 A   176 A   177 A   177 B   178 A                  
  5.092   5.139   5.184   5.251   5.259   5.292   5.319   5.394
178 B   179 A   179 B   180 A   180 B   181 B   181 A   182 A                  
  5.402   5.415   5.423   5.499   5.552   5.615   5.633   5.676
182 B   183 A   183 B   184 A   184 B   185 A   186 A   185 B                  
  5.758   5.937   5.938   6.079   6.098   6.160   6.164   6.265
186 B   187 A   187 B   188 A   188 B   189 B   189 A   190 B                  
  6.297   6.559   6.565   6.742   6.758   9.507  10.836  11.787
190 A   191 A   191 B   192 B   192 A   193 A   193 B   194 A                  
 12.375  13.625  13.718  14.628  14.743
194 B   195 B   195 A   196 B   196 A                                          
 
 Beta MOs, Restricted
 -- Occupied --                  
-91.984 -91.984 -11.276 -11.275 -11.262 -11.261 -11.239 -11.239
  1 A     1 B     2 A     2 B     3 B     3 A     4 B     4 A                  
-11.237 -11.237  -8.986  -8.986  -6.667  -6.667  -6.667  -6.667
  5 A     5 B     6 A     6 B     7 B     7 A     8 A     8 B                  
 -6.666  -6.666  -1.197  -1.167  -1.036  -1.000  -0.985  -0.948
  9 B     9 A    10 A    10 B    11 A    11 B    12 A    12 B                  
 -0.810  -0.781  -0.745  -0.718  -0.708  -0.645  -0.572  -0.572
 13 A    13 B    14 A    14 B    15 A    15 B    16 A    16 B                  
 -0.558  -0.555  -0.549  -0.513  -0.513  -0.483  -0.466  -0.375
 17 A    17 B    18 A    18 B    19 A    19 B    20 A    21 A                  
 -0.354  -0.348  -0.279
 20 B    22 A    21 B                                                          
 -- Virtual --                   
  0.073   0.144   0.149   0.153   0.163   0.172   0.183   0.192
 23 A    22 B    23 B    24 A    25 A    24 B    25 B    26 A                  
  0.197   0.204   0.211   0.228   0.261   0.271   0.321   0.345
 27 A    26 B    28 A    27 B    28 B    29 A    29 B    30 A                  
  0.352   0.362   0.369   0.370   0.399   0.402   0.423   0.444
 31 A    30 B    32 A    31 B    33 A    32 B    33 B    34 A                  
  0.444   0.457   0.461   0.464   0.480   0.481   0.514   0.522
 34 B    35 B    35 A    36 A    36 B    37 A    38 A    37 B                  
  0.531   0.538   0.540   0.545   0.553   0.554   0.562   0.571
 39 A    38 B    39 B    40 A    41 A    40 B    41 B    42 A                  
  0.576   0.593   0.593   0.605   0.612   0.616   0.621   0.628
 42 B    43 A    43 B    44 B    44 A    45 B    45 A    46 B                  
  0.628   0.646   0.648   0.659   0.666   0.677   0.708   0.709
 46 A    47 B    47 A    48 A    49 A    48 B    50 A    49 B                  
  0.770   0.779   0.790   0.798   0.816   0.837   0.846   0.847
 51 A    50 B    51 B    52 A    52 B    53 B    54 B    53 A                  
  0.856   0.873   0.888   0.899   0.906   0.930   0.958   0.968
 55 B    54 A    56 B    55 A    56 A    57 A    57 B    58 A                  
  0.977   0.993   1.003   1.019   1.022   1.030   1.066   1.089
 58 B    59 A    60 A    59 B    61 A    60 B    62 A    61 B                  
  1.096   1.097   1.110   1.113   1.148   1.154   1.167   1.171
 62 B    63 A    64 A    63 B    64 B    65 B    65 A    66 B                  
  1.172   1.188   1.195   1.229   1.244   1.254   1.266   1.285
 66 A    67 B    67 A    68 A    69 A    68 B    69 B    70 B                  
  1.286   1.307   1.325   1.341   1.395   1.398   1.414   1.432
 70 A    71 A    71 B    72 A    72 B    73 A    74 A    73 B                  
  1.446   1.449   1.467   1.482   1.489   1.515   1.529   1.538
 75 A    74 B    76 A    75 B    76 B    77 A    77 B    78 A                  
  1.539   1.564   1.565   1.575   1.592   1.616   1.624   1.648
 78 B    79 B    79 A    80 B    80 A    81 A    81 B    82 A                  
  1.671   1.688   1.710   1.737   1.754   1.780   1.814   1.837
 82 B    83 B    83 A    84 B    84 A    85 A    85 B    86 B                  
  1.845   1.864   1.876   1.893   1.902   1.914   1.923   1.941
 86 A    87 A    87 B    88 A    88 B    89 B    89 A    90 A                  
  1.953   1.977   2.032   2.058   2.065   2.088   2.133   2.169
 90 B    91 B    91 A    92 B    92 A    93 A    93 B    94 A                  
  2.175   2.191   2.194   2.202   2.251   2.265   2.274   2.287
 94 B    95 A    95 B    96 B    96 A    97 B    97 A    98 B                  
  2.298   2.299   2.317   2.375   2.407   2.429   2.441   2.458
 99 B    98 A    99 A   100 B   100 A   101 B   101 A   102 A                  
  2.462   2.510   2.517   2.533   2.537   2.565   2.587   2.603
102 B   103 A   104 A   103 B   104 B   105 B   105 A   106 A                  
  2.629   2.656   2.697   2.705   2.721   2.730   2.755   2.759
106 B   107 B   108 B   107 A   109 B   108 A   109 A   110 B                  
  2.766   2.769   2.791   2.802   2.808   2.822   2.883   2.901
111 B   110 A   112 B   111 A   112 A   113 A   113 B   114 A                  
  2.909   2.930   2.944   2.973   2.982   3.008   3.010   3.014
114 B   115 B   115 A   116 B   116 A   117 A   117 B   118 B                  
  3.023   3.060   3.088   3.129   3.138   3.154   3.159   3.202
118 A   119 B   119 A   120 A   121 A   120 B   122 A   121 B                  
  3.204   3.209   3.243   3.246   3.249   3.270   3.282   3.288
123 A   122 B   123 B   124 A   124 B   125 A   125 B   126 A                  
  3.293   3.300   3.323   3.327   3.327   3.350   3.373   3.377
126 B   127 A   127 B   128 A   128 B   129 A   130 A   131 A                  
  3.390   3.428   3.436   3.441   3.452   3.461   3.466   3.481
129 B   130 B   131 B   132 A   133 A   134 A   132 B   135 A                  
  3.486   3.501   3.502   3.509   3.520   3.527   3.534   3.538
133 B   136 A   134 B   135 B   137 A   136 B   138 A   137 B                  
  3.546   3.556   3.562   3.573   3.598   3.618   3.641   3.669
138 B   139 A   140 A   141 A   139 B   142 A   140 B   141 B                  
  3.694   3.700   3.711   3.733   3.758   3.758   3.775   3.785
143 A   142 B   143 B   144 A   145 A   144 B   145 B   146 A                  
  3.826   3.840   3.866   3.886   3.893   3.898   3.940   3.943
146 B   147 A   147 B   148 A   149 A   148 B   149 B   150 A                  
  3.954   3.987   3.996   4.005   4.022   4.028   4.031   4.053
151 A   150 B   152 A   151 B   153 A   152 B   153 B   154 A                  
  4.091   4.095   4.117   4.132   4.155   4.174   4.176   4.193
155 A   154 B   155 B   156 B   156 A   157 A   157 B   158 A                  
  4.204   4.209   4.222   4.262   4.269   4.279   4.311   4.322
158 B   159 A   160 A   161 A   159 B   160 B   162 A   161 B                  
  4.338   4.369   4.381   4.411   4.423   4.463   4.516   4.534
163 A   162 B   164 A   163 B   164 B   165 A   166 A   165 B                  
  4.555   4.593   4.613   4.633   4.636   4.678   4.696   4.700
166 B   167 A   168 A   167 B   168 B   169 A   169 B   170 A                  
  4.713   4.732   4.749   4.752   4.789   4.818   4.825   4.869
171 A   170 B   171 B   172 A   172 B   173 B   173 A   174 B                  
  4.889   4.964   5.009   5.037   5.041   5.071   5.073   5.087
174 A   175 B   176 B   175 A   176 A   177 A   177 B   178 A                  
  5.092   5.139   5.184   5.251   5.259   5.292   5.319   5.394
178 B   179 A   179 B   180 A   180 B   181 B   181 A   182 A                  
  5.402   5.415   5.423   5.499   5.552   5.615   5.633   5.676
182 B   183 A   183 B   184 A   184 B   185 A   186 A   185 B                  
  5.758   5.937   5.938   6.079   6.098   6.160   6.164   6.265
186 B   187 A   187 B   188 A   188 B   189 B   189 A   190 B                  
  6.297   6.559   6.565   6.742   6.758   9.507  10.836  11.787
190 A   191 A   191 B   192 B   192 A   193 A   193 B   194 A                  
 12.375  13.625  13.718  14.628  14.743
194 B   195 B   195 A   196 B   196 A                                          
 --------------------------------------------------------------
 
          Ground-State Mulliken Net Atomic Charges

     Atom                 Charge (a.u.)
  ----------------------------------------
      1 S                     0.107282
      2 C                    -0.237968
      3 C                    -0.196006
      4 C                    -0.217397
      5 C                     0.020308
      6 H                     0.163709
      7 C                     0.020308
      8 S                     0.107282
      9 C                    -0.217397
     10 C                    -0.237968
     11 C                    -0.196006
     12 H                     0.174850
     13 H                     0.185222
     14 H                     0.174850
     15 H                     0.185222
     16 H                     0.163709
  ----------------------------------------
  Sum of atomic charges =    -0.000000

 -----------------------------------------------------------------
                    Cartesian Multipole Moments
 -----------------------------------------------------------------
    Charge (ESU x 10^10)
                -0.0000
    Dipole Moment (Debye)
         X       0.0000      Y      -0.0000      Z       0.1607
       Tot       0.1607
    Quadrupole Moments (Debye-Ang)
        XX     -61.1622     XY       0.9694     YY     -68.1360
        XZ      -0.0000     YZ      -0.0000     ZZ     -77.7649
    Octopole Moments (Debye-Ang^2)
       XXX       0.0000    XXY      -0.0000    XYY      -0.0000
       YYY      -0.0000    XXZ      -1.2770    XYZ       4.2524
       YYZ       3.9411    XZZ      -0.0000    YZZ      -0.0000
       ZZZ       0.9814
    Hexadecapole Moments (Debye-Ang^3)
      XXXX   -1833.6280   XXXY     -21.3158   XXYY    -408.9536
      XYYY      13.1860   YYYY    -541.2056   XXXZ      -0.0000
      XXYZ      -0.0000   XYYZ      -0.0000   YYYZ      -0.0000
      XXZZ    -407.5369   XYZZ      -7.5723   YYZZ    -118.6455
      XZZZ      -0.0000   YZZZ      -0.0000   ZZZZ    -112.0542
 -----------------------------------------------------------------
Archival summary:
1\1\nid01259\OPT\MP2\BasisUnspecified\286\MonMar616:29:072017MonMar616:29:072017\0\\#,OPT,MP2,BasisUnspecified,\\0,1\S\C,1,1.70704\H,2,1.07173,1,120.227\C,2,1.37244,1,111.444,3,-179.956,0\H,4,1.0743,2,123.075,1,179.938,0\C,4,1.40374,2,112.584,1,-0.519029,0\H,6,1.07553,4,124.39,2,-178.581,0\C,6,1.37948,4,113.199,2,0.0630871,0\C,8,1.43662,6,128.925,4,179.953,0\C,9,1.37948,8,128.925,6,160,0\H,10,1.07553,9,122.397,8,-1.37213,0\C,10,1.40374,9,113.199,8,179.953,0\H,12,1.0743,10,124.34,9,179.599,0\C,12,1.37244,10,112.584,9,0.0630871,0\H,14,1.07173,12,128.329,10,179.53,0\S,14,1.70704,12,111.444,10,-0.519029,0\\HF=-1101.5992\MP2=-1103.41419\\@

 Total job time:  8924.25s(wall), 46436.28s(cpu) 
 Mon Mar  6 16:29:07 2017

        *************************************************************
        *                                                           *
        *  Thank you very much for using Q-Chem.  Have a nice day.  *
        *                                                           *
        *************************************************************


0 sent ACK to 0 
now end server 0 ... 
