srun -N 1 --ntasks-per-node 1 --cpus-per-task 64 --cpu_bind=cores --nodelist nid01210 /global/project/projectdirs/jcesr/qchem/qc44/cnl_qc441/dist/exe/qcprog.cori.haswell.exe .pt_mp2_30.0.in.29232.qcin.1 /dev/shm/eg_qchem/qchem29232/
Process 0 of 1 is on nid01210 - thread support 0
initial socket setup ...start
initial socket setup ...done 
now start server 0 ... 
nid01210 10.128.4
Q-Chem Developer Version! Running on 10.128.4.*
                  Welcome to Q-Chem
     A Quantum Leap Into The Future Of Chemistry


 Q-Chem 4.4, Q-Chem, Inc., Pleasanton, CA (2016)

 Y. Shao,  Z. Gan,  E. Epifanovsky,  A. T. B. Gilbert,  M. Wormit,  
 J. Kussmann,  A. W. Lange,  A. Behn,  J. Deng,  X. Feng,  D. Ghosh,  
 M. Goldey,  P. R. Horn,  L. D. Jacobson,  I. Kaliman,  F.Rob,  
 R. Z. Khaliullin,  T. Kus,  A. Landau,  J. Liu,  E. I. Proynov,  Y. M. Rhee,  
 R. M. Richard,  M. A. Rohrdanz,  R. P. Steele,  E. J. Sundstrom,  
 H. L. Woodcock III,  P. M. Zimmerman,  D. Zuev,  B. Albrecht,  E. Alguire,  
 B. Austin,  S. A. Baeppler,  G. J. O. Beran,  Y. A. Bernard,  E. Berquist,  
 K. Brandhorst,  K. B. Bravaya,  S. T. Brown,  D. Casanova,  C.-M. Chang,  
 Y. Chen,  S. H. Chien,  K. D. Closser,  M. P. Coons,  D. L. Crittenden,  
 S. Dasgupta,  M. Diedenhofen,  R. A. DiStasio Jr.,  H. Do,  A. D. Dutoi,  
 R. G. Edgar,  P.-T. Fang,  S. Fatehi,  Q. Feng,  L. Fusti-Molnar,  
 A. Ghysels,  A. Golubeva-Zadorozhnaya,  J. Gomes,  A. Gunina,  
 M. W. D. Hanson-Heine,  P. H. P. Harbach,  A. W. Hauser,  E. G. Hohenstein,  
 Z. C. Holden,  K. Hui,  T.-C. Jagau,  H. Ji,  B. Kaduk,  K. Khistyaev,  
 Jaehoon Kim,  Jihan Kim,  R. A. King,  P. Klunzinger,  D. Kosenkov,  
 T. Kowalczyk,  C. M. Krauter,  A. Kunitsa,  K. U. Lao,  A. Laurent,  
 K. V. Lawler,  D. Lefrancois,  S. Lehtola,  S. V. Levchenko,  C. Y. Lin,  
 Y.-S. Lin,  F. Liu,  E. Livshits,  R. C. Lochan,  A. Luenser,  P. Manohar,  
 S. F. Manzer,  S.-P. Mao,  Y. Mao,  N. Mardirossian,  A. V. Marenich,  
 L. A. Martinez-Martinez,  S. A. Maurer,  N. J. Mayhall,  J.-M. Mewes,  
 A. F. Morrison,  K. Nanda,  C. M. Oana,  R. Olivares-Amaya,  D. P. O'Neill,  
 J. A. Parkhill,  T. M. Perrine,  R. Peverati,  P. A. Pieniazek,  F. Plasser,  
 A. Prociuk,  D. R. Rehn,  E. Rosta,  N. J. Russ,  N. Sergueev,  
 S. M. Sharada,  S. Sharma,  D. W. Small,  A. Sodt,  T. Stauch,  T. Stein,  
 D. Stuck,  Y.-C. Su,  A. J. W. Thom,  T. Tsuchimochi,  L. Vogt,  O. Vydrov,  
 T. Wang,  M. A. Watson,  J. Wenzel,  A. White,  C. F. Williams,  
 V. Vanovschi,  S. Yeganeh,  S. R. Yost,  Z.-Q. You,  I. Y. Zhang,  X. Zhang,  
 Y. Zhao,  B. R. Brooks,  G. K. L. Chan,  D. M. Chipman,  C. J. Cramer,  
 W. A. Goddard III,  M. S. Gordon,  W. J. Hehre,  A. Klamt,  
 H. F. Schaefer III,  M. W. Schmidt,  C. D. Sherrill,  D. G. Truhlar,  
 A. Warshel,  X. Xu,  A. Aspuru-Guzik,  R. Baer,  A. T. Bell,  N. A. Besley,  
 J.-D. Chai,  A. Dreuw,  B. D. Dunietz,  T. R. Furlani,  S. R. Gwaltney,  
 C.-P. Hsu,  Y. Jung,  J. Kong,  D. S. Lambrecht,  W. Liang,  C. Ochsenfeld,  
 V. A. Rassolov,  L. V. Slipchenko,  J. E. Subotnik,  T. Van Voorhis,  
 J. M. Herbert,  A. I. Krylov,  P. M. W. Gill,  M. Head-Gordon

 Contributors to earlier versions of Q-Chem not listed above: 
 R. D. Adamson,  J. Baker,  E. F. C. Byrd,  A. K. Chakraborty,  C.-L. Cheng,  
 H. Dachsel,  R. J. Doerksen,  G. Hawkins,  A. Heyden,  S. Hirata,  
 G. Kedziora,  F. J. Keil,  C. Kelley,  P. P. Korambath,  W. Kurlancheek,  
 A. M. Lee,  M. S. Lee,  D. Liotard,  I. Lotan,  P. E. Maslen,  N. Nair,  
 D. Neuhauser,  R. Olson,  B. Peters,  J. Ritchie,  N. E. Schultz,  
 N. Shenvi,  A. C. Simmonett,  K. S. Thanthiriwatte,  Q. Wu,  W. Zhang

 Please cite Q-Chem as follows:
 Y. Shao et al., Mol. Phys. 113, 184-215 (2015)
 DOI: 10.1080/00268976.2014.952696

 Q-Chem 4.4.1 for Intel X86 EM64T Linux

 Parts of Q-Chem use Armadillo 5.200.1 (Boston Tea Smuggler).
 http://arma.sourceforge.net/

 Q-Chem begins on Mon Mar  6 14:00:19 2017  

Host: nid01196
0

     Scratch files written to /dev/shm/eg_qchem/qchem29232//
 Parallel job on  1  processors

Checking the input file for inconsistencies... 	...done.

--------------------------------------------------------------
User input:
--------------------------------------------------------------
$molecule
 0  1
 S           1.80900300       -1.15938900        0.25896800
 C           3.16466000       -0.14246800        0.05606700
 C           2.78757500        1.14089100       -0.25226100
 C           1.39402000        1.28822000       -0.33563400
 C           0.70898100        0.11689900       -0.08798100
 H           0.89277600        2.20524100       -0.58940400
 C          -0.70898100       -0.11689900       -0.08798100
 S          -1.39933291       -1.32522002        0.92330908
 C          -1.69089158        0.51227709       -0.82458970
 C          -2.97988184       -0.97819348        0.38059303
 C          -2.97933133        0.02209241       -0.55945878
 H          -3.87494687        0.38760943       -1.02682654
 H           4.15569300       -0.53353100        0.17259300
 H           3.49202900        1.93475000       -0.41867900
 H          -3.81718401       -1.51949291        0.77375329
 H          -1.47275229        1.31225847       -1.50943810
$end


$rem
         jobtype = opt
        exchange = hf
           basis = cc-pvtz
  max_scf_cycles = 100
      mem_static = 6200
       mem_total = 62000
          method = mp2
$end


$opt
CONSTRAINT
tors 4 5 7 9 30.0
ENDCONSTRAINT
$end

--------------------------------------------------------------
 ----------------------------------------------------------------
             Standard Nuclear Orientation (Angstroms)
    I     Atom           X                Y                Z
 ----------------------------------------------------------------
    1      S       1.6083332325    -0.3222286285     1.0970104006
    2      C       3.1038320238    -0.0775494672     0.3116961253
    3      C       2.9282971828     0.2754958578    -1.0031483879
    4      C       1.5745218611     0.3321777278    -1.3702069303
    5      C       0.7181277418     0.0247382472    -0.3335423735
    6      H       1.2209160714     0.5650354914    -2.3587980906
    7      C      -0.7181277419    -0.0247382485    -0.3335423741
    8      S      -1.6083332334     0.3222286286     1.0970104010
    9      C      -1.5745218611    -0.3321777255    -1.3702069278
   10      C      -3.1038320268     0.0775494681     0.3116961214
   11      C      -2.9282971781    -0.2754958592    -1.0031483881
   12      H      -3.7461417942    -0.4747387310    -1.6706773931
   13      H       4.0229101521    -0.2031366672     0.8485184749
   14      H       3.7461417959     0.4747387300    -1.6706773890
   15      H      -4.0229101528     0.2031366649     0.8485184768
   16      H      -1.2209160693    -0.5650354937    -2.3587980936
 ----------------------------------------------------------------
 Molecular Point Group                 C2    NOp =  2
 Largest Abelian Subgroup              C2    NOp =  2
 Nuclear Repulsion Energy =   639.8941336756 hartrees
 There are       43 alpha and       43 beta electrons
 Requested basis set is cc-pVTZ
 There are 140 shells and 392 basis functions

 Total QAlloc Memory Limit  62000 MB
 Mega-Array Size      6061 MB
 MEM_STATIC part      6200 MB
 A cutoff of  1.0D-11 yielded   8031 shell pairs
 There are     62395 function pairs (     81343 Cartesian)
 
 -------------------------------------------------------
 OpenMP Integral Computing Module                       
 Release: version 1.0, May 2013, Q-Chem Inc. Pittsburgh 
 -------------------------------------------------------
 Integral Job Info:
 Integral job number is                      11
 Integral operator is                         1
 short-range coefficients                     0
 long-range coefficients              100000000
 Omega coefficients                           0
 if combine SR and LR in K                    0
 Integral screening is                        0
 Integral computing path is                   2
 max size of driver memory is            800000
 size of driver memory is                776718
 size of scratch memory is             26248924
 max col of scratch BK array              10000
 max len of scratch array in speh3          662
 max len of scratch index in speh4           32
 max int batch size is                      520
 min int batch size is                       52
 fixed nKL is                                52
 max L of basis functions is                  3
 order of int derivative is                   0
 number of shells is                        140
 number of basis is                         448
 number of cartesian basis is               448
 number of contracted shell pairs          8031
 number of primitive shell pairs          28541
 maxK2 (contraction) of shell pair          121
 max number of K2 of shell pair               1
 max number of CS2 of shell pair           1052
 max number of PS2 of shell pair           3122
 mem total for path MDJ                  223748
 -------------------------------------------------------
 Smallest overlap matrix eigenvalue = 6.84E-05

 Scale SEOQF with 1.000000e-01/1.000000e+00/1.000000e-01

 Standard Electronic Orientation quadrupole field applied
 Nucleus-field energy     =     0.0000000091 hartrees
 Guess from superposition of atomic densities
 Warning:  Energy on first SCF cycle will be non-variational
 A restricted Hartree-Fock SCF calculation will be
 performed using Pulay DIIS extrapolation
 SCF converges when DIIS error is below 1.0E-08
 using 16 threads for integral computing 
 ---------------------------------------
  Cycle       Energy         DIIS Error
 ---------------------------------------
    1   -1106.0704835065      2.98E-02
    2   -1098.2724256782      9.05E-03
    3   -1101.4862869577      2.20E-03
    4   -1101.5678059015      1.16E-03
    5   -1101.5950098853      2.23E-04
    6   -1101.5965016107      1.28E-04
    7   -1101.5970533662      3.53E-05
    8   -1101.5971632817      1.50E-05
    9   -1101.5971887386      6.97E-06
   10   -1101.5971919025      2.41E-06
   11   -1101.5971921423      8.31E-07
   12   -1101.5971921322      2.50E-07
   13   -1101.5971921460      5.40E-08
   14   -1101.5971921511      1.82E-08
   15   -1101.5971921532      8.90E-09 Convergence criterion met
 ---------------------------------------
 SCF time:  CPU 585.72 s  wall 36.67 s
 SCF   energy in the final basis set = -1101.5971921532
 Total energy in the final basis set = -1101.5971921532
 
 Components of the MP2 correlation energy:
        aaaa  correlation energy =        -0.2324957550 au
        abab  correlation energy =        -1.3507573325 au
        bbbb  correlation energy =        -0.2324957550 au
        non-Brillouin singles    =        -0.0000000000 au

 Total  MP2   correlation energy =        -1.8157488425 au
        MP2         total energy =     -1103.4129409957 au

  Entering Z-vector solver.
   1         0           1      0.000267    0.000267
   2         0           1      0.000119    0.000119
   3         0           1      0.000049    0.000049
   4         0           1      0.000023    0.000023
   5         0           1      0.000007    0.000007
   6         0           1      0.000002    0.000002
   7         1           0      0.000000    0.000000    Roots Converged
 
 --------------------------------------------------------------
             Orbital Energies (a.u.) and Symmetries
 --------------------------------------------------------------
 
 Alpha MOs, Restricted
 -- Occupied --                  
-91.984 -91.984 -11.275 -11.274 -11.261 -11.261 -11.238 -11.238
  1 A     1 B     2 A     2 B     3 B     3 A     4 B     4 A                  
-11.237 -11.237  -8.986  -8.986  -6.667  -6.667  -6.667  -6.667
  5 B     5 A     6 B     6 A     7 B     7 A     8 A     8 B                  
 -6.666  -6.666  -1.197  -1.166  -1.036  -0.999  -0.985  -0.948
  9 A     9 B    10 A    10 B    11 A    12 A    11 B    12 B                  
 -0.810  -0.778  -0.749  -0.717  -0.707  -0.644  -0.574  -0.571
 13 A    14 A    13 B    14 B    15 A    15 B    16 A    17 A                  
 -0.561  -0.555  -0.541  -0.512  -0.510  -0.487  -0.466  -0.371
 16 B    17 B    18 A    19 A    18 B    20 A    19 B    20 B                  
 -0.353  -0.348  -0.282
 21 B    21 A    22 A                                                          
 -- Virtual --                   
  0.076   0.139   0.147   0.153   0.160   0.175   0.175   0.185
 22 B    23 A    24 A    23 B    25 A    26 A    24 B    25 B                  
  0.200   0.213   0.215   0.237   0.249   0.282   0.310   0.349
 27 A    28 A    26 B    29 A    27 B    28 B    30 A    29 B                  
  0.355   0.365   0.366   0.374   0.388   0.399   0.421   0.431
 31 A    30 B    32 A    33 A    31 B    32 B    33 B    34 A                  
  0.449   0.450   0.462   0.464   0.481   0.482   0.511   0.519
 34 B    35 A    36 A    35 B    37 A    36 B    37 B    38 A                  
  0.526   0.536   0.542   0.546   0.551   0.556   0.562   0.564
 39 A    38 B    40 A    39 B    41 A    40 B    42 A    41 B                  
  0.580   0.590   0.596   0.596   0.607   0.612   0.618   0.624
 42 B    43 A    43 B    44 A    44 B    45 A    46 A    45 B                  
  0.629   0.639   0.657   0.666   0.671   0.697   0.730   0.738
 47 A    46 B    48 A    47 B    49 A    48 B    50 A    49 B                  
  0.741   0.751   0.779   0.784   0.805   0.817   0.837   0.849
 51 A    50 B    52 A    51 B    52 B    53 A    54 A    53 B                  
  0.861   0.877   0.892   0.897   0.908   0.928   0.948   0.949
 55 A    54 B    56 A    55 B    57 A    56 B    58 A    57 B                  
  0.972   0.984   0.998   1.016   1.040   1.059   1.060   1.082
 58 B    59 A    59 B    60 A    60 B    61 B    61 A    62 B                  
  1.085   1.093   1.104   1.110   1.142   1.165   1.165   1.166
 62 A    63 A    64 A    63 B    64 B    65 A    65 B    66 A                  
  1.196   1.205   1.211   1.224   1.241   1.262   1.267   1.274
 66 B    67 A    67 B    68 A    68 B    69 A    69 B    70 B                  
  1.284   1.312   1.313   1.343   1.388   1.389   1.407   1.425
 70 A    71 A    71 B    72 A    72 B    73 A    73 B    74 A                  
  1.459   1.462   1.476   1.483   1.499   1.504   1.515   1.525
 74 B    75 A    76 A    75 B    76 B    77 A    78 A    77 B                  
  1.545   1.552   1.569   1.587   1.599   1.606   1.641   1.646
 78 B    79 A    79 B    80 A    80 B    81 A    82 A    81 B                  
  1.662   1.671   1.713   1.724   1.740   1.767   1.793   1.817
 82 B    83 A    83 B    84 A    84 B    85 A    85 B    86 A                  
  1.829   1.864   1.867   1.891   1.895   1.934   1.939   1.959
 86 B    87 B    87 A    88 B    88 A    89 A    89 B    90 B                  
  1.963   1.970   2.054   2.072   2.084   2.118   2.125   2.154
 90 A    91 A    91 B    92 A    92 B    93 A    93 B    94 A                  
  2.171   2.193   2.201   2.209   2.230   2.238   2.253   2.272
 94 B    95 B    95 A    96 A    96 B    97 A    97 B    98 B                  
  2.278   2.299   2.315   2.399   2.431   2.444   2.446   2.473
 98 A    99 A    99 B   100 A   100 B   101 A   101 B   102 B                  
  2.485   2.489   2.510   2.521   2.553   2.564   2.576   2.605
102 A   103 A   103 B   104 A   105 A   104 B   105 B   106 A                  
  2.637   2.645   2.663   2.677   2.732   2.732   2.762   2.764
106 B   107 B   107 A   108 A   108 B   109 A   110 A   111 A                  
  2.764   2.775   2.781   2.795   2.824   2.853   2.893   2.900
109 B   110 B   111 B   112 A   112 B   113 A   113 B   114 A                  
  2.906   2.918   2.952   2.957   3.004   3.004   3.017   3.018
114 B   115 A   116 A   115 B   116 B   117 A   118 A   117 B                  
  3.035   3.045   3.081   3.107   3.153   3.158   3.168   3.182
118 B   119 A   119 B   120 A   121 A   120 B   121 B   122 A                  
  3.206   3.220   3.231   3.245   3.257   3.260   3.264   3.297
122 B   123 B   123 A   124 B   124 A   125 B   125 A   126 A                  
  3.306   3.309   3.318   3.320   3.338   3.354   3.386   3.393
127 A   126 B   128 A   127 B   129 A   128 B   129 B   130 A                  
  3.414   3.421   3.423   3.441   3.454   3.456   3.470   3.475
131 A   132 A   130 B   133 A   131 B   134 A   135 A   132 B                  
  3.486   3.495   3.509   3.510   3.510   3.513   3.522   3.540
133 B   134 B   136 A   135 B   136 B   137 A   138 A   137 B                  
  3.550   3.568   3.576   3.595   3.617   3.625   3.636   3.670
138 B   139 A   139 B   140 A   141 A   140 B   141 B   142 A                  
  3.680   3.686   3.705   3.727   3.733   3.748   3.775   3.779
142 B   143 B   143 A   144 B   144 A   145 A   145 B   146 A                  
  3.814   3.824   3.878   3.888   3.918   3.924   3.927   3.949
147 A   146 B   147 B   148 A   148 B   149 A   149 B   150 B                  
  3.955   3.991   3.992   4.006   4.012   4.018   4.038   4.046
150 A   151 B   151 A   152 A   152 B   153 A   153 B   154 A                  
  4.095   4.109   4.139   4.141   4.171   4.174   4.188   4.190
155 A   154 B   155 B   156 A   157 A   156 B   157 B   158 A                  
  4.200   4.204   4.208   4.243   4.271   4.280   4.297   4.308
159 A   158 B   160 A   159 B   161 A   160 B   161 B   162 A                  
  4.341   4.363   4.413   4.442   4.465   4.476   4.496   4.499
162 B   163 A   163 B   164 A   165 A   164 B   165 B   166 A                  
  4.514   4.586   4.632   4.633   4.634   4.660   4.691   4.697
167 A   166 B   168 A   167 B   169 A   168 B   170 A   169 B                  
  4.707   4.712   4.753   4.762   4.807   4.808   4.841   4.868
171 A   170 B   172 A   171 B   173 A   172 B   174 A   173 B                  
  4.880   4.989   4.991   5.023   5.054   5.064   5.067   5.085
175 A   174 B   175 B   176 A   177 A   178 A   176 B   179 A                  
  5.098   5.126   5.192   5.222   5.254   5.290   5.346   5.347
177 B   178 B   180 A   179 B   180 B   181 A   182 A   181 B                  
  5.390   5.411   5.439   5.453   5.586   5.604   5.639   5.683
183 A   182 B   183 B   184 A   185 A   184 B   185 B   186 A                  
  5.814   5.861   5.991   6.056   6.098   6.134   6.155   6.218
187 A   186 B   188 A   187 B   189 A   188 B   190 A   189 B                  
  6.385   6.535   6.586   6.676   6.833   9.429  10.881  11.773
190 B   191 A   191 B   192 A   192 B   193 A   193 B   194 A                  
 12.356  13.321  13.851  14.444  15.001
194 B   195 A   195 B   196 A   196 B                                          
 
 Beta MOs, Restricted
 -- Occupied --                  
-91.984 -91.984 -11.275 -11.274 -11.261 -11.261 -11.238 -11.238
  1 A     1 B     2 A     2 B     3 B     3 A     4 B     4 A                  
-11.237 -11.237  -8.986  -8.986  -6.667  -6.667  -6.667  -6.667
  5 B     5 A     6 B     6 A     7 B     7 A     8 A     8 B                  
 -6.666  -6.666  -1.197  -1.166  -1.036  -0.999  -0.985  -0.948
  9 A     9 B    10 A    10 B    11 A    12 A    11 B    12 B                  
 -0.810  -0.778  -0.749  -0.717  -0.707  -0.644  -0.574  -0.571
 13 A    14 A    13 B    14 B    15 A    15 B    16 A    17 A                  
 -0.561  -0.555  -0.541  -0.512  -0.510  -0.487  -0.466  -0.371
 16 B    17 B    18 A    19 A    18 B    20 A    19 B    20 B                  
 -0.353  -0.348  -0.282
 21 B    21 A    22 A                                                          
 -- Virtual --                   
  0.076   0.139   0.147   0.153   0.160   0.175   0.175   0.185
 22 B    23 A    24 A    23 B    25 A    26 A    24 B    25 B                  
  0.200   0.213   0.215   0.237   0.249   0.282   0.310   0.349
 27 A    28 A    26 B    29 A    27 B    28 B    30 A    29 B                  
  0.355   0.365   0.366   0.374   0.388   0.399   0.421   0.431
 31 A    30 B    32 A    33 A    31 B    32 B    33 B    34 A                  
  0.449   0.450   0.462   0.464   0.481   0.482   0.511   0.519
 34 B    35 A    36 A    35 B    37 A    36 B    37 B    38 A                  
  0.526   0.536   0.542   0.546   0.551   0.556   0.562   0.564
 39 A    38 B    40 A    39 B    41 A    40 B    42 A    41 B                  
  0.580   0.590   0.596   0.596   0.607   0.612   0.618   0.624
 42 B    43 A    43 B    44 A    44 B    45 A    46 A    45 B                  
  0.629   0.639   0.657   0.666   0.671   0.697   0.730   0.738
 47 A    46 B    48 A    47 B    49 A    48 B    50 A    49 B                  
  0.741   0.751   0.779   0.784   0.805   0.817   0.837   0.849
 51 A    50 B    52 A    51 B    52 B    53 A    54 A    53 B                  
  0.861   0.877   0.892   0.897   0.908   0.928   0.948   0.949
 55 A    54 B    56 A    55 B    57 A    56 B    58 A    57 B                  
  0.972   0.984   0.998   1.016   1.040   1.059   1.060   1.082
 58 B    59 A    59 B    60 A    60 B    61 B    61 A    62 B                  
  1.085   1.093   1.104   1.110   1.142   1.165   1.165   1.166
 62 A    63 A    64 A    63 B    64 B    65 A    65 B    66 A                  
  1.196   1.205   1.211   1.224   1.241   1.262   1.267   1.274
 66 B    67 A    67 B    68 A    68 B    69 A    69 B    70 B                  
  1.284   1.312   1.313   1.343   1.388   1.389   1.407   1.425
 70 A    71 A    71 B    72 A    72 B    73 A    73 B    74 A                  
  1.459   1.462   1.476   1.483   1.499   1.504   1.515   1.525
 74 B    75 A    76 A    75 B    76 B    77 A    78 A    77 B                  
  1.545   1.552   1.569   1.587   1.599   1.606   1.641   1.646
 78 B    79 A    79 B    80 A    80 B    81 A    82 A    81 B                  
  1.662   1.671   1.713   1.724   1.740   1.767   1.793   1.817
 82 B    83 A    83 B    84 A    84 B    85 A    85 B    86 A                  
  1.829   1.864   1.867   1.891   1.895   1.934   1.939   1.959
 86 B    87 B    87 A    88 B    88 A    89 A    89 B    90 B                  
  1.963   1.970   2.054   2.072   2.084   2.118   2.125   2.154
 90 A    91 A    91 B    92 A    92 B    93 A    93 B    94 A                  
  2.171   2.193   2.201   2.209   2.230   2.238   2.253   2.272
 94 B    95 B    95 A    96 A    96 B    97 A    97 B    98 B                  
  2.278   2.299   2.315   2.399   2.431   2.444   2.446   2.473
 98 A    99 A    99 B   100 A   100 B   101 A   101 B   102 B                  
  2.485   2.489   2.510   2.521   2.553   2.564   2.576   2.605
102 A   103 A   103 B   104 A   105 A   104 B   105 B   106 A                  
  2.637   2.645   2.663   2.677   2.732   2.732   2.762   2.764
106 B   107 B   107 A   108 A   108 B   109 A   110 A   111 A                  
  2.764   2.775   2.781   2.795   2.824   2.853   2.893   2.900
109 B   110 B   111 B   112 A   112 B   113 A   113 B   114 A                  
  2.906   2.918   2.952   2.957   3.004   3.004   3.017   3.018
114 B   115 A   116 A   115 B   116 B   117 A   118 A   117 B                  
  3.035   3.045   3.081   3.107   3.153   3.158   3.168   3.182
118 B   119 A   119 B   120 A   121 A   120 B   121 B   122 A                  
  3.206   3.220   3.231   3.245   3.257   3.260   3.264   3.297
122 B   123 B   123 A   124 B   124 A   125 B   125 A   126 A                  
  3.306   3.309   3.318   3.320   3.338   3.354   3.386   3.393
127 A   126 B   128 A   127 B   129 A   128 B   129 B   130 A                  
  3.414   3.421   3.423   3.441   3.454   3.456   3.470   3.475
131 A   132 A   130 B   133 A   131 B   134 A   135 A   132 B                  
  3.486   3.495   3.509   3.510   3.510   3.513   3.522   3.540
133 B   134 B   136 A   135 B   136 B   137 A   138 A   137 B                  
  3.550   3.568   3.576   3.595   3.617   3.625   3.636   3.670
138 B   139 A   139 B   140 A   141 A   140 B   141 B   142 A                  
  3.680   3.686   3.705   3.727   3.733   3.748   3.775   3.779
142 B   143 B   143 A   144 B   144 A   145 A   145 B   146 A                  
  3.814   3.824   3.878   3.888   3.918   3.924   3.927   3.949
147 A   146 B   147 B   148 A   148 B   149 A   149 B   150 B                  
  3.955   3.991   3.992   4.006   4.012   4.018   4.038   4.046
150 A   151 B   151 A   152 A   152 B   153 A   153 B   154 A                  
  4.095   4.109   4.139   4.141   4.171   4.174   4.188   4.190
155 A   154 B   155 B   156 A   157 A   156 B   157 B   158 A                  
  4.200   4.204   4.208   4.243   4.271   4.280   4.297   4.308
159 A   158 B   160 A   159 B   161 A   160 B   161 B   162 A                  
  4.341   4.363   4.413   4.442   4.465   4.476   4.496   4.499
162 B   163 A   163 B   164 A   165 A   164 B   165 B   166 A                  
  4.514   4.586   4.632   4.633   4.634   4.660   4.691   4.697
167 A   166 B   168 A   167 B   169 A   168 B   170 A   169 B                  
  4.707   4.712   4.753   4.762   4.807   4.808   4.841   4.868
171 A   170 B   172 A   171 B   173 A   172 B   174 A   173 B                  
  4.880   4.989   4.991   5.023   5.054   5.064   5.067   5.085
175 A   174 B   175 B   176 A   177 A   178 A   176 B   179 A                  
  5.098   5.126   5.192   5.222   5.254   5.290   5.346   5.347
177 B   178 B   180 A   179 B   180 B   181 A   182 A   181 B                  
  5.390   5.411   5.439   5.453   5.586   5.604   5.639   5.683
183 A   182 B   183 B   184 A   185 A   184 B   185 B   186 A                  
  5.814   5.861   5.991   6.056   6.098   6.134   6.155   6.218
187 A   186 B   188 A   187 B   189 A   188 B   190 A   189 B                  
  6.385   6.535   6.586   6.676   6.833   9.429  10.881  11.773
190 B   191 A   191 B   192 A   192 B   193 A   193 B   194 A                  
 12.356  13.321  13.851  14.444  15.001
194 B   195 A   195 B   196 A   196 B                                          
 --------------------------------------------------------------
 
          Ground-State Mulliken Net Atomic Charges

     Atom                 Charge (a.u.)
  ----------------------------------------
      1 S                     0.109532
      2 C                    -0.236892
      3 C                    -0.195135
      4 C                    -0.202063
      5 C                     0.000795
      6 H                     0.166267
      7 C                     0.000799
      8 S                     0.109532
      9 C                    -0.202066
     10 C                    -0.236891
     11 C                    -0.195135
     12 H                     0.172852
     13 H                     0.184644
     14 H                     0.172853
     15 H                     0.184644
     16 H                     0.166265
  ----------------------------------------
  Sum of atomic charges =    -0.000000

 -----------------------------------------------------------------
                    Cartesian Multipole Moments
 -----------------------------------------------------------------
    Charge (ESU x 10^10)
                -0.0000
    Dipole Moment (Debye)
         X      -0.0000      Y       0.0000      Z      -0.7063
       Tot       0.7063
    Quadrupole Moments (Debye-Ang)
        XX     -61.0814     XY       0.2779     YY     -77.4426
        XZ      -0.0000     YZ       0.0000     ZZ     -68.0137
    Octopole Moments (Debye-Ang^2)
       XXX      -0.0000    XXY       0.0000    XYY       0.0000
       YYY       0.0000    XXZ       5.6143    XYZ      -6.8287
       YYZ       2.9196    XZZ      -0.0000    YZZ      -0.0000
       ZZZ      -5.6297
    Hexadecapole Moments (Debye-Ang^3)
      XXXX   -1816.7191   XXXY      -2.1159   XXYY    -401.9604
      XYYY      -5.3243   YYYY    -130.4670   XXXZ      -0.0000
      XXYZ       0.0000   XYYZ       0.0000   YYYZ       0.0000
      XXZZ    -394.4000   XYZZ       5.9525   YYZZ    -115.2371
      XZZZ       0.0000   YZZZ       0.0000   ZZZZ    -515.5927
 -----------------------------------------------------------------
 DrvMan is completing analytic gradient of the MP2 energy
 MP2 relaxed dipole moment
            1
    1  -0.0000000
    2   0.0000000
    3  -0.2778684
	Magnitude:	 0.278 au	 0.706 Debye
 MP2 energy read as -1103.412941
 Full Analytical Gradient of MP2 Energy (in au.)
             1             2             3             4             5
    1   -0.00140589   -0.00014909    0.00023684    0.00087586   -0.00111938
    2    0.00155172   -0.00161521    0.00199589    0.00249554   -0.00150867
    3    0.00084144   -0.00093231    0.00038807    0.00128344   -0.00084746
             6             7             8             9            10
    1    0.00006964    0.00111939    0.00140589   -0.00087586    0.00014908
    2   -0.00185934    0.00150867   -0.00155171   -0.00249554    0.00161522
    3   -0.00058094   -0.00084746    0.00084145    0.00128344   -0.00093232
            11            12            13            14            15
    1   -0.00023684   -0.00002048    0.00001406    0.00002048   -0.00001406
    2   -0.00199589    0.00002875   -0.00073297   -0.00002876    0.00073297
    3    0.00038807    0.00002507   -0.00017732    0.00002508   -0.00017732
            16
    1   -0.00006964
    2    0.00185934
    3   -0.00058094
 Gradient time:  CPU 1.51 s  wall 0.10 s
 Geometry Optimization Parameters
   NAtoms,    NIC,     NZ,  NCons,   NDum,   NFix, NCnnct, MaxDiis
       16     111       0       1       0       0       0       0


** CONSTRAINED OPTIMIZATION IN DELOCALIZED INTERNAL COORDINATES **
   Searching for a Minimum

   Optimization Cycle:   1

                       Coordinates (Angstroms)
     ATOM                X               Y               Z
      1  S         1.6083332330   -0.3222286285    1.0970104008
      2  C         3.1038320253   -0.0775494676    0.3116961233
      3  C         2.9282971804    0.2754958585   -1.0031483880
      4  C         1.5745218611    0.3321777266   -1.3702069290
      5  C         0.7181277419    0.0247382478   -0.3335423738
      6  H         1.2209160704    0.5650354926   -2.3587980921
      7  C        -0.7181277419   -0.0247382478   -0.3335423738
      8  S        -1.6083332330    0.3222286285    1.0970104008
      9  C        -1.5745218611   -0.3321777266   -1.3702069290
     10  C        -3.1038320253    0.0775494676    0.3116961233
     11  C        -2.9282971804   -0.2754958585   -1.0031483880
     12  H        -3.7461417950   -0.4747387305   -1.6706773910
     13  H         4.0229101524   -0.2031366660    0.8485184758
     14  H         3.7461417950    0.4747387305   -1.6706773910
     15  H        -4.0229101524    0.2031366660    0.8485184758
     16  H        -1.2209160704   -0.5650354926   -2.3587980921
   Point Group: c2    Number of degrees of freedom:    22


   Energy is  -1103.412940996

              Constraints and their Current Values
                                        Value     Constraint
   Dihedral:        4   5   7   9       30.000       30.000

 Attempting to Generate Delocalized Internal Coordinates

 21 Hessian modes will be used to form the next step
  Hessian Eigenvalues:
     0.045000    0.045000    0.045000    0.045002    0.045003    0.045012
     0.159945    0.159993    0.160000    0.221308    0.238060    0.249999
     0.326324    0.340049    0.365509    0.366895    0.370094    0.399848
     0.435412    0.463135    0.495504

 Minimum Search - Taking Simple RFO Step
 Searching for Lamda that Minimizes Along All modes
 Value Taken    Lamda =  -0.00053446
 Step Taken.  Stepsize is  0.096216

                             Maximum     Tolerance    Cnvgd?
         Gradient           0.004947      0.000300      NO
         Displacement       0.085087      0.001200      NO
         Energy change     *********      0.000001      NO


 New Cartesian Coordinates Obtained by Inverse Iteration

 Displacement from previous Coordinates is:  0.143334
 ----------------------------------------------------------------
             Standard Nuclear Orientation (Angstroms)
    I     Atom           X                Y                Z
 ----------------------------------------------------------------
    1      S       1.6247159904    -0.3400674195     1.0997062739
    2      C       3.1121634179    -0.0752994511     0.3066654859
    3      C       2.9233305161     0.2627194227    -1.0104370866
    4      C       1.5661045215     0.3225870361    -1.3644573900
    5      C       0.7192458046     0.0194771340    -0.3192057063
    6      H       1.2027924365     0.5725519068    -2.3451494324
    7      C      -0.7192458046    -0.0194771340    -0.3192057063
    8      S      -1.6247159904     0.3400674195     1.0997062739
    9      C      -1.5661045215    -0.3225870361    -1.3644573900
   10      C      -3.1121634179     0.0752994511     0.3066654859
   11      C      -2.9233305161    -0.2627194227    -1.0104370866
   12      H      -3.7343412039    -0.4675606459    -1.6845890238
   13      H       4.0360777715    -0.1864481950     0.8383187052
   14      H       3.7343412039     0.4675606459    -1.6845890238
   15      H      -4.0360777715     0.1864481950     0.8383187052
   16      H      -1.2027924365    -0.5725519068    -2.3451494324
 ----------------------------------------------------------------
 Molecular Point Group                 C2    NOp =  2
 Largest Abelian Subgroup              C2    NOp =  2
 Nuclear Repulsion Energy =   639.1519643717 hartrees
 There are       43 alpha and       43 beta electrons
 Applying Cartesian multipole field
    Component          Value
    ---------          -----
     (2,0,0)        1.00000E-11
     (0,2,0)        2.00000E-10
     (0,0,2)       -3.00000E-11
 Nucleus-field energy     =     0.0000000093 hartrees
 Requested basis set is cc-pVTZ
 There are 140 shells and 392 basis functions
 A cutoff of  1.0D-11 yielded   8036 shell pairs
 There are     62408 function pairs (     81356 Cartesian)
 Smallest overlap matrix eigenvalue = 7.06E-05
 Guess MOs from SCF MO coefficient file
 Reading MOs from coefficient file
 Reading MOs from coefficient file
 A restricted Hartree-Fock SCF calculation will be
 performed using Pulay DIIS extrapolation
 SCF converges when DIIS error is below 1.0E-08
 Geometry optimization detected.  Setting ReadMinima to 0
 Setting SaveMinima to 0
 using 16 threads for integral computing 
 ---------------------------------------
  Cycle       Energy         DIIS Error
 ---------------------------------------
    1   -1101.5938734150      2.77E-04
    2   -1101.5979592842      3.80E-05
    3   -1101.5980136487      1.56E-05
    4   -1101.5980211559      9.28E-06
    5   -1101.5980238763      2.01E-06
    6   -1101.5980240879      1.06E-06
    7   -1101.5980241414      3.34E-07
    8   -1101.5980241476      1.25E-07
    9   -1101.5980241477      4.62E-08
   10   -1101.5980241478      1.76E-08
   11   -1101.5980241483      6.88E-09 Convergence criterion met
 ---------------------------------------
 SCF time:  CPU 725.40 s  wall 45.37 s
 SCF   energy in the final basis set = -1101.5980241483
 Total energy in the final basis set = -1101.5980241483
 
 Components of the MP2 correlation energy:
        aaaa  correlation energy =        -0.2324323715 au
        abab  correlation energy =        -1.3505801793 au
        bbbb  correlation energy =        -0.2324323715 au
        non-Brillouin singles    =        -0.0000000000 au

 Total  MP2   correlation energy =        -1.8154449222 au
        MP2         total energy =     -1103.4134690705 au

  Entering Z-vector solver.
   1         0           1      0.000267    0.000267
   2         0           1      0.000119    0.000119
   3         0           1      0.000049    0.000049
   4         0           1      0.000023    0.000023
   5         0           1      0.000007    0.000007
   6         0           1      0.000002    0.000002
   7         1           0      0.000000    0.000000    Roots Converged
 
 --------------------------------------------------------------
             Orbital Energies (a.u.) and Symmetries
 --------------------------------------------------------------
 
 Alpha MOs, Restricted
 -- Occupied --                  
-91.985 -91.985 -11.275 -11.274 -11.261 -11.261 -11.238 -11.238
  1 A     1 B     2 A     2 B     3 B     3 A     4 B     4 A                  
-11.237 -11.237  -8.986  -8.986  -6.667  -6.667  -6.667  -6.667
  5 B     5 A     6 B     6 A     7 B     7 A     8 A     8 B                  
 -6.666  -6.666  -1.196  -1.166  -1.035  -0.999  -0.985  -0.948
  9 A     9 B    10 A    10 B    11 A    12 A    11 B    12 B                  
 -0.809  -0.777  -0.749  -0.717  -0.707  -0.645  -0.574  -0.571
 13 A    14 A    13 B    14 B    15 A    15 B    16 A    17 A                  
 -0.561  -0.554  -0.541  -0.512  -0.511  -0.486  -0.466  -0.370
 16 B    17 B    18 A    19 A    18 B    20 A    19 B    20 B                  
 -0.353  -0.348  -0.282
 21 B    21 A    22 A                                                          
 -- Virtual --                   
  0.077   0.139   0.148   0.153   0.160   0.175   0.175   0.185
 22 B    23 A    24 A    23 B    25 A    26 A    24 B    25 B                  
  0.200   0.213   0.215   0.237   0.249   0.279   0.311   0.348
 27 A    28 A    26 B    29 A    27 B    28 B    30 A    29 B                  
  0.356   0.364   0.366   0.375   0.387   0.399   0.420   0.431
 31 A    30 B    32 A    33 A    31 B    32 B    33 B    34 A                  
  0.450   0.450   0.462   0.463   0.480   0.484   0.510   0.518
 34 B    35 A    36 A    35 B    37 A    36 B    37 B    38 A                  
  0.528   0.536   0.542   0.545   0.550   0.557   0.561   0.562
 39 A    38 B    40 A    39 B    41 A    40 B    42 A    41 B                  
  0.580   0.592   0.595   0.597   0.608   0.612   0.618   0.623
 42 B    43 A    44 A    43 B    44 B    45 A    46 A    45 B                  
  0.629   0.639   0.658   0.668   0.669   0.697   0.731   0.738
 47 A    46 B    48 A    47 B    49 A    48 B    50 A    49 B                  
  0.740   0.751   0.780   0.784   0.804   0.817   0.839   0.849
 51 A    50 B    52 A    51 B    52 B    53 A    54 A    53 B                  
  0.862   0.879   0.889   0.897   0.912   0.924   0.946   0.951
 55 A    54 B    56 A    55 B    57 A    56 B    58 A    57 B                  
  0.972   0.989   0.998   1.015   1.041   1.060   1.065   1.082
 58 B    59 A    59 B    60 A    60 B    61 B    61 A    62 B                  
  1.088   1.096   1.102   1.111   1.141   1.164   1.164   1.168
 62 A    63 A    64 A    63 B    64 B    65 A    65 B    66 A                  
  1.197   1.205   1.210   1.223   1.241   1.259   1.265   1.277
 66 B    67 A    67 B    68 A    68 B    69 A    69 B    70 B                  
  1.286   1.312   1.315   1.346   1.386   1.388   1.406   1.427
 70 A    71 B    71 A    72 A    72 B    73 A    73 B    74 A                  
  1.460   1.463   1.475   1.483   1.500   1.505   1.515   1.527
 74 B    75 A    76 A    75 B    76 B    77 A    78 A    77 B                  
  1.547   1.551   1.568   1.586   1.601   1.608   1.641   1.645
 78 B    79 A    79 B    80 A    80 B    81 A    82 A    81 B                  
  1.663   1.672   1.716   1.724   1.740   1.765   1.790   1.822
 82 B    83 A    83 B    84 A    84 B    85 A    85 B    86 A                  
  1.828   1.867   1.868   1.890   1.892   1.933   1.937   1.956
 86 B    87 A    87 B    88 B    88 A    89 A    89 B    90 B                  
  1.963   1.969   2.054   2.071   2.085   2.115   2.117   2.157
 90 A    91 A    91 B    92 A    92 B    93 B    93 A    94 A                  
  2.170   2.192   2.200   2.208   2.229   2.240   2.255   2.271
 94 B    95 B    95 A    96 A    96 B    97 A    97 B    98 B                  
  2.278   2.299   2.310   2.400   2.431   2.443   2.447   2.472
 98 A    99 A    99 B   100 A   100 B   101 A   101 B   102 B                  
  2.485   2.491   2.510   2.521   2.552   2.563   2.575   2.606
102 A   103 A   103 B   104 A   105 A   104 B   105 B   106 A                  
  2.638   2.646   2.661   2.678   2.732   2.732   2.762   2.764
106 B   107 B   107 A   108 A   109 A   108 B   110 A   111 A                  
  2.766   2.774   2.781   2.797   2.822   2.854   2.894   2.900
109 B   110 B   111 B   112 A   112 B   113 A   113 B   114 A                  
  2.903   2.917   2.953   2.957   3.003   3.003   3.013   3.017
114 B   115 A   116 A   115 B   117 A   116 B   117 B   118 A                  
  3.033   3.043   3.086   3.106   3.153   3.155   3.168   3.182
118 B   119 A   119 B   120 A   121 A   120 B   121 B   122 A                  
  3.204   3.220   3.231   3.245   3.259   3.259   3.264   3.295
122 B   123 B   123 A   124 B   124 A   125 B   125 A   126 A                  
  3.306   3.312   3.318   3.320   3.338   3.354   3.383   3.392
127 A   126 B   128 A   127 B   129 A   128 B   129 B   130 A                  
  3.416   3.420   3.424   3.440   3.454   3.457   3.469   3.472
131 A   132 A   130 B   133 A   131 B   134 A   135 A   132 B                  
  3.490   3.496   3.507   3.508   3.512   3.515   3.522   3.540
133 B   134 B   136 A   135 B   137 A   136 B   138 A   137 B                  
  3.547   3.569   3.577   3.594   3.620   3.620   3.636   3.672
138 B   139 A   139 B   140 A   140 B   141 A   141 B   142 A                  
  3.681   3.687   3.704   3.727   3.732   3.746   3.773   3.779
142 B   143 B   143 A   144 B   144 A   145 A   145 B   146 A                  
  3.814   3.825   3.876   3.888   3.917   3.923   3.925   3.951
147 A   146 B   147 B   148 A   148 B   149 A   149 B   150 B                  
  3.956   3.992   3.992   4.010   4.012   4.018   4.039   4.042
150 A   151 B   151 A   152 A   152 B   153 A   153 B   154 A                  
  4.096   4.108   4.136   4.141   4.172   4.177   4.187   4.189
155 A   154 B   155 B   156 A   156 B   157 A   158 A   157 B                  
  4.199   4.202   4.206   4.240   4.270   4.283   4.299   4.309
159 A   158 B   160 A   159 B   161 A   160 B   161 B   162 A                  
  4.346   4.366   4.412   4.444   4.465   4.477   4.496   4.499
162 B   163 A   163 B   164 A   165 A   164 B   165 B   166 A                  
  4.513   4.588   4.628   4.636   4.639   4.658   4.691   4.700
167 A   166 B   168 A   167 B   169 A   168 B   170 A   169 B                  
  4.704   4.710   4.758   4.760   4.808   4.811   4.840   4.866
171 A   170 B   172 A   171 B   173 A   172 B   174 A   173 B                  
  4.880   4.986   4.993   5.018   5.049   5.066   5.070   5.084
175 A   174 B   175 B   176 A   177 A   178 A   176 B   179 A                  
  5.093   5.126   5.195   5.218   5.254   5.288   5.345   5.345
177 B   178 B   180 A   179 B   180 B   181 A   182 A   181 B                  
  5.391   5.410   5.435   5.454   5.586   5.604   5.638   5.682
183 A   182 B   183 B   184 A   185 A   184 B   185 B   186 A                  
  5.813   5.863   5.993   6.051   6.098   6.133   6.155   6.218
187 A   186 B   188 A   187 B   189 A   188 B   190 A   189 B                  
  6.384   6.535   6.586   6.676   6.828   9.424  10.872  11.777
190 B   191 A   191 B   192 A   192 B   193 A   193 B   194 A                  
 12.329  13.319  13.845  14.444  14.996
194 B   195 A   195 B   196 A   196 B                                          
 
 Beta MOs, Restricted
 -- Occupied --                  
-91.985 -91.985 -11.275 -11.274 -11.261 -11.261 -11.238 -11.238
  1 A     1 B     2 A     2 B     3 B     3 A     4 B     4 A                  
-11.237 -11.237  -8.986  -8.986  -6.667  -6.667  -6.667  -6.667
  5 B     5 A     6 B     6 A     7 B     7 A     8 A     8 B                  
 -6.666  -6.666  -1.196  -1.166  -1.035  -0.999  -0.985  -0.948
  9 A     9 B    10 A    10 B    11 A    12 A    11 B    12 B                  
 -0.809  -0.777  -0.749  -0.717  -0.707  -0.645  -0.574  -0.571
 13 A    14 A    13 B    14 B    15 A    15 B    16 A    17 A                  
 -0.561  -0.554  -0.541  -0.512  -0.511  -0.486  -0.466  -0.370
 16 B    17 B    18 A    19 A    18 B    20 A    19 B    20 B                  
 -0.353  -0.348  -0.282
 21 B    21 A    22 A                                                          
 -- Virtual --                   
  0.077   0.139   0.148   0.153   0.160   0.175   0.175   0.185
 22 B    23 A    24 A    23 B    25 A    26 A    24 B    25 B                  
  0.200   0.213   0.215   0.237   0.249   0.279   0.311   0.348
 27 A    28 A    26 B    29 A    27 B    28 B    30 A    29 B                  
  0.356   0.364   0.366   0.375   0.387   0.399   0.420   0.431
 31 A    30 B    32 A    33 A    31 B    32 B    33 B    34 A                  
  0.450   0.450   0.462   0.463   0.480   0.484   0.510   0.518
 34 B    35 A    36 A    35 B    37 A    36 B    37 B    38 A                  
  0.528   0.536   0.542   0.545   0.550   0.557   0.561   0.562
 39 A    38 B    40 A    39 B    41 A    40 B    42 A    41 B                  
  0.580   0.592   0.595   0.597   0.608   0.612   0.618   0.623
 42 B    43 A    44 A    43 B    44 B    45 A    46 A    45 B                  
  0.629   0.639   0.658   0.668   0.669   0.697   0.731   0.738
 47 A    46 B    48 A    47 B    49 A    48 B    50 A    49 B                  
  0.740   0.751   0.780   0.784   0.804   0.817   0.839   0.849
 51 A    50 B    52 A    51 B    52 B    53 A    54 A    53 B                  
  0.862   0.879   0.889   0.897   0.912   0.924   0.946   0.951
 55 A    54 B    56 A    55 B    57 A    56 B    58 A    57 B                  
  0.972   0.989   0.998   1.015   1.041   1.060   1.065   1.082
 58 B    59 A    59 B    60 A    60 B    61 B    61 A    62 B                  
  1.088   1.096   1.102   1.111   1.141   1.164   1.164   1.168
 62 A    63 A    64 A    63 B    64 B    65 A    65 B    66 A                  
  1.197   1.205   1.210   1.223   1.241   1.259   1.265   1.277
 66 B    67 A    67 B    68 A    68 B    69 A    69 B    70 B                  
  1.286   1.312   1.315   1.346   1.386   1.388   1.406   1.427
 70 A    71 B    71 A    72 A    72 B    73 A    73 B    74 A                  
  1.460   1.463   1.475   1.483   1.500   1.505   1.515   1.527
 74 B    75 A    76 A    75 B    76 B    77 A    78 A    77 B                  
  1.547   1.551   1.568   1.586   1.601   1.608   1.641   1.645
 78 B    79 A    79 B    80 A    80 B    81 A    82 A    81 B                  
  1.663   1.672   1.716   1.724   1.740   1.765   1.790   1.822
 82 B    83 A    83 B    84 A    84 B    85 A    85 B    86 A                  
  1.828   1.867   1.868   1.890   1.892   1.933   1.937   1.956
 86 B    87 A    87 B    88 B    88 A    89 A    89 B    90 B                  
  1.963   1.969   2.054   2.071   2.085   2.115   2.117   2.157
 90 A    91 A    91 B    92 A    92 B    93 B    93 A    94 A                  
  2.170   2.192   2.200   2.208   2.229   2.240   2.255   2.271
 94 B    95 B    95 A    96 A    96 B    97 A    97 B    98 B                  
  2.278   2.299   2.310   2.400   2.431   2.443   2.447   2.472
 98 A    99 A    99 B   100 A   100 B   101 A   101 B   102 B                  
  2.485   2.491   2.510   2.521   2.552   2.563   2.575   2.606
102 A   103 A   103 B   104 A   105 A   104 B   105 B   106 A                  
  2.638   2.646   2.661   2.678   2.732   2.732   2.762   2.764
106 B   107 B   107 A   108 A   109 A   108 B   110 A   111 A                  
  2.766   2.774   2.781   2.797   2.822   2.854   2.894   2.900
109 B   110 B   111 B   112 A   112 B   113 A   113 B   114 A                  
  2.903   2.917   2.953   2.957   3.003   3.003   3.013   3.017
114 B   115 A   116 A   115 B   117 A   116 B   117 B   118 A                  
  3.033   3.043   3.086   3.106   3.153   3.155   3.168   3.182
118 B   119 A   119 B   120 A   121 A   120 B   121 B   122 A                  
  3.204   3.220   3.231   3.245   3.259   3.259   3.264   3.295
122 B   123 B   123 A   124 B   124 A   125 B   125 A   126 A                  
  3.306   3.312   3.318   3.320   3.338   3.354   3.383   3.392
127 A   126 B   128 A   127 B   129 A   128 B   129 B   130 A                  
  3.416   3.420   3.424   3.440   3.454   3.457   3.469   3.472
131 A   132 A   130 B   133 A   131 B   134 A   135 A   132 B                  
  3.490   3.496   3.507   3.508   3.512   3.515   3.522   3.540
133 B   134 B   136 A   135 B   137 A   136 B   138 A   137 B                  
  3.547   3.569   3.577   3.594   3.620   3.620   3.636   3.672
138 B   139 A   139 B   140 A   140 B   141 A   141 B   142 A                  
  3.681   3.687   3.704   3.727   3.732   3.746   3.773   3.779
142 B   143 B   143 A   144 B   144 A   145 A   145 B   146 A                  
  3.814   3.825   3.876   3.888   3.917   3.923   3.925   3.951
147 A   146 B   147 B   148 A   148 B   149 A   149 B   150 B                  
  3.956   3.992   3.992   4.010   4.012   4.018   4.039   4.042
150 A   151 B   151 A   152 A   152 B   153 A   153 B   154 A                  
  4.096   4.108   4.136   4.141   4.172   4.177   4.187   4.189
155 A   154 B   155 B   156 A   156 B   157 A   158 A   157 B                  
  4.199   4.202   4.206   4.240   4.270   4.283   4.299   4.309
159 A   158 B   160 A   159 B   161 A   160 B   161 B   162 A                  
  4.346   4.366   4.412   4.444   4.465   4.477   4.496   4.499
162 B   163 A   163 B   164 A   165 A   164 B   165 B   166 A                  
  4.513   4.588   4.628   4.636   4.639   4.658   4.691   4.700
167 A   166 B   168 A   167 B   169 A   168 B   170 A   169 B                  
  4.704   4.710   4.758   4.760   4.808   4.811   4.840   4.866
171 A   170 B   172 A   171 B   173 A   172 B   174 A   173 B                  
  4.880   4.986   4.993   5.018   5.049   5.066   5.070   5.084
175 A   174 B   175 B   176 A   177 A   178 A   176 B   179 A                  
  5.093   5.126   5.195   5.218   5.254   5.288   5.345   5.345
177 B   178 B   180 A   179 B   180 B   181 A   182 A   181 B                  
  5.391   5.410   5.435   5.454   5.586   5.604   5.638   5.682
183 A   182 B   183 B   184 A   185 A   184 B   185 B   186 A                  
  5.813   5.863   5.993   6.051   6.098   6.133   6.155   6.218
187 A   186 B   188 A   187 B   189 A   188 B   190 A   189 B                  
  6.384   6.535   6.586   6.676   6.828   9.424  10.872  11.777
190 B   191 A   191 B   192 A   192 B   193 A   193 B   194 A                  
 12.329  13.319  13.845  14.444  14.996
194 B   195 A   195 B   196 A   196 B                                          
 --------------------------------------------------------------
 
          Ground-State Mulliken Net Atomic Charges

     Atom                 Charge (a.u.)
  ----------------------------------------
      1 S                     0.109621
      2 C                    -0.237827
      3 C                    -0.198300
      4 C                    -0.192318
      5 C                    -0.009429
      6 H                     0.168868
      7 C                    -0.009429
      8 S                     0.109620
      9 C                    -0.192318
     10 C                    -0.237827
     11 C                    -0.198300
     12 H                     0.174020
     13 H                     0.185365
     14 H                     0.174020
     15 H                     0.185365
     16 H                     0.168868
  ----------------------------------------
  Sum of atomic charges =     0.000000

 -----------------------------------------------------------------
                    Cartesian Multipole Moments
 -----------------------------------------------------------------
    Charge (ESU x 10^10)
                 0.0000
    Dipole Moment (Debye)
         X       0.0000      Y       0.0000      Z      -0.7080
       Tot       0.7080
    Quadrupole Moments (Debye-Ang)
        XX     -61.0554     XY       0.3948     YY     -77.4081
        XZ      -0.0000     YZ      -0.0000     ZZ     -68.1021
    Octopole Moments (Debye-Ang^2)
       XXX       0.0000    XXY       0.0000    XYY      -0.0000
       YYY       0.0000    XXZ       5.6839    XYZ      -6.7556
       YYZ       2.7556    XZZ       0.0000    YZZ       0.0000
       ZZZ      -6.0376
    Hexadecapole Moments (Debye-Ang^3)
      XXXX   -1822.3702   XXXY       4.0302   XXYY    -403.6809
      XYYY      -0.7766   YYYY    -131.2497   XXXZ      -0.0000
      XXYZ      -0.0000   XYYZ      -0.0000   YYYZ       0.0000
      XXZZ    -395.8378   XYZZ       7.5224   YYZZ    -115.1608
      XZZZ      -0.0000   YZZZ      -0.0000   ZZZZ    -516.4942
 -----------------------------------------------------------------
 DrvMan is completing analytic gradient of the MP2 energy
 MP2 relaxed dipole moment
            1
    1   0.0000000
    2   0.0000000
    3  -0.2785355
	Magnitude:	 0.279 au	 0.708 Debye
 MP2 energy read as -1103.413469
 Full Analytical Gradient of MP2 Energy (in au.)
             1             2             3             4             5
    1    0.00006306    0.00025327    0.00009153   -0.00003134    0.00000319
    2   -0.00029050    0.00021501   -0.00006637    0.00170548   -0.00091683
    3    0.00019262    0.00004426    0.00022236    0.00090973   -0.00099210
             6             7             8             9            10
    1    0.00002368   -0.00000319   -0.00006306    0.00003134   -0.00025327
    2   -0.00121589    0.00091683    0.00029050   -0.00170548   -0.00021501
    3   -0.00037668   -0.00099210    0.00019262    0.00090973    0.00004426
            11            12            13            14            15
    1   -0.00009153    0.00001866    0.00004253   -0.00001866   -0.00004253
    2    0.00006637   -0.00001239   -0.00015376    0.00001239    0.00015376
    3    0.00022236    0.00003169   -0.00003188    0.00003169   -0.00003188
            16
    1   -0.00002368
    2    0.00121589
    3   -0.00037668
 Gradient time:  CPU 1.51 s  wall 0.10 s
 Geometry Optimization Parameters
   NAtoms,    NIC,     NZ,  NCons,   NDum,   NFix, NCnnct, MaxDiis
       16     111       0       1       0       0       0       0

 Cartesian Hessian Update
 Hessian Updated using BFGS Update


** CONSTRAINED OPTIMIZATION IN DELOCALIZED INTERNAL COORDINATES **
   Searching for a Minimum

   Optimization Cycle:   2

                       Coordinates (Angstroms)
     ATOM                X               Y               Z
      1  S         1.6247159904   -0.3400674195    1.0997062739
      2  C         3.1121634179   -0.0752994511    0.3066654859
      3  C         2.9233305161    0.2627194227   -1.0104370866
      4  C         1.5661045215    0.3225870361   -1.3644573900
      5  C         0.7192458046    0.0194771340   -0.3192057063
      6  H         1.2027924365    0.5725519068   -2.3451494324
      7  C        -0.7192458046   -0.0194771340   -0.3192057063
      8  S        -1.6247159904    0.3400674195    1.0997062739
      9  C        -1.5661045215   -0.3225870361   -1.3644573900
     10  C        -3.1121634179    0.0752994511    0.3066654859
     11  C        -2.9233305161   -0.2627194227   -1.0104370866
     12  H        -3.7343412039   -0.4675606459   -1.6845890238
     13  H         4.0360777715   -0.1864481950    0.8383187052
     14  H         3.7343412039    0.4675606459   -1.6845890238
     15  H        -4.0360777715    0.1864481950    0.8383187052
     16  H        -1.2027924365   -0.5725519068   -2.3451494324
   Point Group: c2    Number of degrees of freedom:    22


   Energy is  -1103.413469071

              Constraints and their Current Values
                                        Value     Constraint
   Dihedral:        4   5   7   9       30.000       30.000
 Hessian Updated using BFGS Update

 21 Hessian modes will be used to form the next step
  Hessian Eigenvalues:
     0.029816    0.045000    0.045000    0.045001    0.045006    0.057049
     0.159941    0.159990    0.160007    0.222171    0.226447    0.242985
     0.329866    0.340128    0.365486    0.366899    0.370099    0.404304
     0.436314    0.464135    0.496132

 Minimum Search - Taking Simple RFO Step
 Searching for Lamda that Minimizes Along All modes
 Value Taken    Lamda =  -0.00012020
 Step Taken.  Stepsize is  0.058120

                             Maximum     Tolerance    Cnvgd?
         Gradient           0.001720      0.000300      NO
         Displacement       0.037770      0.001200      NO
         Energy change     -0.000528      0.000001      NO


 New Cartesian Coordinates Obtained by Inverse Iteration

 Displacement from previous Coordinates is:  0.103452
 ----------------------------------------------------------------
             Standard Nuclear Orientation (Angstroms)
    I     Atom           X                Y                Z
 ----------------------------------------------------------------
    1      S       1.6324365448    -0.3461173199     1.1030598295
    2      C       3.1143919964    -0.0807480192     0.3002679854
    3      C       2.9179804016     0.2592638422    -1.0154023185
    4      C       1.5588154105     0.3227535821    -1.3596393589
    5      C       0.7190839413     0.0189194420    -0.3085336016
    6      H       1.1884962328     0.5915256652    -2.3325709161
    7      C      -0.7190839413    -0.0189194420    -0.3085336016
    8      S      -1.6324365448     0.3461173199     1.1030598295
    9      C      -1.5588154105    -0.3227535821    -1.3596393589
   10      C      -3.1143919964     0.0807480192     0.3002679854
   11      C      -2.9179804016    -0.2592638422    -1.0154023185
   12      H      -3.7247293950    -0.4691213022    -1.6932085340
   13      H       4.0414085083    -0.1893833231     0.8268787402
   14      H       3.7247293950     0.4691213022    -1.6932085340
   15      H      -4.0414085083     0.1893833231     0.8268787402
   16      H      -1.1884962328    -0.5915256652    -2.3325709161
 ----------------------------------------------------------------
 Molecular Point Group                 C2    NOp =  2
 Largest Abelian Subgroup              C2    NOp =  2
 Nuclear Repulsion Energy =   638.9920888289 hartrees
 There are       43 alpha and       43 beta electrons
 Applying Cartesian multipole field
    Component          Value
    ---------          -----
     (2,0,0)        1.00000E-11
     (0,2,0)        2.00000E-10
     (0,0,2)       -3.00000E-11
 Nucleus-field energy     =     0.0000000095 hartrees
 Requested basis set is cc-pVTZ
 There are 140 shells and 392 basis functions
 A cutoff of  1.0D-11 yielded   8044 shell pairs
 There are     62436 function pairs (     81386 Cartesian)
 Smallest overlap matrix eigenvalue = 7.07E-05
 Guess MOs from SCF MO coefficient file
 Reading MOs from coefficient file
 Reading MOs from coefficient file
 A restricted Hartree-Fock SCF calculation will be
 performed using Pulay DIIS extrapolation
 SCF converges when DIIS error is below 1.0E-08
 Geometry optimization detected.  Setting ReadMinima to 0
 Setting SaveMinima to 0
 using 16 threads for integral computing 
 ---------------------------------------
  Cycle       Energy         DIIS Error
 ---------------------------------------
    1   -1101.5966151718      1.51E-04
    2   -1101.5980876691      2.37E-05
    3   -1101.5981072896      1.02E-05
    4   -1101.5981103973      4.95E-06
    5   -1101.5981113095      1.16E-06
    6   -1101.5981113723      5.38E-07
    7   -1101.5981113848      1.72E-07
    8   -1101.5981113853      7.12E-08
    9   -1101.5981113850      2.12E-08
   10   -1101.5981113847      7.19E-09 Convergence criterion met
 ---------------------------------------
 SCF time:  CPU 661.46 s  wall 41.38 s
 SCF   energy in the final basis set = -1101.5981113847
 Total energy in the final basis set = -1101.5981113847
 
 Components of the MP2 correlation energy:
        aaaa  correlation energy =        -0.2324383002 au
        abab  correlation energy =        -1.3505604231 au
        bbbb  correlation energy =        -0.2324383002 au
        non-Brillouin singles    =        -0.0000000000 au

 Total  MP2   correlation energy =        -1.8154370236 au
        MP2         total energy =     -1103.4135484083 au

  Entering Z-vector solver.
   1         0           1      0.000267    0.000267
   2         0           1      0.000119    0.000119
   3         0           1      0.000049    0.000049
   4         0           1      0.000023    0.000023
   5         0           1      0.000007    0.000007
   6         0           1      0.000002    0.000002
   7         1           0      0.000000    0.000000    Roots Converged
 
 --------------------------------------------------------------
             Orbital Energies (a.u.) and Symmetries
 --------------------------------------------------------------
 
 Alpha MOs, Restricted
 -- Occupied --                  
-91.985 -91.985 -11.275 -11.274 -11.261 -11.261 -11.238 -11.238
  1 A     1 B     2 A     2 B     3 B     3 A     4 B     4 A                  
-11.237 -11.237  -8.986  -8.986  -6.667  -6.667  -6.667  -6.667
  5 B     5 A     6 B     6 A     7 B     7 A     8 A     8 B                  
 -6.666  -6.666  -1.196  -1.166  -1.035  -0.999  -0.985  -0.948
  9 A     9 B    10 A    10 B    11 A    12 A    11 B    12 B                  
 -0.809  -0.777  -0.749  -0.717  -0.707  -0.645  -0.574  -0.571
 13 A    14 A    13 B    14 B    15 A    15 B    16 A    17 A                  
 -0.562  -0.554  -0.541  -0.512  -0.511  -0.486  -0.467  -0.370
 16 B    17 B    18 A    19 A    18 B    20 A    19 B    20 B                  
 -0.352  -0.349  -0.282
 21 B    21 A    22 A                                                          
 -- Virtual --                   
  0.077   0.139   0.148   0.153   0.160   0.175   0.175   0.185
 22 B    23 A    24 A    23 B    25 A    26 A    24 B    25 B                  
  0.201   0.213   0.215   0.237   0.248   0.278   0.311   0.348
 27 A    28 A    26 B    29 A    27 B    28 B    30 A    29 B                  
  0.356   0.363   0.367   0.375   0.387   0.398   0.420   0.431
 31 A    30 B    32 A    33 A    31 B    32 B    33 B    34 A                  
  0.450   0.451   0.462   0.462   0.480   0.484   0.510   0.518
 35 A    34 B    35 B    36 A    37 A    36 B    37 B    38 A                  
  0.528   0.536   0.541   0.545   0.549   0.558   0.561   0.563
 39 A    38 B    40 A    39 B    41 A    40 B    42 A    41 B                  
  0.581   0.593   0.594   0.597   0.608   0.613   0.618   0.621
 42 B    43 A    44 A    43 B    44 B    45 A    46 A    45 B                  
  0.630   0.639   0.659   0.668   0.670   0.696   0.731   0.738
 47 A    46 B    48 A    49 A    47 B    48 B    50 A    49 B                  
  0.739   0.751   0.780   0.784   0.804   0.816   0.840   0.849
 51 A    50 B    52 A    51 B    52 B    53 A    54 A    53 B                  
  0.861   0.881   0.886   0.896   0.916   0.921   0.946   0.952
 55 A    54 B    56 A    55 B    57 A    56 B    58 A    57 B                  
  0.973   0.992   0.998   1.014   1.040   1.058   1.066   1.082
 58 B    59 A    59 B    60 A    60 B    61 B    61 A    62 B                  
  1.088   1.098   1.102   1.110   1.140   1.163   1.165   1.170
 62 A    63 A    64 A    63 B    64 B    65 A    65 B    66 A                  
  1.197   1.205   1.210   1.223   1.241   1.257   1.262   1.280
 66 B    67 A    67 B    68 A    68 B    69 A    69 B    70 B                  
  1.288   1.312   1.316   1.347   1.386   1.389   1.405   1.428
 70 A    71 B    71 A    72 A    72 B    73 A    73 B    74 A                  
  1.459   1.465   1.475   1.483   1.499   1.505   1.514   1.528
 74 B    75 A    76 A    75 B    76 B    77 A    78 A    77 B                  
  1.547   1.551   1.567   1.585   1.603   1.608   1.641   1.645
 78 B    79 A    79 B    80 A    80 B    81 A    82 A    81 B                  
  1.665   1.671   1.717   1.724   1.739   1.765   1.789   1.824
 82 B    83 A    83 B    84 A    84 B    85 A    85 B    86 A                  
  1.828   1.865   1.869   1.890   1.890   1.933   1.936   1.954
 86 B    87 A    87 B    88 B    88 A    89 A    89 B    90 B                  
  1.964   1.968   2.054   2.071   2.084   2.111   2.118   2.160
 90 A    91 A    91 B    92 A    92 B    93 B    93 A    94 A                  
  2.170   2.192   2.200   2.207   2.228   2.242   2.258   2.271
 94 B    95 B    95 A    96 A    96 B    97 A    97 B    98 B                  
  2.277   2.300   2.308   2.400   2.432   2.443   2.450   2.472
 98 A    99 A    99 B   100 A   100 B   101 A   101 B   102 B                  
  2.485   2.493   2.510   2.521   2.552   2.564   2.573   2.606
102 A   103 A   103 B   104 A   105 A   104 B   105 B   106 A                  
  2.637   2.647   2.661   2.680   2.731   2.732   2.761   2.765
106 B   107 B   107 A   108 A   108 B   109 A   110 A   109 B                  
  2.765   2.772   2.780   2.798   2.821   2.854   2.894   2.899
111 A   110 B   111 B   112 A   112 B   113 A   113 B   114 A                  
  2.902   2.918   2.954   2.959   3.001   3.003   3.011   3.016
114 B   115 A   116 A   115 B   116 B   117 A   117 B   118 A                  
  3.033   3.042   3.088   3.107   3.153   3.154   3.168   3.183
118 B   119 A   119 B   120 A   120 B   121 A   121 B   122 A                  
  3.204   3.220   3.230   3.245   3.258   3.259   3.265   3.293
122 B   123 B   123 A   124 B   125 B   124 A   125 A   126 A                  
  3.304   3.315   3.319   3.320   3.341   3.354   3.382   3.393
127 A   126 B   127 B   128 A   129 A   128 B   129 B   130 A                  
  3.416   3.420   3.425   3.440   3.453   3.457   3.469   3.470
131 A   132 A   130 B   133 A   131 B   134 A   135 A   132 B                  
  3.492   3.497   3.505   3.507   3.512   3.518   3.522   3.541
133 B   134 B   136 A   135 B   137 A   136 B   138 A   137 B                  
  3.546   3.569   3.578   3.593   3.620   3.623   3.636   3.673
138 B   139 A   139 B   140 A   140 B   141 A   141 B   142 A                  
  3.680   3.688   3.703   3.728   3.733   3.744   3.774   3.779
142 B   143 B   143 A   144 B   144 A   145 A   145 B   146 A                  
  3.813   3.825   3.876   3.889   3.914   3.924   3.924   3.951
147 A   146 B   147 B   148 A   148 B   149 A   149 B   150 B                  
  3.958   3.992   3.994   4.011   4.011   4.018   4.040   4.042
150 A   151 A   151 B   152 A   152 B   153 A   153 B   154 A                  
  4.097   4.109   4.134   4.141   4.171   4.179   4.185   4.190
155 A   154 B   155 B   156 A   156 B   157 A   158 A   157 B                  
  4.199   4.202   4.207   4.238   4.271   4.284   4.299   4.311
159 A   158 B   160 A   159 B   161 A   160 B   161 B   162 A                  
  4.352   4.369   4.412   4.446   4.466   4.476   4.498   4.500
162 B   163 A   163 B   164 A   165 A   164 B   165 B   166 A                  
  4.512   4.590   4.624   4.636   4.643   4.656   4.692   4.701
167 A   166 B   168 A   167 B   169 A   168 B   170 A   171 A                  
  4.702   4.708   4.760   4.763   4.809   4.815   4.841   4.864
169 B   170 B   171 B   172 A   173 A   172 B   174 A   173 B                  
  4.882   4.983   4.994   5.016   5.044   5.067   5.070   5.083
175 A   174 B   175 B   176 A   177 A   178 A   176 B   179 A                  
  5.092   5.126   5.199   5.217   5.255   5.288   5.342   5.345
177 B   178 B   180 A   179 B   180 B   181 A   181 B   182 A                  
  5.392   5.409   5.433   5.454   5.586   5.604   5.637   5.683
183 A   182 B   183 B   184 A   185 A   184 B   185 B   186 A                  
  5.811   5.866   5.997   6.049   6.100   6.132   6.156   6.218
187 A   186 B   188 A   187 B   189 A   188 B   190 A   189 B                  
  6.386   6.534   6.585   6.675   6.827   9.427  10.876  11.782
190 B   191 A   191 B   192 A   192 B   193 A   193 B   194 A                  
 12.325  13.315  13.841  14.445  14.993
194 B   195 A   195 B   196 A   196 B                                          
 
 Beta MOs, Restricted
 -- Occupied --                  
-91.985 -91.985 -11.275 -11.274 -11.261 -11.261 -11.238 -11.238
  1 A     1 B     2 A     2 B     3 B     3 A     4 B     4 A                  
-11.237 -11.237  -8.986  -8.986  -6.667  -6.667  -6.667  -6.667
  5 B     5 A     6 B     6 A     7 B     7 A     8 A     8 B                  
 -6.666  -6.666  -1.196  -1.166  -1.035  -0.999  -0.985  -0.948
  9 A     9 B    10 A    10 B    11 A    12 A    11 B    12 B                  
 -0.809  -0.777  -0.749  -0.717  -0.707  -0.645  -0.574  -0.571
 13 A    14 A    13 B    14 B    15 A    15 B    16 A    17 A                  
 -0.562  -0.554  -0.541  -0.512  -0.511  -0.486  -0.467  -0.370
 16 B    17 B    18 A    19 A    18 B    20 A    19 B    20 B                  
 -0.352  -0.349  -0.282
 21 B    21 A    22 A                                                          
 -- Virtual --                   
  0.077   0.139   0.148   0.153   0.160   0.175   0.175   0.185
 22 B    23 A    24 A    23 B    25 A    26 A    24 B    25 B                  
  0.201   0.213   0.215   0.237   0.248   0.278   0.311   0.348
 27 A    28 A    26 B    29 A    27 B    28 B    30 A    29 B                  
  0.356   0.363   0.367   0.375   0.387   0.398   0.420   0.431
 31 A    30 B    32 A    33 A    31 B    32 B    33 B    34 A                  
  0.450   0.451   0.462   0.462   0.480   0.484   0.510   0.518
 35 A    34 B    35 B    36 A    37 A    36 B    37 B    38 A                  
  0.528   0.536   0.541   0.545   0.549   0.558   0.561   0.563
 39 A    38 B    40 A    39 B    41 A    40 B    42 A    41 B                  
  0.581   0.593   0.594   0.597   0.608   0.613   0.618   0.621
 42 B    43 A    44 A    43 B    44 B    45 A    46 A    45 B                  
  0.630   0.639   0.659   0.668   0.670   0.696   0.731   0.738
 47 A    46 B    48 A    49 A    47 B    48 B    50 A    49 B                  
  0.739   0.751   0.780   0.784   0.804   0.816   0.840   0.849
 51 A    50 B    52 A    51 B    52 B    53 A    54 A    53 B                  
  0.861   0.881   0.886   0.896   0.916   0.921   0.946   0.952
 55 A    54 B    56 A    55 B    57 A    56 B    58 A    57 B                  
  0.973   0.992   0.998   1.014   1.040   1.058   1.066   1.082
 58 B    59 A    59 B    60 A    60 B    61 B    61 A    62 B                  
  1.088   1.098   1.102   1.110   1.140   1.163   1.165   1.170
 62 A    63 A    64 A    63 B    64 B    65 A    65 B    66 A                  
  1.197   1.205   1.210   1.223   1.241   1.257   1.262   1.280
 66 B    67 A    67 B    68 A    68 B    69 A    69 B    70 B                  
  1.288   1.312   1.316   1.347   1.386   1.389   1.405   1.428
 70 A    71 B    71 A    72 A    72 B    73 A    73 B    74 A                  
  1.459   1.465   1.475   1.483   1.499   1.505   1.514   1.528
 74 B    75 A    76 A    75 B    76 B    77 A    78 A    77 B                  
  1.547   1.551   1.567   1.585   1.603   1.608   1.641   1.645
 78 B    79 A    79 B    80 A    80 B    81 A    82 A    81 B                  
  1.665   1.671   1.717   1.724   1.739   1.765   1.789   1.824
 82 B    83 A    83 B    84 A    84 B    85 A    85 B    86 A                  
  1.828   1.865   1.869   1.890   1.890   1.933   1.936   1.954
 86 B    87 A    87 B    88 B    88 A    89 A    89 B    90 B                  
  1.964   1.968   2.054   2.071   2.084   2.111   2.118   2.160
 90 A    91 A    91 B    92 A    92 B    93 B    93 A    94 A                  
  2.170   2.192   2.200   2.207   2.228   2.242   2.258   2.271
 94 B    95 B    95 A    96 A    96 B    97 A    97 B    98 B                  
  2.277   2.300   2.308   2.400   2.432   2.443   2.450   2.472
 98 A    99 A    99 B   100 A   100 B   101 A   101 B   102 B                  
  2.485   2.493   2.510   2.521   2.552   2.564   2.573   2.606
102 A   103 A   103 B   104 A   105 A   104 B   105 B   106 A                  
  2.637   2.647   2.661   2.680   2.731   2.732   2.761   2.765
106 B   107 B   107 A   108 A   108 B   109 A   110 A   109 B                  
  2.765   2.772   2.780   2.798   2.821   2.854   2.894   2.899
111 A   110 B   111 B   112 A   112 B   113 A   113 B   114 A                  
  2.902   2.918   2.954   2.959   3.001   3.003   3.011   3.016
114 B   115 A   116 A   115 B   116 B   117 A   117 B   118 A                  
  3.033   3.042   3.088   3.107   3.153   3.154   3.168   3.183
118 B   119 A   119 B   120 A   120 B   121 A   121 B   122 A                  
  3.204   3.220   3.230   3.245   3.258   3.259   3.265   3.293
122 B   123 B   123 A   124 B   125 B   124 A   125 A   126 A                  
  3.304   3.315   3.319   3.320   3.341   3.354   3.382   3.393
127 A   126 B   127 B   128 A   129 A   128 B   129 B   130 A                  
  3.416   3.420   3.425   3.440   3.453   3.457   3.469   3.470
131 A   132 A   130 B   133 A   131 B   134 A   135 A   132 B                  
  3.492   3.497   3.505   3.507   3.512   3.518   3.522   3.541
133 B   134 B   136 A   135 B   137 A   136 B   138 A   137 B                  
  3.546   3.569   3.578   3.593   3.620   3.623   3.636   3.673
138 B   139 A   139 B   140 A   140 B   141 A   141 B   142 A                  
  3.680   3.688   3.703   3.728   3.733   3.744   3.774   3.779
142 B   143 B   143 A   144 B   144 A   145 A   145 B   146 A                  
  3.813   3.825   3.876   3.889   3.914   3.924   3.924   3.951
147 A   146 B   147 B   148 A   148 B   149 A   149 B   150 B                  
  3.958   3.992   3.994   4.011   4.011   4.018   4.040   4.042
150 A   151 A   151 B   152 A   152 B   153 A   153 B   154 A                  
  4.097   4.109   4.134   4.141   4.171   4.179   4.185   4.190
155 A   154 B   155 B   156 A   156 B   157 A   158 A   157 B                  
  4.199   4.202   4.207   4.238   4.271   4.284   4.299   4.311
159 A   158 B   160 A   159 B   161 A   160 B   161 B   162 A                  
  4.352   4.369   4.412   4.446   4.466   4.476   4.498   4.500
162 B   163 A   163 B   164 A   165 A   164 B   165 B   166 A                  
  4.512   4.590   4.624   4.636   4.643   4.656   4.692   4.701
167 A   166 B   168 A   167 B   169 A   168 B   170 A   171 A                  
  4.702   4.708   4.760   4.763   4.809   4.815   4.841   4.864
169 B   170 B   171 B   172 A   173 A   172 B   174 A   173 B                  
  4.882   4.983   4.994   5.016   5.044   5.067   5.070   5.083
175 A   174 B   175 B   176 A   177 A   178 A   176 B   179 A                  
  5.092   5.126   5.199   5.217   5.255   5.288   5.342   5.345
177 B   178 B   180 A   179 B   180 B   181 A   181 B   182 A                  
  5.392   5.409   5.433   5.454   5.586   5.604   5.637   5.683
183 A   182 B   183 B   184 A   185 A   184 B   185 B   186 A                  
  5.811   5.866   5.997   6.049   6.100   6.132   6.156   6.218
187 A   186 B   188 A   187 B   189 A   188 B   190 A   189 B                  
  6.386   6.534   6.585   6.675   6.827   9.427  10.876  11.782
190 B   191 A   191 B   192 A   192 B   193 A   193 B   194 A                  
 12.325  13.315  13.841  14.445  14.993
194 B   195 A   195 B   196 A   196 B                                          
 --------------------------------------------------------------
 
          Ground-State Mulliken Net Atomic Charges

     Atom                 Charge (a.u.)
  ----------------------------------------
      1 S                     0.109926
      2 C                    -0.237757
      3 C                    -0.198525
      4 C                    -0.192677
      5 C                    -0.009585
      6 H                     0.169368
      7 C                    -0.009585
      8 S                     0.109926
      9 C                    -0.192677
     10 C                    -0.237757
     11 C                    -0.198525
     12 H                     0.173996
     13 H                     0.185254
     14 H                     0.173996
     15 H                     0.185254
     16 H                     0.169368
  ----------------------------------------
  Sum of atomic charges =     0.000000

 -----------------------------------------------------------------
                    Cartesian Multipole Moments
 -----------------------------------------------------------------
    Charge (ESU x 10^10)
                -0.0000
    Dipole Moment (Debye)
         X      -0.0000      Y       0.0000      Z      -0.7018
       Tot       0.7018
    Quadrupole Moments (Debye-Ang)
        XX     -61.0907     XY       0.4491     YY     -77.3565
        XZ       0.0000     YZ      -0.0000     ZZ     -68.1603
    Octopole Moments (Debye-Ang^2)
       XXX      -0.0000    XXY      -0.0000    XYY      -0.0000
       YYY       0.0000    XXZ       5.5204    XYZ      -6.8586
       YYZ       2.5330    XZZ       0.0000    YZZ      -0.0000
       ZZZ      -6.2249
    Hexadecapole Moments (Debye-Ang^3)
      XXXX   -1823.3668   XXXY       6.2019   XXYY    -403.7959
      XYYY       1.4421   YYYY    -131.9866   XXXZ       0.0000
      XXYZ      -0.0000   XYYZ      -0.0000   YYYZ      -0.0000
      XXZZ    -396.3377   XYZZ       8.4703   YYZZ    -114.9762
      XZZZ       0.0000   YZZZ      -0.0000   ZZZZ    -517.2225
 -----------------------------------------------------------------
 DrvMan is completing analytic gradient of the MP2 energy
 MP2 relaxed dipole moment
            1
    1  -0.0000000
    2   0.0000000
    3  -0.2761157
	Magnitude:	 0.276 au	 0.702 Debye
 MP2 energy read as -1103.413548
 Full Analytical Gradient of MP2 Energy (in au.)
             1             2             3             4             5
    1    0.00018533   -0.00009981   -0.00007066   -0.00006422    0.00021410
    2   -0.00028939    0.00028498   -0.00043397    0.00085696   -0.00076601
    3    0.00024884    0.00011362   -0.00013321    0.00037906   -0.00039610
             6             7             8             9            10
    1    0.00008447   -0.00021410   -0.00018533    0.00006422    0.00009981
    2   -0.00053153    0.00076601    0.00028939   -0.00085696   -0.00028498
    3   -0.00018526   -0.00039610    0.00024884    0.00037906    0.00011362
            11            12            13            14            15
    1    0.00007066    0.00002250   -0.00002387   -0.00002250    0.00002387
    2    0.00043397   -0.00015200    0.00002307    0.00015200   -0.00002307
    3   -0.00013321   -0.00001142   -0.00001553   -0.00001142   -0.00001553
            16
    1   -0.00008447
    2    0.00053153
    3   -0.00018526
 Gradient time:  CPU 1.52 s  wall 0.10 s
 Geometry Optimization Parameters
   NAtoms,    NIC,     NZ,  NCons,   NDum,   NFix, NCnnct, MaxDiis
       16     111       0       1       0       0       0       0

 Cartesian Hessian Update
 Hessian Updated using BFGS Update


** CONSTRAINED OPTIMIZATION IN DELOCALIZED INTERNAL COORDINATES **
   Searching for a Minimum

   Optimization Cycle:   3

                       Coordinates (Angstroms)
     ATOM                X               Y               Z
      1  S         1.6324365448   -0.3461173199    1.1030598295
      2  C         3.1143919964   -0.0807480192    0.3002679854
      3  C         2.9179804016    0.2592638422   -1.0154023185
      4  C         1.5588154105    0.3227535821   -1.3596393589
      5  C         0.7190839413    0.0189194420   -0.3085336016
      6  H         1.1884962328    0.5915256652   -2.3325709161
      7  C        -0.7190839413   -0.0189194420   -0.3085336016
      8  S        -1.6324365448    0.3461173199    1.1030598295
      9  C        -1.5588154105   -0.3227535821   -1.3596393589
     10  C        -3.1143919964    0.0807480192    0.3002679854
     11  C        -2.9179804016   -0.2592638422   -1.0154023185
     12  H        -3.7247293950   -0.4691213022   -1.6932085340
     13  H         4.0414085083   -0.1893833231    0.8268787402
     14  H         3.7247293950    0.4691213022   -1.6932085340
[...]
         Gradient           0.000047      0.000300     YES
         Displacement       0.001928      0.001200      NO
         Energy change     -0.000000      0.000001     YES

 Final energy is   -1103.41357644962     


 ******************************
 **  OPTIMIZATION CONVERGED  **
 ******************************

                       Coordinates (Angstroms)
     ATOM                X               Y               Z
      1  S         1.6355812247   -0.3545775630    1.1012664433
      2  C         3.1158486050   -0.0887207673    0.2952863964
      3  C         2.9158974220    0.2641689510   -1.0164598614
      4  C         1.5556434217    0.3320027392   -1.3561014287
      5  C         0.7188109510    0.0230693370   -0.3039200360
      6  H         1.1810754676    0.6199314293   -2.3218836634
      7  C        -0.7188109510   -0.0230693370   -0.3039200360
      8  S        -1.6355812247    0.3545775630    1.1012664433
      9  C        -1.5556434217   -0.3320027392   -1.3561014287
     10  C        -3.1158486050    0.0887207673    0.2952863964
     11  C        -2.9158974220   -0.2641689510   -1.0164598614
     12  H        -3.7213081410   -0.4750572993   -1.6954900142
     13  H         4.0442600441   -0.2037477756    0.8181539900
     14  H         3.7213081410    0.4750572993   -1.6954900142
     15  H        -4.0442600441    0.2037477756    0.8181539900
     16  H        -1.1810754676   -0.6199314293   -2.3218836634

Z-matrix Print:
$molecule
0 1
S 
C  1 1.706305
H  2 1.071713 1 120.288439
C  2 1.373022 1 111.406491 3 -179.980868 0
H  4 1.074357 2 123.031835 1 -179.974515 0
C  4 1.403655 2 112.626170 1 -0.702688 0
H  6 1.075146 4 124.604881 2 -177.988001 0
C  6 1.379425 4 113.110490 2 0.345717 0
C  8 1.438362 6 127.844804 4 179.124365 0
C  9 1.379425 8 127.844804 6 -30.000000 0
H  10 1.075146 9 122.262936 8 -2.497531 0
C  10 1.403655 9 113.110490 8 179.124365 0
H  12 1.074357 10 124.337659 9 179.606397 0
C  12 1.373022 10 112.626170 9 0.345717 0
H  14 1.071713 12 128.305067 10 179.318365 0
S  14 1.706305 12 111.406491 10 -0.702688 0
$end

 
 --------------------------------------------------------------
             Orbital Energies (a.u.) and Symmetries
 --------------------------------------------------------------
 
 Alpha MOs, Restricted
 -- Occupied --                  
-91.985 -91.985 -11.275 -11.274 -11.261 -11.261 -11.238 -11.238
  1 A     1 B     2 A     2 B     3 B     3 A     4 B     4 A                  
-11.237 -11.237  -8.986  -8.986  -6.667  -6.667  -6.667  -6.667
  5 B     5 A     6 B     6 A     7 B     7 A     8 A     8 B                  
 -6.666  -6.666  -1.197  -1.166  -1.035  -0.999  -0.985  -0.948
  9 A     9 B    10 A    10 B    11 A    12 A    11 B    12 B                  
 -0.809  -0.777  -0.749  -0.717  -0.707  -0.645  -0.574  -0.571
 13 A    14 A    13 B    14 B    15 A    15 B    16 A    17 A                  
 -0.562  -0.553  -0.541  -0.512  -0.512  -0.486  -0.467  -0.370
 16 B    17 B    18 A    19 A    18 B    20 A    19 B    20 B                  
 -0.352  -0.349  -0.283
 21 B    21 A    22 A                                                          
 -- Virtual --                   
  0.077   0.139   0.148   0.153   0.160   0.175   0.175   0.185
 22 B    23 A    24 A    23 B    25 A    24 B    26 A    25 B                  
  0.201   0.213   0.214   0.236   0.247   0.277   0.312   0.348
 27 A    28 A    26 B    29 A    27 B    28 B    30 A    29 B                  
  0.356   0.361   0.367   0.376   0.388   0.398   0.419   0.431
 31 A    30 B    32 A    33 A    31 B    32 B    33 B    34 A                  
  0.451   0.451   0.462   0.463   0.480   0.484   0.510   0.517
 35 A    34 B    36 A    35 B    37 A    36 B    37 B    38 A                  
  0.528   0.536   0.541   0.545   0.549   0.558   0.560   0.563
 39 A    38 B    40 A    39 B    41 A    40 B    42 A    41 B                  
  0.581   0.593   0.595   0.597   0.608   0.613   0.618   0.620
 42 B    43 A    44 A    43 B    44 B    45 A    46 A    45 B                  
  0.629   0.639   0.660   0.668   0.670   0.695   0.731   0.738
 47 A    46 B    48 A    49 A    47 B    48 B    50 A    51 A                  
  0.738   0.752   0.781   0.784   0.804   0.815   0.841   0.850
 49 B    50 B    52 A    51 B    52 B    53 A    54 A    53 B                  
  0.860   0.883   0.885   0.894   0.917   0.918   0.946   0.952
 55 A    54 B    56 A    55 B    57 A    56 B    58 A    57 B                  
  0.972   0.995   0.999   1.015   1.038   1.056   1.066   1.083
 58 B    59 A    59 B    60 A    60 B    61 B    61 A    62 B                  
  1.087   1.099   1.103   1.110   1.142   1.163   1.168   1.171
 62 A    63 A    64 A    63 B    64 B    65 A    65 B    66 A                  
  1.196   1.204   1.210   1.222   1.241   1.257   1.259   1.282
 66 B    67 A    67 B    68 A    68 B    69 A    69 B    70 B                  
  1.291   1.312   1.316   1.349   1.386   1.391   1.403   1.428
 70 A    71 B    71 A    72 A    72 B    73 A    73 B    74 A                  
  1.458   1.468   1.476   1.481   1.498   1.506   1.514   1.528
 74 B    75 A    76 A    75 B    76 B    77 A    78 A    77 B                  
  1.547   1.551   1.567   1.584   1.604   1.609   1.641   1.645
 78 B    79 A    79 B    80 A    80 B    81 A    82 A    81 B                  
  1.665   1.672   1.718   1.725   1.737   1.764   1.785   1.824
 82 B    83 A    83 B    84 A    84 B    85 A    85 B    86 A                  
  1.828   1.864   1.870   1.890   1.890   1.933   1.935   1.953
 86 B    87 A    87 B    88 A    88 B    89 A    89 B    90 B                  
  1.964   1.968   2.052   2.072   2.084   2.110   2.118   2.162
 90 A    91 A    91 B    92 A    92 B    93 B    93 A    94 A                  
  2.169   2.191   2.199   2.206   2.226   2.243   2.259   2.271
 94 B    95 B    95 A    96 A    96 B    97 A    97 B    98 B                  
  2.277   2.301   2.309   2.399   2.433   2.442   2.453   2.472
 98 A    99 A    99 B   100 A   100 B   101 A   101 B   102 B                  
  2.487   2.493   2.510   2.522   2.552   2.566   2.571   2.606
102 A   103 A   103 B   104 A   105 A   104 B   105 B   106 A                  
  2.636   2.647   2.663   2.681   2.729   2.733   2.761   2.763
106 B   107 B   107 A   108 A   108 B   109 A   110 A   109 B                  
  2.767   2.772   2.779   2.798   2.821   2.855   2.893   2.898
111 A   110 B   111 B   112 A   112 B   113 A   113 B   114 A                  
  2.902   2.920   2.957   2.962   2.997   3.004   3.009   3.015
114 B   115 A   116 A   115 B   116 B   117 A   117 B   118 A                  
  3.034   3.040   3.089   3.108   3.152   3.154   3.168   3.185
118 B   119 A   119 B   120 A   120 B   121 A   121 B   122 A                  
  3.204   3.220   3.230   3.243   3.257   3.258   3.267   3.293
122 B   123 B   123 A   124 B   125 B   124 A   125 A   126 A                  
  3.302   3.316   3.319   3.321   3.345   3.357   3.380   3.393
127 A   126 B   127 B   128 A   129 A   128 B   129 B   130 A                  
  3.417   3.420   3.425   3.439   3.453   3.456   3.469   3.470
131 A   132 A   130 B   133 A   131 B   134 A   132 B   135 A                  
  3.493   3.496   3.503   3.507   3.512   3.520   3.523   3.541
133 B   134 B   136 A   135 B   137 A   136 B   138 A   137 B                  
  3.546   3.569   3.578   3.592   3.620   3.626   3.637   3.671
138 B   139 A   139 B   140 A   140 B   141 A   141 B   142 A                  
  3.679   3.691   3.701   3.729   3.732   3.744   3.775   3.780
142 B   143 B   143 A   144 B   144 A   145 A   145 B   146 A                  
  3.813   3.825   3.875   3.889   3.913   3.924   3.925   3.949
147 A   146 B   147 B   148 A   148 B   149 A   149 B   150 B                  
  3.959   3.992   3.994   4.010   4.011   4.018   4.040   4.042
150 A   151 A   151 B   152 A   152 B   153 A   153 B   154 A                  
  4.098   4.110   4.131   4.140   4.170   4.180   4.185   4.191
155 A   154 B   155 B   156 A   156 B   157 A   158 A   157 B                  
  4.198   4.203   4.209   4.235   4.273   4.283   4.295   4.314
159 A   158 B   160 A   159 B   161 A   160 B   161 B   162 A                  
  4.354   4.370   4.411   4.447   4.466   4.474   4.499   4.500
162 B   163 A   163 B   164 A   165 A   164 B   165 B   166 A                  
  4.510   4.592   4.622   4.635   4.646   4.654   4.692   4.701
167 A   166 B   168 A   167 B   169 A   168 B   170 A   171 A                  
  4.703   4.706   4.760   4.767   4.809   4.815   4.841   4.859
169 B   170 B   171 B   172 A   173 A   172 B   174 A   173 B                  
  4.883   4.979   4.996   5.016   5.042   5.068   5.071   5.083
175 A   174 B   175 B   176 A   177 A   178 A   176 B   179 A                  
  5.090   5.125   5.201   5.216   5.255   5.287   5.340   5.345
177 B   178 B   180 A   179 B   180 B   181 A   181 B   182 A                  
  5.392   5.407   5.431   5.454   5.586   5.605   5.636   5.683
183 A   182 B   183 B   184 A   185 A   184 B   185 B   186 A                  
  5.811   5.866   5.998   6.047   6.102   6.131   6.157   6.216
187 A   186 B   188 A   187 B   189 A   188 B   190 A   189 B                  
  6.381   6.536   6.584   6.674   6.826   9.436  10.875  11.782
190 B   191 A   191 B   192 A   192 B   193 A   193 B   194 A                  
 12.316  13.312  13.834  14.445  14.990
194 B   195 A   195 B   196 A   196 B                                          
 
 Beta MOs, Restricted
 -- Occupied --                  
-91.985 -91.985 -11.275 -11.274 -11.261 -11.261 -11.238 -11.238
  1 A     1 B     2 A     2 B     3 B     3 A     4 B     4 A                  
-11.237 -11.237  -8.986  -8.986  -6.667  -6.667  -6.667  -6.667
  5 B     5 A     6 B     6 A     7 B     7 A     8 A     8 B                  
 -6.666  -6.666  -1.197  -1.166  -1.035  -0.999  -0.985  -0.948
  9 A     9 B    10 A    10 B    11 A    12 A    11 B    12 B                  
 -0.809  -0.777  -0.749  -0.717  -0.707  -0.645  -0.574  -0.571
 13 A    14 A    13 B    14 B    15 A    15 B    16 A    17 A                  
 -0.562  -0.553  -0.541  -0.512  -0.512  -0.486  -0.467  -0.370
 16 B    17 B    18 A    19 A    18 B    20 A    19 B    20 B                  
 -0.352  -0.349  -0.283
 21 B    21 A    22 A                                                          
 -- Virtual --                   
  0.077   0.139   0.148   0.153   0.160   0.175   0.175   0.185
 22 B    23 A    24 A    23 B    25 A    24 B    26 A    25 B                  
  0.201   0.213   0.214   0.236   0.247   0.277   0.312   0.348
 27 A    28 A    26 B    29 A    27 B    28 B    30 A    29 B                  
  0.356   0.361   0.367   0.376   0.388   0.398   0.419   0.431
 31 A    30 B    32 A    33 A    31 B    32 B    33 B    34 A                  
  0.451   0.451   0.462   0.463   0.480   0.484   0.510   0.517
 35 A    34 B    36 A    35 B    37 A    36 B    37 B    38 A                  
  0.528   0.536   0.541   0.545   0.549   0.558   0.560   0.563
 39 A    38 B    40 A    39 B    41 A    40 B    42 A    41 B                  
  0.581   0.593   0.595   0.597   0.608   0.613   0.618   0.620
 42 B    43 A    44 A    43 B    44 B    45 A    46 A    45 B                  
  0.629   0.639   0.660   0.668   0.670   0.695   0.731   0.738
 47 A    46 B    48 A    49 A    47 B    48 B    50 A    51 A                  
  0.738   0.752   0.781   0.784   0.804   0.815   0.841   0.850
 49 B    50 B    52 A    51 B    52 B    53 A    54 A    53 B                  
  0.860   0.883   0.885   0.894   0.917   0.918   0.946   0.952
 55 A    54 B    56 A    55 B    57 A    56 B    58 A    57 B                  
  0.972   0.995   0.999   1.015   1.038   1.056   1.066   1.083
 58 B    59 A    59 B    60 A    60 B    61 B    61 A    62 B                  
  1.087   1.099   1.103   1.110   1.142   1.163   1.168   1.171
 62 A    63 A    64 A    63 B    64 B    65 A    65 B    66 A                  
  1.196   1.204   1.210   1.222   1.241   1.257   1.259   1.282
 66 B    67 A    67 B    68 A    68 B    69 A    69 B    70 B                  
  1.291   1.312   1.316   1.349   1.386   1.391   1.403   1.428
 70 A    71 B    71 A    72 A    72 B    73 A    73 B    74 A                  
  1.458   1.468   1.476   1.481   1.498   1.506   1.514   1.528
 74 B    75 A    76 A    75 B    76 B    77 A    78 A    77 B                  
  1.547   1.551   1.567   1.584   1.604   1.609   1.641   1.645
 78 B    79 A    79 B    80 A    80 B    81 A    82 A    81 B                  
  1.665   1.672   1.718   1.725   1.737   1.764   1.785   1.824
 82 B    83 A    83 B    84 A    84 B    85 A    85 B    86 A                  
  1.828   1.864   1.870   1.890   1.890   1.933   1.935   1.953
 86 B    87 A    87 B    88 A    88 B    89 A    89 B    90 B                  
  1.964   1.968   2.052   2.072   2.084   2.110   2.118   2.162
 90 A    91 A    91 B    92 A    92 B    93 B    93 A    94 A                  
  2.169   2.191   2.199   2.206   2.226   2.243   2.259   2.271
 94 B    95 B    95 A    96 A    96 B    97 A    97 B    98 B                  
  2.277   2.301   2.309   2.399   2.433   2.442   2.453   2.472
 98 A    99 A    99 B   100 A   100 B   101 A   101 B   102 B                  
  2.487   2.493   2.510   2.522   2.552   2.566   2.571   2.606
102 A   103 A   103 B   104 A   105 A   104 B   105 B   106 A                  
  2.636   2.647   2.663   2.681   2.729   2.733   2.761   2.763
106 B   107 B   107 A   108 A   108 B   109 A   110 A   109 B                  
  2.767   2.772   2.779   2.798   2.821   2.855   2.893   2.898
111 A   110 B   111 B   112 A   112 B   113 A   113 B   114 A                  
  2.902   2.920   2.957   2.962   2.997   3.004   3.009   3.015
114 B   115 A   116 A   115 B   116 B   117 A   117 B   118 A                  
  3.034   3.040   3.089   3.108   3.152   3.154   3.168   3.185
118 B   119 A   119 B   120 A   120 B   121 A   121 B   122 A                  
  3.204   3.220   3.230   3.243   3.257   3.258   3.267   3.293
122 B   123 B   123 A   124 B   125 B   124 A   125 A   126 A                  
  3.302   3.316   3.319   3.321   3.345   3.357   3.380   3.393
127 A   126 B   127 B   128 A   129 A   128 B   129 B   130 A                  
  3.417   3.420   3.425   3.439   3.453   3.456   3.469   3.470
131 A   132 A   130 B   133 A   131 B   134 A   132 B   135 A                  
  3.493   3.496   3.503   3.507   3.512   3.520   3.523   3.541
133 B   134 B   136 A   135 B   137 A   136 B   138 A   137 B                  
  3.546   3.569   3.578   3.592   3.620   3.626   3.637   3.671
138 B   139 A   139 B   140 A   140 B   141 A   141 B   142 A                  
  3.679   3.691   3.701   3.729   3.732   3.744   3.775   3.780
142 B   143 B   143 A   144 B   144 A   145 A   145 B   146 A                  
  3.813   3.825   3.875   3.889   3.913   3.924   3.925   3.949
147 A   146 B   147 B   148 A   148 B   149 A   149 B   150 B                  
  3.959   3.992   3.994   4.010   4.011   4.018   4.040   4.042
150 A   151 A   151 B   152 A   152 B   153 A   153 B   154 A                  
  4.098   4.110   4.131   4.140   4.170   4.180   4.185   4.191
155 A   154 B   155 B   156 A   156 B   157 A   158 A   157 B                  
  4.198   4.203   4.209   4.235   4.273   4.283   4.295   4.314
159 A   158 B   160 A   159 B   161 A   160 B   161 B   162 A                  
  4.354   4.370   4.411   4.447   4.466   4.474   4.499   4.500
162 B   163 A   163 B   164 A   165 A   164 B   165 B   166 A                  
  4.510   4.592   4.622   4.635   4.646   4.654   4.692   4.701
167 A   166 B   168 A   167 B   169 A   168 B   170 A   171 A                  
  4.703   4.706   4.760   4.767   4.809   4.815   4.841   4.859
169 B   170 B   171 B   172 A   173 A   172 B   174 A   173 B                  
  4.883   4.979   4.996   5.016   5.042   5.068   5.071   5.083
175 A   174 B   175 B   176 A   177 A   178 A   176 B   179 A                  
  5.090   5.125   5.201   5.216   5.255   5.287   5.340   5.345
177 B   178 B   180 A   179 B   180 B   181 A   181 B   182 A                  
  5.392   5.407   5.431   5.454   5.586   5.605   5.636   5.683
183 A   182 B   183 B   184 A   185 A   184 B   185 B   186 A                  
  5.811   5.866   5.998   6.047   6.102   6.131   6.157   6.216
187 A   186 B   188 A   187 B   189 A   188 B   190 A   189 B                  
  6.381   6.536   6.584   6.674   6.826   9.436  10.875  11.782
190 B   191 A   191 B   192 A   192 B   193 A   193 B   194 A                  
 12.316  13.312  13.834  14.445  14.990
194 B   195 A   195 B   196 A   196 B                                          
 --------------------------------------------------------------
 
          Ground-State Mulliken Net Atomic Charges

     Atom                 Charge (a.u.)
  ----------------------------------------
      1 S                     0.110678
      2 C                    -0.237985
      3 C                    -0.198278
      4 C                    -0.193675
      5 C                    -0.009933
      6 H                     0.169938
      7 C                    -0.009933
      8 S                     0.110678
      9 C                    -0.193675
     10 C                    -0.237985
     11 C                    -0.198278
     12 H                     0.174042
     13 H                     0.185214
     14 H                     0.174042
     15 H                     0.185214
     16 H                     0.169938
  ----------------------------------------
  Sum of atomic charges =     0.000000

 -----------------------------------------------------------------
                    Cartesian Multipole Moments
 -----------------------------------------------------------------
    Charge (ESU x 10^10)
                -0.0000
    Dipole Moment (Debye)
         X       0.0000      Y      -0.0000      Z      -0.7000
       Tot       0.7000
    Quadrupole Moments (Debye-Ang)
        XX     -61.0826     XY       0.4102     YY     -77.2936
        XZ       0.0000     YZ      -0.0000     ZZ     -68.2426
    Octopole Moments (Debye-Ang^2)
       XXX       0.0000    XXY      -0.0000    XYY      -0.0000
       YYY      -0.0000    XXZ       5.4602    XYZ      -7.0496
       YYZ       2.4401    XZZ      -0.0000    YZZ       0.0000
       ZZZ      -5.9653
    Hexadecapole Moments (Debye-Ang^3)
      XXXX   -1823.3234   XXXY       5.8427   XXYY    -403.8914
      XYYY       2.5464   YYYY    -133.9845   XXXZ      -0.0000
      XXYZ      -0.0000   XYYZ       0.0000   YYYZ       0.0000
      XXZZ    -396.6296   XYZZ       8.9813   YYZZ    -114.5871
      XZZZ       0.0000   YZZZ      -0.0000   ZZZZ    -516.2895
 -----------------------------------------------------------------
Archival summary:
1\1\nid01210\OPT\MP2\BasisUnspecified\286\MonMar616:56:012017MonMar616:56:012017\0\\#,OPT,MP2,BasisUnspecified,\\0,1\S\C,1,1.7063\H,2,1.07171,1,120.288\C,2,1.37302,1,111.406,3,-179.981,0\H,4,1.07436,2,123.032,1,-179.975,0\C,4,1.40366,2,112.626,1,-0.702688,0\H,6,1.07515,4,124.605,2,-177.988,0\C,6,1.37943,4,113.11,2,0.345717,0\C,8,1.43836,6,127.845,4,179.124,0\C,9,1.37943,8,127.845,6,-30,0\H,10,1.07515,9,122.263,8,-2.49753,0\C,10,1.40366,9,113.11,8,179.124,0\H,12,1.07436,10,124.338,9,179.606,0\C,12,1.37302,10,112.626,9,0.345717,0\H,14,1.07171,12,128.305,10,179.318,0\S,14,1.7063,12,111.406,10,-0.702688,0\\HF=-1101.59815\MP2=-1103.41358\\@

 Total job time:  10541.94s(wall), 54404.49s(cpu) 
 Mon Mar  6 16:56:01 2017

        *************************************************************
        *                                                           *
        *  Thank you very much for using Q-Chem.  Have a nice day.  *
        *                                                           *
        *************************************************************


0 sent ACK to 0 
now end server 0 ... 
