srun -N 1 --ntasks-per-node 1 --cpus-per-task 64 --cpu_bind=cores --nodelist nid01206 /global/project/projectdirs/jcesr/qchem/qc44/cnl_qc441/dist/exe/qcprog.cori.haswell.exe .pt_mp2_-110.0.in.29925.qcin.1 /dev/shm/eg_qchem/qchem29925/
Process 0 of 1 is on nid01206 - thread support 0
initial socket setup ...start
initial socket setup ...done 
now start server 0 ... 
nid01206 10.128.4
Q-Chem Developer Version! Running on 10.128.4.*
                  Welcome to Q-Chem
     A Quantum Leap Into The Future Of Chemistry


 Q-Chem 4.4, Q-Chem, Inc., Pleasanton, CA (2016)

 Y. Shao,  Z. Gan,  E. Epifanovsky,  A. T. B. Gilbert,  M. Wormit,  
 J. Kussmann,  A. W. Lange,  A. Behn,  J. Deng,  X. Feng,  D. Ghosh,  
 M. Goldey,  P. R. Horn,  L. D. Jacobson,  I. Kaliman,  F.Rob,  
 R. Z. Khaliullin,  T. Kus,  A. Landau,  J. Liu,  E. I. Proynov,  Y. M. Rhee,  
 R. M. Richard,  M. A. Rohrdanz,  R. P. Steele,  E. J. Sundstrom,  
 H. L. Woodcock III,  P. M. Zimmerman,  D. Zuev,  B. Albrecht,  E. Alguire,  
 B. Austin,  S. A. Baeppler,  G. J. O. Beran,  Y. A. Bernard,  E. Berquist,  
 K. Brandhorst,  K. B. Bravaya,  S. T. Brown,  D. Casanova,  C.-M. Chang,  
 Y. Chen,  S. H. Chien,  K. D. Closser,  M. P. Coons,  D. L. Crittenden,  
 S. Dasgupta,  M. Diedenhofen,  R. A. DiStasio Jr.,  H. Do,  A. D. Dutoi,  
 R. G. Edgar,  P.-T. Fang,  S. Fatehi,  Q. Feng,  L. Fusti-Molnar,  
 A. Ghysels,  A. Golubeva-Zadorozhnaya,  J. Gomes,  A. Gunina,  
 M. W. D. Hanson-Heine,  P. H. P. Harbach,  A. W. Hauser,  E. G. Hohenstein,  
 Z. C. Holden,  K. Hui,  T.-C. Jagau,  H. Ji,  B. Kaduk,  K. Khistyaev,  
 Jaehoon Kim,  Jihan Kim,  R. A. King,  P. Klunzinger,  D. Kosenkov,  
 T. Kowalczyk,  C. M. Krauter,  A. Kunitsa,  K. U. Lao,  A. Laurent,  
 K. V. Lawler,  D. Lefrancois,  S. Lehtola,  S. V. Levchenko,  C. Y. Lin,  
 Y.-S. Lin,  F. Liu,  E. Livshits,  R. C. Lochan,  A. Luenser,  P. Manohar,  
 S. F. Manzer,  S.-P. Mao,  Y. Mao,  N. Mardirossian,  A. V. Marenich,  
 L. A. Martinez-Martinez,  S. A. Maurer,  N. J. Mayhall,  J.-M. Mewes,  
 A. F. Morrison,  K. Nanda,  C. M. Oana,  R. Olivares-Amaya,  D. P. O'Neill,  
 J. A. Parkhill,  T. M. Perrine,  R. Peverati,  P. A. Pieniazek,  F. Plasser,  
 A. Prociuk,  D. R. Rehn,  E. Rosta,  N. J. Russ,  N. Sergueev,  
 S. M. Sharada,  S. Sharma,  D. W. Small,  A. Sodt,  T. Stauch,  T. Stein,  
 D. Stuck,  Y.-C. Su,  A. J. W. Thom,  T. Tsuchimochi,  L. Vogt,  O. Vydrov,  
 T. Wang,  M. A. Watson,  J. Wenzel,  A. White,  C. F. Williams,  
 V. Vanovschi,  S. Yeganeh,  S. R. Yost,  Z.-Q. You,  I. Y. Zhang,  X. Zhang,  
 Y. Zhao,  B. R. Brooks,  G. K. L. Chan,  D. M. Chipman,  C. J. Cramer,  
 W. A. Goddard III,  M. S. Gordon,  W. J. Hehre,  A. Klamt,  
 H. F. Schaefer III,  M. W. Schmidt,  C. D. Sherrill,  D. G. Truhlar,  
 A. Warshel,  X. Xu,  A. Aspuru-Guzik,  R. Baer,  A. T. Bell,  N. A. Besley,  
 J.-D. Chai,  A. Dreuw,  B. D. Dunietz,  T. R. Furlani,  S. R. Gwaltney,  
 C.-P. Hsu,  Y. Jung,  J. Kong,  D. S. Lambrecht,  W. Liang,  C. Ochsenfeld,  
 V. A. Rassolov,  L. V. Slipchenko,  J. E. Subotnik,  T. Van Voorhis,  
 J. M. Herbert,  A. I. Krylov,  P. M. W. Gill,  M. Head-Gordon

 Contributors to earlier versions of Q-Chem not listed above: 
 R. D. Adamson,  J. Baker,  E. F. C. Byrd,  A. K. Chakraborty,  C.-L. Cheng,  
 H. Dachsel,  R. J. Doerksen,  G. Hawkins,  A. Heyden,  S. Hirata,  
 G. Kedziora,  F. J. Keil,  C. Kelley,  P. P. Korambath,  W. Kurlancheek,  
 A. M. Lee,  M. S. Lee,  D. Liotard,  I. Lotan,  P. E. Maslen,  N. Nair,  
 D. Neuhauser,  R. Olson,  B. Peters,  J. Ritchie,  N. E. Schultz,  
 N. Shenvi,  A. C. Simmonett,  K. S. Thanthiriwatte,  Q. Wu,  W. Zhang

 Please cite Q-Chem as follows:
 Y. Shao et al., Mol. Phys. 113, 184-215 (2015)
 DOI: 10.1080/00268976.2014.952696

 Q-Chem 4.4.1 for Intel X86 EM64T Linux

 Parts of Q-Chem use Armadillo 5.200.1 (Boston Tea Smuggler).
 http://arma.sourceforge.net/

 Q-Chem begins on Mon Mar  6 14:00:22 2017  

Host: nid01196
0

     Scratch files written to /dev/shm/eg_qchem/qchem29925//
 Parallel job on  1  processors

Checking the input file for inconsistencies... 	...done.

--------------------------------------------------------------
User input:
--------------------------------------------------------------
$molecule
 0  1
 S           1.80900300       -1.15938900        0.25896800
 C           3.16466000       -0.14246800        0.05606700
 C           2.78757500        1.14089100       -0.25226100
 C           1.39402000        1.28822000       -0.33563400
 C           0.70898100        0.11689900       -0.08798100
 H           0.89277600        2.20524100       -0.58940400
 C          -0.70898100       -0.11689900       -0.08798100
 S          -1.60385083       -0.08483884       -1.55682858
 C          -1.54366332       -0.38064789        0.97801397
 C          -3.06889908       -0.43831261       -0.75570876
 C          -2.88311319       -0.56146124        0.59876073
 H          -3.68212187       -0.78185532        1.28226206
 H           4.15569300       -0.53353100        0.17259300
 H           3.49202900        1.93475000       -0.41867900
 H          -3.97940013       -0.53566801       -1.31263313
 H          -1.18055489       -0.45989020        1.98719442
$end


$rem
         jobtype = opt
        exchange = hf
           basis = cc-pvtz
  max_scf_cycles = 100
      mem_static = 6200
       mem_total = 62000
          method = mp2
$end


$opt
CONSTRAINT
tors 4 5 7 9 -110.0
ENDCONSTRAINT
$end

--------------------------------------------------------------
 Atom   8: ( -1.7325770784,  1.0114412034, -0.6445255337)
         ->( -1.7325770781,  1.0114411963, -0.6445255376)
 Atom  11: ( -2.8446664783, -0.9233683238,  0.5924124726)
         ->( -2.8446664761, -0.9233683158,  0.5924124765)
 Atom   9: ( -1.4659706280, -1.0658910358,  0.8149826206)
         ->( -1.4659706305, -1.0658910284,  0.8149826248)
 Atom  16: ( -1.0200860538, -1.8626716394,  1.3832254142)
         ->( -1.0200860512, -1.8626716323,  1.3832254303)
 Atom  14: (  3.5933613943,  1.5884427290,  0.9813783427)
         ->(  3.5933613907,  1.5884427380,  0.9813783335)
 Atom  15: ( -4.1047959711,  0.4970517117, -0.5258081754)
         ->( -4.1047959708,  0.4970517069, -0.5258081785)
 ----------------------------------------------------------------
             Standard Nuclear Orientation (Angstroms)
    I     Atom           X                Y                Z
 ----------------------------------------------------------------
    1      S       1.7325770781    -1.0114411963    -0.6445255376
    2      C       3.1424432939    -0.1612167064    -0.1945270842
    3      C       2.8446664761     0.9233683158     0.5924124765
    4      C       1.4659706305     1.0658910284     0.8149826248
    5      C       0.7131895820     0.0876359205     0.1994008171
    6      H       1.0200860512     1.8626716323     1.3832254303
    7      C      -0.7131895820    -0.0876359217     0.1994008169
    8      S      -1.7325770781     1.0114411963    -0.6445255376
    9      C      -1.4659706305    -1.0658910284     0.8149826248
   10      C      -3.1424432935     0.1612167061    -0.1945270820
   11      C      -2.8446664761    -0.9233683158     0.5924124765
   12      H      -3.5933613907    -1.5884427380     0.9813783335
   13      H       4.1047959708    -0.4970517069    -0.5258081785
   14      H       3.5933613907     1.5884427380     0.9813783335
   15      H      -4.1047959708     0.4970517069    -0.5258081785
   16      H      -1.0200860512    -1.8626716323     1.3832254303
 ----------------------------------------------------------------
 Molecular Point Group                 C2    NOp =  2
 Largest Abelian Subgroup              C2    NOp =  2
 Nuclear Repulsion Energy =   635.9015486970 hartrees
 There are       43 alpha and       43 beta electrons
 Requested basis set is cc-pVTZ
 There are 140 shells and 392 basis functions

 Total QAlloc Memory Limit  62000 MB
 Mega-Array Size      6061 MB
 MEM_STATIC part      6200 MB
 A cutoff of  1.0D-11 yielded   8046 shell pairs
 There are     62586 function pairs (     81580 Cartesian)
 
 -------------------------------------------------------
 OpenMP Integral Computing Module                       
 Release: version 1.0, May 2013, Q-Chem Inc. Pittsburgh 
 -------------------------------------------------------
 Integral Job Info:
 Integral job number is                      11
 Integral operator is                         1
 short-range coefficients                     0
 long-range coefficients              100000000
 Omega coefficients                           0
 if combine SR and LR in K                    0
 Integral screening is                        0
 Integral computing path is                   2
 max size of driver memory is            800000
 size of driver memory is                776718
 size of scratch memory is             26248924
 max col of scratch BK array              10000
 max len of scratch array in speh3          662
 max len of scratch index in speh4           32
 max int batch size is                      520
 min int batch size is                       52
 fixed nKL is                                52
 max L of basis functions is                  3
 order of int derivative is                   0
 number of shells is                        140
 number of basis is                         448
 number of cartesian basis is               448
 number of contracted shell pairs          8046
 number of primitive shell pairs          28584
 maxK2 (contraction) of shell pair          121
 max number of K2 of shell pair               1
 max number of CS2 of shell pair           1070
 max number of PS2 of shell pair           3066
 mem total for path MDJ                  225820
 -------------------------------------------------------
 Smallest overlap matrix eigenvalue = 9.48E-05

 Scale SEOQF with 1.000000e-01/1.000000e-01/1.000000e+00

 Standard Electronic Orientation quadrupole field applied
 Nucleus-field energy     =    -0.0000000156 hartrees
 Guess from superposition of atomic densities
 Warning:  Energy on first SCF cycle will be non-variational
 A restricted Hartree-Fock SCF calculation will be
 performed using Pulay DIIS extrapolation
 SCF converges when DIIS error is below 1.0E-08
 using 16 threads for integral computing 
 ---------------------------------------
  Cycle       Energy         DIIS Error
 ---------------------------------------
    1   -1105.9736317489      2.99E-02
    2   -1086.1460333495      2.56E-02
    3   -1091.8578487720      1.61E-02
    4   -1093.9215530216      1.03E-02
    5   -1100.9948106962      5.02E-03
    6   -1101.5571136587      1.19E-03
    7   -1101.5868121470      5.93E-04
    8   -1101.5953505336      1.51E-04
    9   -1101.5963838317      5.03E-05
   10   -1101.5965772057      2.17E-05
   11   -1101.5966083791      1.01E-05
   12   -1101.5966141193      3.94E-06
   13   -1101.5966156805      1.66E-06
   14   -1101.5966158795      5.63E-07
   15   -1101.5966159016      1.46E-07
   16   -1101.5966159007      6.33E-08
   17   -1101.5966159009      2.49E-08
   18   -1101.5966159011      7.69E-09 Convergence criterion met
 ---------------------------------------
 SCF time:  CPU 736.63 s  wall 46.09 s
 SCF   energy in the final basis set = -1101.5966159011
 Total energy in the final basis set = -1101.5966159011
 
 Components of the MP2 correlation energy:
        aaaa  correlation energy =        -0.2321645639 au
        abab  correlation energy =        -1.3505379053 au
        bbbb  correlation energy =        -0.2321645639 au
        non-Brillouin singles    =        -0.0000000000 au

 Total  MP2   correlation energy =        -1.8148670332 au
        MP2         total energy =     -1103.4114829343 au

  Entering Z-vector solver.
   1         0           1      0.000265    0.000265
   2         0           1      0.000116    0.000116
   3         0           1      0.000049    0.000049
   4         0           1      0.000024    0.000024
   5         0           1      0.000007    0.000007
   6         0           1      0.000002    0.000002
   7         1           0      0.000000    0.000000    Roots Converged
 
 --------------------------------------------------------------
             Orbital Energies (a.u.) and Symmetries
 --------------------------------------------------------------
 
 Alpha MOs, Restricted
 -- Occupied --                  
-91.984 -91.984 -11.272 -11.271 -11.261 -11.261 -11.238 -11.238
  1 B     1 A     2 A     2 B     3 B     3 A     4 A     4 B                  
-11.236 -11.236  -8.986  -8.986  -6.666  -6.666  -6.666  -6.666
  5 B     5 A     6 B     6 A     7 B     7 A     8 A     8 B                  
 -6.665  -6.665  -1.195  -1.166  -1.034  -0.994  -0.988  -0.948
  9 B     9 A    10 A    10 B    11 A    11 B    12 A    12 B                  
 -0.808  -0.770  -0.756  -0.718  -0.704  -0.645  -0.571  -0.569
 13 A    13 B    14 A    14 B    15 A    15 B    16 A    16 B                  
 -0.564  -0.555  -0.540  -0.512  -0.510  -0.478  -0.473  -0.354
 17 A    17 B    18 A    18 B    19 A    19 B    20 A    21 A                  
 -0.345  -0.341  -0.305
 20 B    22 A    21 B                                                          
 -- Virtual --                   
  0.097   0.121   0.149   0.154   0.162   0.171   0.184   0.185
 23 A    22 B    23 B    24 A    25 A    24 B    26 A    25 B                  
  0.191   0.202   0.209   0.231   0.239   0.252   0.319   0.323
 27 A    26 B    28 A    27 B    28 B    29 A    29 B    30 A                  
  0.348   0.353   0.367   0.376   0.390   0.403   0.423   0.428
 30 B    31 A    31 B    32 A    33 A    32 B    33 B    34 A                  
  0.440   0.449   0.454   0.461   0.470   0.490   0.498   0.503
 35 A    34 B    36 A    35 B    37 A    36 B    38 A    37 B                  
  0.508   0.521   0.539   0.540   0.549   0.555   0.568   0.572
 38 B    39 A    39 B    40 B    40 A    41 A    41 B    42 A                  
  0.574   0.580   0.599   0.603   0.608   0.608   0.621   0.623
 42 B    43 A    44 A    43 B    44 B    45 A    45 B    46 A                  
  0.639   0.648   0.658   0.669   0.675   0.680   0.704   0.714
 46 B    47 A    47 B    48 B    48 A    49 A    50 A    49 B                  
  0.756   0.756   0.781   0.787   0.808   0.829   0.840   0.843
 50 B    51 A    51 B    52 A    52 B    53 A    53 B    54 B                  
  0.864   0.873   0.880   0.893   0.905   0.916   0.925   0.936
 54 A    55 B    55 A    56 B    56 A    57 A    57 B    58 A                  
  0.975   0.997   1.007   1.016   1.022   1.031   1.062   1.089
 59 A    58 B    60 A    59 B    61 A    60 B    61 B    62 A                  
  1.100   1.105   1.107   1.116   1.132   1.152   1.172   1.180
 62 B    63 A    63 B    64 A    65 A    64 B    66 A    65 B                  
  1.190   1.195   1.218   1.226   1.241   1.246   1.291   1.294
 67 A    66 B    68 A    67 B    68 B    69 A    69 B    70 A                  
  1.299   1.314   1.343   1.344   1.380   1.380   1.406   1.438
 70 B    71 A    71 B    72 A    73 A    72 B    73 B    74 A                  
  1.445   1.458   1.487   1.493   1.493   1.511   1.517   1.537
 74 B    75 B    75 A    76 A    76 B    77 B    77 A    78 B                  
  1.550   1.559   1.561   1.586   1.597   1.619   1.634   1.644
 78 A    79 B    79 A    80 A    80 B    81 A    81 B    82 A                  
  1.676   1.710   1.713   1.741   1.746   1.753   1.776   1.826
 82 B    83 B    83 A    84 B    85 B    84 A    85 A    86 A                  
  1.832   1.862   1.863   1.893   1.904   1.914   1.921   1.940
 86 B    87 A    87 B    88 B    88 A    89 B    89 A    90 B                  
  1.956   2.011   2.048   2.064   2.070   2.119   2.129   2.146
 90 A    91 B    91 A    92 B    92 A    93 A    93 B    94 A                  
  2.170   2.189   2.207   2.208   2.225   2.236   2.254   2.263
 95 A    94 B    95 B    96 B    96 A    97 A    97 B    98 A                  
  2.288   2.311   2.336   2.399   2.408   2.423   2.450   2.471
 98 B    99 B    99 A   100 A   100 B   101 A   102 A   101 B                  
  2.492   2.499   2.523   2.529   2.543   2.564   2.565   2.592
103 A   102 B   103 B   104 B   104 A   105 A   105 B   106 A                  
  2.626   2.664   2.676   2.694   2.710   2.718   2.750   2.760
106 B   107 B   107 A   108 A   108 B   109 B   109 A   110 B                  
  2.766   2.770   2.783   2.795   2.799   2.868   2.895   2.902
111 B   110 A   111 A   112 A   112 B   113 A   114 A   113 B                  
  2.916   2.925   2.935   2.984   2.993   3.015   3.017   3.029
114 B   115 B   115 A   116 A   117 A   116 B   118 A   117 B                  
  3.050   3.063   3.064   3.137   3.162   3.162   3.166   3.190
119 A   118 B   119 B   120 A   121 A   120 B   121 B   122 A                  
  3.203   3.215   3.245   3.251   3.262   3.273   3.278   3.288
123 A   122 B   124 A   123 B   125 A   126 A   124 B   125 B                  
  3.290   3.295   3.334   3.343   3.357   3.357   3.368   3.401
127 A   126 B   128 A   127 B   128 B   129 A   129 B   130 B                  
  3.408   3.431   3.431   3.448   3.457   3.458   3.473   3.481
130 A   131 B   131 A   132 A   132 B   133 A   134 A   133 B                  
  3.483   3.496   3.506   3.509   3.514   3.526   3.530   3.545
135 A   134 B   136 A   135 B   137 A   136 B   137 B   138 B                  
  3.556   3.567   3.581   3.591   3.604   3.618   3.641   3.659
138 A   139 A   140 A   139 B   141 A   140 B   142 A   141 B                  
  3.696   3.705   3.730   3.730   3.744   3.755   3.783   3.794
143 A   142 B   144 A   143 B   145 A   144 B   146 A   145 B                  
  3.817   3.854   3.863   3.886   3.895   3.906   3.916   3.922
147 A   146 B   147 B   148 A   148 B   149 B   149 A   150 A                  
  3.966   3.978   4.005   4.006   4.022   4.028   4.034   4.062
150 B   151 A   151 B   152 A   152 B   153 A   154 A   153 B                  
  4.070   4.112   4.121   4.142   4.158   4.167   4.181   4.189
154 B   155 B   155 A   156 A   156 B   157 A   157 B   158 A                  
  4.210   4.215   4.230   4.257   4.271   4.285   4.331   4.332
158 B   159 A   160 A   159 B   161 A   160 B   161 B   162 A                  
  4.340   4.376   4.390   4.406   4.435   4.468   4.526   4.527
162 B   163 A   164 A   163 B   164 B   165 A   166 A   165 B                  
  4.554   4.557   4.589   4.608   4.660   4.662   4.691   4.704
166 B   167 A   167 B   168 A   169 A   168 B   170 A   169 B                  
  4.715   4.746   4.757   4.765   4.794   4.828   4.845   4.894
170 B   171 A   171 B   172 B   172 A   173 A   173 B   174 B                  
  4.898   4.937   4.985   5.017   5.053   5.067   5.071   5.075
174 A   175 A   175 B   176 A   176 B   177 A   177 B   178 A                  
  5.088   5.101   5.187   5.243   5.247   5.298   5.306   5.380
178 B   179 A   179 B   180 A   180 B   181 B   181 A   182 A                  
  5.389   5.421   5.427   5.507   5.567   5.601   5.655   5.667
182 B   183 A   183 B   184 A   184 B   185 A   186 A   185 B                  
  5.795   5.897   5.948   6.030   6.089   6.131   6.181   6.203
186 B   187 A   187 B   188 A   188 B   189 A   189 B   190 A                  
  6.207   6.542   6.565   6.719   6.747   9.517  10.740  11.886
190 B   191 A   191 B   192 A   192 B   193 A   193 B   194 A                  
 12.257  13.496  13.608  14.602  14.629
194 B   195 A   195 B   196 A   196 B                                          
 
 Beta MOs, Restricted
 -- Occupied --                  
-91.984 -91.984 -11.272 -11.271 -11.261 -11.261 -11.238 -11.238
  1 B     1 A     2 A     2 B     3 B     3 A     4 A     4 B                  
-11.236 -11.236  -8.986  -8.986  -6.666  -6.666  -6.666  -6.666
  5 B     5 A     6 B     6 A     7 B     7 A     8 A     8 B                  
 -6.665  -6.665  -1.195  -1.166  -1.034  -0.994  -0.988  -0.948
  9 B     9 A    10 A    10 B    11 A    11 B    12 A    12 B                  
 -0.808  -0.770  -0.756  -0.718  -0.704  -0.645  -0.571  -0.569
 13 A    13 B    14 A    14 B    15 A    15 B    16 A    16 B                  
 -0.564  -0.555  -0.540  -0.512  -0.510  -0.478  -0.473  -0.354
 17 A    17 B    18 A    18 B    19 A    19 B    20 A    21 A                  
 -0.345  -0.341  -0.305
 20 B    22 A    21 B                                                          
 -- Virtual --                   
  0.097   0.121   0.149   0.154   0.162   0.171   0.184   0.185
 23 A    22 B    23 B    24 A    25 A    24 B    26 A    25 B                  
  0.191   0.202   0.209   0.231   0.239   0.252   0.319   0.323
 27 A    26 B    28 A    27 B    28 B    29 A    29 B    30 A                  
  0.348   0.353   0.367   0.376   0.390   0.403   0.423   0.428
 30 B    31 A    31 B    32 A    33 A    32 B    33 B    34 A                  
  0.440   0.449   0.454   0.461   0.470   0.490   0.498   0.503
 35 A    34 B    36 A    35 B    37 A    36 B    38 A    37 B                  
  0.508   0.521   0.539   0.540   0.549   0.555   0.568   0.572
 38 B    39 A    39 B    40 B    40 A    41 A    41 B    42 A                  
  0.574   0.580   0.599   0.603   0.608   0.608   0.621   0.623
 42 B    43 A    44 A    43 B    44 B    45 A    45 B    46 A                  
  0.639   0.648   0.658   0.669   0.675   0.680   0.704   0.714
 46 B    47 A    47 B    48 B    48 A    49 A    50 A    49 B                  
  0.756   0.756   0.781   0.787   0.808   0.829   0.840   0.843
 50 B    51 A    51 B    52 A    52 B    53 A    53 B    54 B                  
  0.864   0.873   0.880   0.893   0.905   0.916   0.925   0.936
 54 A    55 B    55 A    56 B    56 A    57 A    57 B    58 A                  
  0.975   0.997   1.007   1.016   1.022   1.031   1.062   1.089
 59 A    58 B    60 A    59 B    61 A    60 B    61 B    62 A                  
  1.100   1.105   1.107   1.116   1.132   1.152   1.172   1.180
 62 B    63 A    63 B    64 A    65 A    64 B    66 A    65 B                  
  1.190   1.195   1.218   1.226   1.241   1.246   1.291   1.294
 67 A    66 B    68 A    67 B    68 B    69 A    69 B    70 A                  
  1.299   1.314   1.343   1.344   1.380   1.380   1.406   1.438
 70 B    71 A    71 B    72 A    73 A    72 B    73 B    74 A                  
  1.445   1.458   1.487   1.493   1.493   1.511   1.517   1.537
 74 B    75 B    75 A    76 A    76 B    77 B    77 A    78 B                  
  1.550   1.559   1.561   1.586   1.597   1.619   1.634   1.644
 78 A    79 B    79 A    80 A    80 B    81 A    81 B    82 A                  
  1.676   1.710   1.713   1.741   1.746   1.753   1.776   1.826
 82 B    83 B    83 A    84 B    85 B    84 A    85 A    86 A                  
  1.832   1.862   1.863   1.893   1.904   1.914   1.921   1.940
 86 B    87 A    87 B    88 B    88 A    89 B    89 A    90 B                  
  1.956   2.011   2.048   2.064   2.070   2.119   2.129   2.146
 90 A    91 B    91 A    92 B    92 A    93 A    93 B    94 A                  
  2.170   2.189   2.207   2.208   2.225   2.236   2.254   2.263
 95 A    94 B    95 B    96 B    96 A    97 A    97 B    98 A                  
  2.288   2.311   2.336   2.399   2.408   2.423   2.450   2.471
 98 B    99 B    99 A   100 A   100 B   101 A   102 A   101 B                  
  2.492   2.499   2.523   2.529   2.543   2.564   2.565   2.592
103 A   102 B   103 B   104 B   104 A   105 A   105 B   106 A                  
  2.626   2.664   2.676   2.694   2.710   2.718   2.750   2.760
106 B   107 B   107 A   108 A   108 B   109 B   109 A   110 B                  
  2.766   2.770   2.783   2.795   2.799   2.868   2.895   2.902
111 B   110 A   111 A   112 A   112 B   113 A   114 A   113 B                  
  2.916   2.925   2.935   2.984   2.993   3.015   3.017   3.029
114 B   115 B   115 A   116 A   117 A   116 B   118 A   117 B                  
  3.050   3.063   3.064   3.137   3.162   3.162   3.166   3.190
119 A   118 B   119 B   120 A   121 A   120 B   121 B   122 A                  
  3.203   3.215   3.245   3.251   3.262   3.273   3.278   3.288
123 A   122 B   124 A   123 B   125 A   126 A   124 B   125 B                  
  3.290   3.295   3.334   3.343   3.357   3.357   3.368   3.401
127 A   126 B   128 A   127 B   128 B   129 A   129 B   130 B                  
  3.408   3.431   3.431   3.448   3.457   3.458   3.473   3.481
130 A   131 B   131 A   132 A   132 B   133 A   134 A   133 B                  
  3.483   3.496   3.506   3.509   3.514   3.526   3.530   3.545
135 A   134 B   136 A   135 B   137 A   136 B   137 B   138 B                  
  3.556   3.567   3.581   3.591   3.604   3.618   3.641   3.659
138 A   139 A   140 A   139 B   141 A   140 B   142 A   141 B                  
  3.696   3.705   3.730   3.730   3.744   3.755   3.783   3.794
143 A   142 B   144 A   143 B   145 A   144 B   146 A   145 B                  
  3.817   3.854   3.863   3.886   3.895   3.906   3.916   3.922
147 A   146 B   147 B   148 A   148 B   149 B   149 A   150 A                  
  3.966   3.978   4.005   4.006   4.022   4.028   4.034   4.062
150 B   151 A   151 B   152 A   152 B   153 A   154 A   153 B                  
  4.070   4.112   4.121   4.142   4.158   4.167   4.181   4.189
154 B   155 B   155 A   156 A   156 B   157 A   157 B   158 A                  
  4.210   4.215   4.230   4.257   4.271   4.285   4.331   4.332
158 B   159 A   160 A   159 B   161 A   160 B   161 B   162 A                  
  4.340   4.376   4.390   4.406   4.435   4.468   4.526   4.527
162 B   163 A   164 A   163 B   164 B   165 A   166 A   165 B                  
  4.554   4.557   4.589   4.608   4.660   4.662   4.691   4.704
166 B   167 A   167 B   168 A   169 A   168 B   170 A   169 B                  
  4.715   4.746   4.757   4.765   4.794   4.828   4.845   4.894
170 B   171 A   171 B   172 B   172 A   173 A   173 B   174 B                  
  4.898   4.937   4.985   5.017   5.053   5.067   5.071   5.075
174 A   175 A   175 B   176 A   176 B   177 A   177 B   178 A                  
  5.088   5.101   5.187   5.243   5.247   5.298   5.306   5.380
178 B   179 A   179 B   180 A   180 B   181 B   181 A   182 A                  
  5.389   5.421   5.427   5.507   5.567   5.601   5.655   5.667
182 B   183 A   183 B   184 A   184 B   185 A   186 A   185 B                  
  5.795   5.897   5.948   6.030   6.089   6.131   6.181   6.203
186 B   187 A   187 B   188 A   188 B   189 A   189 B   190 A                  
  6.207   6.542   6.565   6.719   6.747   9.517  10.740  11.886
190 B   191 A   191 B   192 A   192 B   193 A   193 B   194 A                  
 12.257  13.496  13.608  14.602  14.629
194 B   195 A   195 B   196 A   196 B                                          
 --------------------------------------------------------------
 
          Ground-State Mulliken Net Atomic Charges

     Atom                 Charge (a.u.)
  ----------------------------------------
      1 S                     0.128051
      2 C                    -0.238748
      3 C                    -0.191332
      4 C                    -0.200833
      5 C                    -0.031809
      6 H                     0.176302
      7 C                    -0.031809
      8 S                     0.128051
      9 C                    -0.200832
     10 C                    -0.238748
     11 C                    -0.191333
     12 H                     0.174489
     13 H                     0.183881
     14 H                     0.174489
     15 H                     0.183880
     16 H                     0.176302
  ----------------------------------------
  Sum of atomic charges =     0.000000

 -----------------------------------------------------------------
                    Cartesian Multipole Moments
 -----------------------------------------------------------------
    Charge (ESU x 10^10)
                -0.0000
    Dipole Moment (Debye)
         X       0.0000      Y       0.0000      Z       0.3650
       Tot       0.3650
    Quadrupole Moments (Debye-Ang)
        XX     -61.4292     XY       1.0955     YY     -70.9842
        XZ      -0.0000     YZ      -0.0000     ZZ     -74.5320
    Octopole Moments (Debye-Ang^2)
       XXX       0.0000    XXY       0.0000    XYY      -0.0000
       YYY       0.0000    XXZ      -6.8042    XYZ      11.8741
       YYZ       5.5067    XZZ       0.0000    YZZ       0.0000
       ZZZ      -3.6289
    Hexadecapole Moments (Debye-Ang^3)
      XXXX   -1834.0912   XXXY      -8.2569   XXYY    -404.4097
      XYYY       2.7541   YYYY    -423.2265   XXXZ      -0.0000
      XXYZ      -0.0000   XYYZ      -0.0000   YYYZ      -0.0000
      XXZZ    -403.5681   XYZZ       1.1530   YYZZ    -103.4482
      XZZZ       0.0000   YZZZ      -0.0000   ZZZZ    -258.6550
 -----------------------------------------------------------------
 DrvMan is completing analytic gradient of the MP2 energy
 MP2 relaxed dipole moment
            1
    1   0.0000000
    2   0.0000000
    3   0.1436141
	Magnitude:	 0.144 au	 0.365 Debye
 MP2 energy read as -1103.411483
 Full Analytical Gradient of MP2 Energy (in au.)
             1             2             3             4             5
    1   -0.00078038    0.00071286   -0.00008969    0.00086896   -0.00728575
    2   -0.00166233    0.00224242   -0.00108178   -0.00126205    0.00000709
    3   -0.00007289   -0.00011480    0.00089104    0.00272530   -0.00196544
             6             7             8             9            10
    1    0.00027849    0.00728575    0.00078038   -0.00086896   -0.00071286
    2    0.00096384   -0.00000709    0.00166233    0.00126205   -0.00224242
    3   -0.00071385   -0.00196544   -0.00007289    0.00272530   -0.00011480
            11            12            13            14            15
    1    0.00008969    0.00005669   -0.00029988   -0.00005669    0.00029988
    2    0.00108178   -0.00006889    0.00024663    0.00006889   -0.00024663
    3    0.00089104   -0.00007061   -0.00067874   -0.00007061   -0.00067874
            16
    1   -0.00027849
    2   -0.00096384
    3   -0.00071385
 Gradient time:  CPU 1.52 s  wall 0.10 s
 Geometry Optimization Parameters
   NAtoms,    NIC,     NZ,  NCons,   NDum,   NFix, NCnnct, MaxDiis
       16     111       0       1       0       0       0       0


** CONSTRAINED OPTIMIZATION IN DELOCALIZED INTERNAL COORDINATES **
   Searching for a Minimum

   Optimization Cycle:   1

                       Coordinates (Angstroms)
     ATOM                X               Y               Z
      1  S         1.7325770781   -1.0114411963   -0.6445255376
      2  C         3.1424432937   -0.1612167062   -0.1945270831
      3  C         2.8446664761    0.9233683158    0.5924124765
      4  C         1.4659706305    1.0658910284    0.8149826248
      5  C         0.7131895820    0.0876359211    0.1994008170
      6  H         1.0200860512    1.8626716323    1.3832254303
      7  C        -0.7131895820   -0.0876359211    0.1994008170
      8  S        -1.7325770781    1.0114411963   -0.6445255376
      9  C        -1.4659706305   -1.0658910284    0.8149826248
     10  C        -3.1424432937    0.1612167062   -0.1945270831
     11  C        -2.8446664761   -0.9233683158    0.5924124765
     12  H        -3.5933613907   -1.5884427380    0.9813783335
     13  H         4.1047959708   -0.4970517069   -0.5258081785
     14  H         3.5933613907    1.5884427380    0.9813783335
     15  H        -4.1047959708    0.4970517069   -0.5258081785
     16  H        -1.0200860512   -1.8626716323    1.3832254303
   Point Group: c2    Number of degrees of freedom:    22


   Energy is  -1103.411482934

              Constraints and their Current Values
                                        Value     Constraint
   Dihedral:        4   5   7   9     -110.000     -110.000

 Attempting to Generate Delocalized Internal Coordinates

 21 Hessian modes will be used to form the next step
  Hessian Eigenvalues:
     0.045000    0.045000    0.045000    0.045002    0.045003    0.045012
     0.159945    0.159993    0.160000    0.221308    0.238060    0.249999
     0.326324    0.340049    0.365509    0.366895    0.370094    0.399848
     0.435412    0.463135    0.495504

 Minimum Search - Taking Simple RFO Step
 Searching for Lamda that Minimizes Along All modes
 Value Taken    Lamda =  -0.00043567
 Step Taken.  Stepsize is  0.082768

                             Maximum     Tolerance    Cnvgd?
         Gradient           0.003652      0.000300      NO
         Displacement       0.047812      0.001200      NO
         Energy change     *********      0.000001      NO


 New Cartesian Coordinates Obtained by Inverse Iteration

 Displacement from previous Coordinates is:  0.176601
 ----------------------------------------------------------------
             Standard Nuclear Orientation (Angstroms)
    I     Atom           X                Y                Z
 ----------------------------------------------------------------
    1      S       1.7447474409    -1.0071990068    -0.6523674038
    2      C       3.1512059859    -0.1685542011    -0.1775689786
    3      C       2.8446058607     0.9282097330     0.5900396466
    4      C       1.4630111417     1.0735329284     0.7959361609
    5      C       0.7170973636     0.0918511639     0.1804826867
    6      H       1.0093351700     1.8654657633     1.3641846601
    7      C      -0.7170973636    -0.0918511639     0.1804826867
    8      S      -1.7447474409     1.0071990068    -0.6523674038
    9      C      -1.4630111417    -1.0735329284     0.7959361609
   10      C      -3.1512059859     0.1685542011    -0.1775689786
   11      C      -2.8446058607    -0.9282097330     0.5900396466
   12      H      -3.5901623839    -1.5908685110     0.9891165573
   13      H       4.1185759963    -0.5146838785    -0.4832844464
   14      H       3.5901623839     1.5908685110     0.9891165573
   15      H      -4.1185759963     0.5146838785    -0.4832844464
   16      H      -1.0093351700    -1.8654657633     1.3641846601
 ----------------------------------------------------------------
 Molecular Point Group                 C2    NOp =  2
 Largest Abelian Subgroup              C2    NOp =  2
 Nuclear Repulsion Energy =   635.4118076381 hartrees
 There are       43 alpha and       43 beta electrons
 Applying Cartesian multipole field
    Component          Value
    ---------          -----
     (2,0,0)        1.00000E-11
     (0,2,0)        2.00000E-11
     (0,0,2)       -3.00000E-10
 Nucleus-field energy     =    -0.0000000151 hartrees
 Requested basis set is cc-pVTZ
 There are 140 shells and 392 basis functions
 A cutoff of  1.0D-11 yielded   8045 shell pairs
 There are     62585 function pairs (     81579 Cartesian)
 Smallest overlap matrix eigenvalue = 9.61E-05
 Guess MOs from SCF MO coefficient file
 Reading MOs from coefficient file
 Reading MOs from coefficient file
 A restricted Hartree-Fock SCF calculation will be
 performed using Pulay DIIS extrapolation
 SCF converges when DIIS error is below 1.0E-08
 Geometry optimization detected.  Setting ReadMinima to 0
 Setting SaveMinima to 0
 using 16 threads for integral computing 
 ---------------------------------------
  Cycle       Energy         DIIS Error
 ---------------------------------------
    1   -1101.5963024540      3.82E-04
    2   -1101.5971497190      4.44E-05
    3   -1101.5972383708      1.67E-05
    4   -1101.5972534753      7.82E-06
    5   -1101.5972559588      2.81E-06
    6   -1101.5972563339      1.22E-06
    7   -1101.5972564106      4.77E-07
    8   -1101.5972564222      1.87E-07
    9   -1101.5972564245      6.85E-08
   10   -1101.5972564251      1.93E-08
   11   -1101.5972564250      6.58E-09 Convergence criterion met
 ---------------------------------------
 SCF time:  CPU 720.97 s  wall 45.10 s
 SCF   energy in the final basis set = -1101.5972564250
 Total energy in the final basis set = -1101.5972564250
 
 Components of the MP2 correlation energy:
        aaaa  correlation energy =        -0.2320972616 au
        abab  correlation energy =        -1.3503109377 au
        bbbb  correlation energy =        -0.2320972616 au
        non-Brillouin singles    =        -0.0000000000 au

 Total  MP2   correlation energy =        -1.8145054609 au
        MP2         total energy =     -1103.4117618858 au

  Entering Z-vector solver.
   1         0           1      0.000264    0.000264
   2         0           1      0.000116    0.000116
   3         0           1      0.000048    0.000048
   4         0           1      0.000024    0.000024
   5         0           1      0.000007    0.000007
   6         0           1      0.000002    0.000002
   7         1           0      0.000000    0.000000    Roots Converged
 
 --------------------------------------------------------------
             Orbital Energies (a.u.) and Symmetries
 --------------------------------------------------------------
 
 Alpha MOs, Restricted
 -- Occupied --                  
-91.984 -91.984 -11.272 -11.271 -11.261 -11.261 -11.238 -11.238
  1 B     1 A     2 A     2 B     3 B     3 A     4 A     4 B                  
-11.236 -11.236  -8.986  -8.986  -6.666  -6.666  -6.666  -6.666
  5 B     5 A     6 B     6 A     7 B     7 A     8 A     8 B                  
 -6.665  -6.665  -1.195  -1.166  -1.033  -0.994  -0.988  -0.948
  9 B     9 A    10 A    10 B    11 A    11 B    12 A    12 B                  
 -0.807  -0.770  -0.756  -0.718  -0.704  -0.645  -0.571  -0.569
 13 A    13 B    14 A    14 B    15 A    15 B    16 A    16 B                  
 -0.563  -0.555  -0.540  -0.513  -0.511  -0.478  -0.473  -0.354
 17 A    17 B    18 A    18 B    19 A    19 B    20 A    21 A                  
 -0.345  -0.341  -0.306
 20 B    22 A    21 B                                                          
 -- Virtual --                   
  0.097   0.122   0.150   0.154   0.163   0.171   0.184   0.185
 23 A    22 B    23 B    24 A    25 A    24 B    26 A    25 B                  
  0.191   0.201   0.208   0.232   0.239   0.251   0.318   0.323
 27 A    26 B    28 A    27 B    28 B    29 A    29 B    30 A                  
  0.347   0.352   0.367   0.376   0.391   0.403   0.421   0.429
 30 B    31 A    31 B    32 A    33 A    32 B    33 B    34 A                  
  0.439   0.450   0.455   0.461   0.468   0.490   0.498   0.502
 35 A    34 B    36 A    35 B    37 A    36 B    38 A    37 B                  
  0.508   0.522   0.538   0.541   0.548   0.556   0.566   0.572
 38 B    39 A    39 B    40 B    40 A    41 A    41 B    42 A                  
  0.574   0.581   0.600   0.602   0.608   0.608   0.621   0.623
 42 B    43 A    44 A    43 B    44 B    45 A    45 B    46 A                  
  0.640   0.646   0.657   0.669   0.677   0.681   0.704   0.714
 46 B    47 A    47 B    48 B    48 A    49 A    50 A    49 B                  
  0.756   0.756   0.782   0.786   0.808   0.829   0.840   0.845
 50 B    51 A    51 B    52 A    52 B    53 A    53 B    54 B                  
  0.864   0.867   0.880   0.897   0.905   0.917   0.927   0.936
 54 A    55 B    55 A    56 B    56 A    57 A    57 B    58 A                  
  0.970   0.996   1.007   1.015   1.023   1.030   1.065   1.089
 59 A    58 B    60 A    59 B    61 A    60 B    61 B    62 A                  
  1.099   1.104   1.106   1.116   1.131   1.152   1.171   1.181
 62 B    63 A    63 B    64 A    65 A    64 B    66 A    65 B                  
  1.189   1.194   1.218   1.227   1.243   1.246   1.287   1.293
 67 A    66 B    68 A    67 B    68 B    69 A    69 B    70 A                  
  1.300   1.312   1.344   1.345   1.377   1.380   1.406   1.438
 70 B    71 A    71 B    72 A    73 A    72 B    73 B    74 A                  
  1.446   1.458   1.486   1.492   1.493   1.510   1.517   1.538
 74 B    75 B    75 A    76 B    76 A    77 B    77 A    78 B                  
  1.550   1.558   1.562   1.588   1.594   1.619   1.633   1.644
 78 A    79 B    79 A    80 A    80 B    81 A    81 B    82 A                  
  1.676   1.710   1.711   1.741   1.746   1.751   1.775   1.827
 82 B    83 B    83 A    84 B    85 B    84 A    85 A    86 A                  
  1.834   1.862   1.862   1.893   1.905   1.913   1.921   1.940
 86 B    87 A    87 B    88 B    88 A    89 B    89 A    90 B                  
  1.954   2.009   2.047   2.065   2.071   2.118   2.128   2.147
 90 A    91 B    91 A    92 B    92 A    93 A    93 B    94 A                  
  2.169   2.190   2.206   2.208   2.226   2.236   2.254   2.264
 95 A    94 B    95 B    96 B    96 A    97 A    97 B    98 A                  
  2.288   2.311   2.334   2.397   2.406   2.423   2.451   2.471
 98 B    99 B    99 A   100 A   100 B   101 A   102 A   101 B                  
  2.489   2.499   2.523   2.529   2.541   2.565   2.567   2.594
103 A   102 B   103 B   104 B   104 A   105 B   105 A   106 A                  
  2.625   2.664   2.677   2.694   2.706   2.718   2.750   2.763
106 B   107 B   107 A   108 A   108 B   109 B   109 A   110 B                  
  2.768   2.773   2.785   2.794   2.798   2.866   2.895   2.903
111 B   110 A   111 A   112 A   112 B   113 A   114 A   113 B                  
  2.913   2.926   2.934   2.982   2.994   3.014   3.017   3.029
114 B   115 B   115 A   116 A   117 A   116 B   118 A   117 B                  
  3.047   3.061   3.064   3.135   3.160   3.161   3.167   3.188
119 A   118 B   119 B   120 A   120 B   121 A   121 B   122 A                  
  3.205   3.215   3.244   3.251   3.263   3.273   3.278   3.288
123 A   122 B   124 A   123 B   125 A   126 A   124 B   125 B                  
  3.290   3.297   3.332   3.344   3.355   3.356   3.367   3.402
127 A   126 B   128 A   127 B   128 B   129 A   129 B   130 B                  
  3.406   3.431   3.432   3.448   3.455   3.458   3.472   3.480
130 A   131 B   131 A   132 A   133 A   132 B   134 A   133 B                  
  3.483   3.495   3.507   3.509   3.514   3.526   3.531   3.545
135 A   134 B   136 A   135 B   137 A   136 B   137 B   138 B                  
  3.553   3.567   3.580   3.592   3.603   3.619   3.639   3.659
138 A   139 A   140 A   139 B   141 A   140 B   142 A   141 B                  
  3.694   3.704   3.730   3.732   3.745   3.755   3.783   3.791
143 A   142 B   144 A   143 B   145 A   144 B   146 A   145 B                  
  3.814   3.852   3.865   3.886   3.890   3.910   3.914   3.922
147 A   146 B   147 B   148 A   148 B   149 B   149 A   150 A                  
  3.966   3.975   4.004   4.006   4.021   4.028   4.034   4.058
150 B   151 A   152 A   151 B   152 B   153 A   154 A   153 B                  
  4.067   4.114   4.120   4.141   4.159   4.166   4.180   4.188
154 B   155 B   155 A   156 A   156 B   157 A   157 B   158 A                  
  4.208   4.215   4.231   4.257   4.273   4.284   4.331   4.331
158 B   159 A   160 A   159 B   161 A   160 B   161 B   162 A                  
  4.339   4.375   4.389   4.404   4.437   4.467   4.524   4.528
162 B   163 A   164 A   163 B   164 B   165 A   165 B   166 A                  
  4.553   4.554   4.586   4.608   4.658   4.661   4.693   4.703
166 B   167 A   167 B   168 A   169 A   168 B   170 A   169 B                  
  4.714   4.745   4.757   4.766   4.789   4.824   4.845   4.892
170 B   171 A   171 B   172 B   172 A   173 A   173 B   174 B                  
  4.897   4.935   4.978   5.012   5.053   5.067   5.069   5.073
174 A   175 A   175 B   176 A   176 B   177 A   177 B   178 A                  
  5.089   5.098   5.186   5.242   5.243   5.296   5.305   5.379
178 B   179 A   179 B   180 B   180 A   181 B   181 A   182 A                  
  5.388   5.419   5.427   5.507   5.565   5.599   5.654   5.667
182 B   183 A   183 B   184 A   184 B   185 A   186 A   185 B                  
  5.793   5.894   5.945   6.029   6.087   6.131   6.180   6.202
186 B   187 A   187 B   188 A   188 B   189 A   189 B   190 A                  
  6.211   6.546   6.566   6.713   6.747   9.512  10.689  11.879
190 B   191 A   191 B   192 A   192 B   193 A   193 B   194 A                  
 12.186  13.502  13.583  14.603  14.619
194 B   195 A   195 B   196 A   196 B                                          
 
 Beta MOs, Restricted
 -- Occupied --                  
-91.984 -91.984 -11.272 -11.271 -11.261 -11.261 -11.238 -11.238
  1 B     1 A     2 A     2 B     3 B     3 A     4 A     4 B                  
-11.236 -11.236  -8.986  -8.986  -6.666  -6.666  -6.666  -6.666
  5 B     5 A     6 B     6 A     7 B     7 A     8 A     8 B                  
 -6.665  -6.665  -1.195  -1.166  -1.033  -0.994  -0.988  -0.948
  9 B     9 A    10 A    10 B    11 A    11 B    12 A    12 B                  
 -0.807  -0.770  -0.756  -0.718  -0.704  -0.645  -0.571  -0.569
 13 A    13 B    14 A    14 B    15 A    15 B    16 A    16 B                  
 -0.563  -0.555  -0.540  -0.513  -0.511  -0.478  -0.473  -0.354
 17 A    17 B    18 A    18 B    19 A    19 B    20 A    21 A                  
 -0.345  -0.341  -0.306
 20 B    22 A    21 B                                                          
 -- Virtual --                   
  0.097   0.122   0.150   0.154   0.163   0.171   0.184   0.185
 23 A    22 B    23 B    24 A    25 A    24 B    26 A    25 B                  
  0.191   0.201   0.208   0.232   0.239   0.251   0.318   0.323
 27 A    26 B    28 A    27 B    28 B    29 A    29 B    30 A                  
  0.347   0.352   0.367   0.376   0.391   0.403   0.421   0.429
 30 B    31 A    31 B    32 A    33 A    32 B    33 B    34 A                  
  0.439   0.450   0.455   0.461   0.468   0.490   0.498   0.502
 35 A    34 B    36 A    35 B    37 A    36 B    38 A    37 B                  
  0.508   0.522   0.538   0.541   0.548   0.556   0.566   0.572
 38 B    39 A    39 B    40 B    40 A    41 A    41 B    42 A                  
  0.574   0.581   0.600   0.602   0.608   0.608   0.621   0.623
 42 B    43 A    44 A    43 B    44 B    45 A    45 B    46 A                  
  0.640   0.646   0.657   0.669   0.677   0.681   0.704   0.714
 46 B    47 A    47 B    48 B    48 A    49 A    50 A    49 B                  
  0.756   0.756   0.782   0.786   0.808   0.829   0.840   0.845
 50 B    51 A    51 B    52 A    52 B    53 A    53 B    54 B                  
  0.864   0.867   0.880   0.897   0.905   0.917   0.927   0.936
 54 A    55 B    55 A    56 B    56 A    57 A    57 B    58 A                  
  0.970   0.996   1.007   1.015   1.023   1.030   1.065   1.089
 59 A    58 B    60 A    59 B    61 A    60 B    61 B    62 A                  
  1.099   1.104   1.106   1.116   1.131   1.152   1.171   1.181
 62 B    63 A    63 B    64 A    65 A    64 B    66 A    65 B                  
  1.189   1.194   1.218   1.227   1.243   1.246   1.287   1.293
 67 A    66 B    68 A    67 B    68 B    69 A    69 B    70 A                  
  1.300   1.312   1.344   1.345   1.377   1.380   1.406   1.438
 70 B    71 A    71 B    72 A    73 A    72 B    73 B    74 A                  
  1.446   1.458   1.486   1.492   1.493   1.510   1.517   1.538
 74 B    75 B    75 A    76 B    76 A    77 B    77 A    78 B                  
  1.550   1.558   1.562   1.588   1.594   1.619   1.633   1.644
 78 A    79 B    79 A    80 A    80 B    81 A    81 B    82 A                  
  1.676   1.710   1.711   1.741   1.746   1.751   1.775   1.827
 82 B    83 B    83 A    84 B    85 B    84 A    85 A    86 A                  
  1.834   1.862   1.862   1.893   1.905   1.913   1.921   1.940
 86 B    87 A    87 B    88 B    88 A    89 B    89 A    90 B                  
  1.954   2.009   2.047   2.065   2.071   2.118   2.128   2.147
 90 A    91 B    91 A    92 B    92 A    93 A    93 B    94 A                  
  2.169   2.190   2.206   2.208   2.226   2.236   2.254   2.264
 95 A    94 B    95 B    96 B    96 A    97 A    97 B    98 A                  
  2.288   2.311   2.334   2.397   2.406   2.423   2.451   2.471
 98 B    99 B    99 A   100 A   100 B   101 A   102 A   101 B                  
  2.489   2.499   2.523   2.529   2.541   2.565   2.567   2.594
103 A   102 B   103 B   104 B   104 A   105 B   105 A   106 A                  
  2.625   2.664   2.677   2.694   2.706   2.718   2.750   2.763
106 B   107 B   107 A   108 A   108 B   109 B   109 A   110 B                  
  2.768   2.773   2.785   2.794   2.798   2.866   2.895   2.903
111 B   110 A   111 A   112 A   112 B   113 A   114 A   113 B                  
  2.913   2.926   2.934   2.982   2.994   3.014   3.017   3.029
114 B   115 B   115 A   116 A   117 A   116 B   118 A   117 B                  
  3.047   3.061   3.064   3.135   3.160   3.161   3.167   3.188
119 A   118 B   119 B   120 A   120 B   121 A   121 B   122 A                  
  3.205   3.215   3.244   3.251   3.263   3.273   3.278   3.288
123 A   122 B   124 A   123 B   125 A   126 A   124 B   125 B                  
  3.290   3.297   3.332   3.344   3.355   3.356   3.367   3.402
127 A   126 B   128 A   127 B   128 B   129 A   129 B   130 B                  
  3.406   3.431   3.432   3.448   3.455   3.458   3.472   3.480
130 A   131 B   131 A   132 A   133 A   132 B   134 A   133 B                  
  3.483   3.495   3.507   3.509   3.514   3.526   3.531   3.545
135 A   134 B   136 A   135 B   137 A   136 B   137 B   138 B                  
  3.553   3.567   3.580   3.592   3.603   3.619   3.639   3.659
138 A   139 A   140 A   139 B   141 A   140 B   142 A   141 B                  
  3.694   3.704   3.730   3.732   3.745   3.755   3.783   3.791
143 A   142 B   144 A   143 B   145 A   144 B   146 A   145 B                  
  3.814   3.852   3.865   3.886   3.890   3.910   3.914   3.922
147 A   146 B   147 B   148 A   148 B   149 B   149 A   150 A                  
  3.966   3.975   4.004   4.006   4.021   4.028   4.034   4.058
150 B   151 A   152 A   151 B   152 B   153 A   154 A   153 B                  
  4.067   4.114   4.120   4.141   4.159   4.166   4.180   4.188
154 B   155 B   155 A   156 A   156 B   157 A   157 B   158 A                  
  4.208   4.215   4.231   4.257   4.273   4.284   4.331   4.331
158 B   159 A   160 A   159 B   161 A   160 B   161 B   162 A                  
  4.339   4.375   4.389   4.404   4.437   4.467   4.524   4.528
162 B   163 A   164 A   163 B   164 B   165 A   165 B   166 A                  
  4.553   4.554   4.586   4.608   4.658   4.661   4.693   4.703
166 B   167 A   167 B   168 A   169 A   168 B   170 A   169 B                  
  4.714   4.745   4.757   4.766   4.789   4.824   4.845   4.892
170 B   171 A   171 B   172 B   172 A   173 A   173 B   174 B                  
  4.897   4.935   4.978   5.012   5.053   5.067   5.069   5.073
174 A   175 A   175 B   176 A   176 B   177 A   177 B   178 A                  
  5.089   5.098   5.186   5.242   5.243   5.296   5.305   5.379
178 B   179 A   179 B   180 B   180 A   181 B   181 A   182 A                  
  5.388   5.419   5.427   5.507   5.565   5.599   5.654   5.667
182 B   183 A   183 B   184 A   184 B   185 A   186 A   185 B                  
  5.793   5.894   5.945   6.029   6.087   6.131   6.180   6.202
186 B   187 A   187 B   188 A   188 B   189 A   189 B   190 A                  
  6.211   6.546   6.566   6.713   6.747   9.512  10.689  11.879
190 B   191 A   191 B   192 A   192 B   193 A   193 B   194 A                  
 12.186  13.502  13.583  14.603  14.619
194 B   195 A   195 B   196 A   196 B                                          
 --------------------------------------------------------------
 
          Ground-State Mulliken Net Atomic Charges

     Atom                 Charge (a.u.)
  ----------------------------------------
      1 S                     0.128596
      2 C                    -0.239187
      3 C                    -0.191083
      4 C                    -0.200001
      5 C                    -0.033854
      6 H                     0.176837
      7 C                    -0.033854
      8 S                     0.128596
      9 C                    -0.200001
     10 C                    -0.239187
     11 C                    -0.191083
     12 H                     0.174440
     13 H                     0.184253
     14 H                     0.174440
     15 H                     0.184253
     16 H                     0.176837
  ----------------------------------------
  Sum of atomic charges =    -0.000000

 -----------------------------------------------------------------
                    Cartesian Multipole Moments
 -----------------------------------------------------------------
    Charge (ESU x 10^10)
                -0.0000
    Dipole Moment (Debye)
         X       0.0000      Y       0.0000      Z       0.4128
       Tot       0.4128
    Quadrupole Moments (Debye-Ang)
        XX     -61.3357     XY       0.9301     YY     -71.0174
        XZ       0.0000     YZ      -0.0000     ZZ     -74.5780
    Octopole Moments (Debye-Ang^2)
       XXX       0.0000    XXY       0.0000    XYY      -0.0000
       YYY       0.0000    XXZ      -5.3054    XYZ      11.7844
       YYZ       5.9275    XZZ      -0.0000    YZZ       0.0000
       ZZZ      -2.3560
    Hexadecapole Moments (Debye-Ang^3)
      XXXX   -1839.6350   XXXY     -11.2223   XXYY    -405.9120
      XYYY       3.2477   YYYY    -424.3926   XXXZ      -0.0000
      XXYZ      -0.0000   XYYZ       0.0000   YYYZ      -0.0000
      XXZZ    -406.1170   XYZZ       1.5898   YYZZ    -103.3852
      XZZZ       0.0000   YZZZ      -0.0000   ZZZZ    -256.3698
 -----------------------------------------------------------------
 DrvMan is completing analytic gradient of the MP2 energy
 MP2 relaxed dipole moment
            1
    1   0.0000000
    2   0.0000000
    3   0.1624117
	Magnitude:	 0.162 au	 0.413 Debye
 MP2 energy read as -1103.411762
 Full Analytical Gradient of MP2 Energy (in au.)
             1             2             3             4             5
    1    0.00003049    0.00060055   -0.00000301    0.00030666   -0.00120370
    2    0.00026641    0.00035952   -0.00016090   -0.00150192    0.00141984
    3   -0.00072902    0.00042249   -0.00034083    0.00187401   -0.00051455
             6             7             8             9            10
    1    0.00002465    0.00120370   -0.00003050   -0.00030666   -0.00060055
    2    0.00037717   -0.00141984   -0.00026641    0.00150192   -0.00035952
    3   -0.00049163   -0.00051455   -0.00072902    0.00187401    0.00042248
            11            12            13            14            15
    1    0.00000301   -0.00001358   -0.00003671    0.00001358    0.00003671
    2    0.00016090   -0.00000985   -0.00004305    0.00000985    0.00004305
    3   -0.00034083   -0.00001966   -0.00020080   -0.00001966   -0.00020080
            16
    1   -0.00002465
    2   -0.00037717
    3   -0.00049163
 Gradient time:  CPU 1.58 s  wall 0.10 s
 Geometry Optimization Parameters
   NAtoms,    NIC,     NZ,  NCons,   NDum,   NFix, NCnnct, MaxDiis
       16     111       0       1       0       0       0       0

 Cartesian Hessian Update
 Hessian Updated using BFGS Update


** CONSTRAINED OPTIMIZATION IN DELOCALIZED INTERNAL COORDINATES **
   Searching for a Minimum

   Optimization Cycle:   2

                       Coordinates (Angstroms)
     ATOM                X               Y               Z
      1  S         1.7447474409   -1.0071990068   -0.6523674038
      2  C         3.1512059859   -0.1685542011   -0.1775689786
      3  C         2.8446058607    0.9282097330    0.5900396466
      4  C         1.4630111417    1.0735329284    0.7959361609
      5  C         0.7170973636    0.0918511639    0.1804826867
      6  H         1.0093351700    1.8654657633    1.3641846601
      7  C        -0.7170973636   -0.0918511639    0.1804826867
      8  S        -1.7447474409    1.0071990068   -0.6523674038
      9  C        -1.4630111417   -1.0735329284    0.7959361609
     10  C        -3.1512059859    0.1685542011   -0.1775689786
     11  C        -2.8446058607   -0.9282097330    0.5900396466
     12  H        -3.5901623839   -1.5908685110    0.9891165573
     13  H         4.1185759963   -0.5146838785   -0.4832844464
     14  H         3.5901623839    1.5908685110    0.9891165573
     15  H        -4.1185759963    0.5146838785   -0.4832844464
     16  H        -1.0093351700   -1.8654657633    1.3641846601
   Point Group: c2    Number of degrees of freedom:    22


   Energy is  -1103.411761886

              Constraints and their Current Values
                                        Value     Constraint
   Dihedral:        4   5   7   9     -110.000     -110.000
 Hessian Updated using BFGS Update

 20 Hessian modes will be used to form the next step
  Hessian Eigenvalues:
     0.030345    0.045000    0.045001    0.045008    0.053810    0.158865
     0.159988    0.160225    0.221689    0.242772    0.249052    0.324524
     0.339214    0.365533    0.366896    0.370130    0.414023    0.440175
     0.460964    0.496819

 Minimum Search - Taking Simple RFO Step
 Searching for Lamda that Minimizes Along All modes
 Value Taken    Lamda =  -0.00008106
 Step Taken.  Stepsize is  0.047993

                             Maximum     Tolerance    Cnvgd?
         Gradient           0.001099      0.000300      NO
         Displacement       0.028874      0.001200      NO
         Energy change     -0.000279      0.000001      NO


 New Cartesian Coordinates Obtained by Inverse Iteration

 Displacement from previous Coordinates is:  0.101901
 ----------------------------------------------------------------
             Standard Nuclear Orientation (Angstroms)
    I     Atom           X                Y                Z
 ----------------------------------------------------------------
    1      S       1.7490332043    -1.0121418597    -0.6505668119
    2      C       3.1516120817    -0.1725403620    -0.1689674961
    3      C       2.8411119464     0.9299198840     0.5897180193
    4      C       1.4582988906     1.0782123496     0.7833498192
    5      C       0.7176818017     0.0936972156     0.1669202730
    6      H       1.0000936558     1.8672333155     1.3518989957
    7      C      -0.7176818017    -0.0936972156     0.1669202730
    8      S      -1.7490332043     1.0121418597    -0.6505668119
    9      C      -1.4582988906    -1.0782123496     0.7833498192
   10      C      -3.1516120817     0.1725403620    -0.1689674961
   11      C      -2.8411119464    -0.9299198840     0.5897180193
   12      H      -3.5847259639    -1.5913301627     0.9944288461
   13      H       4.1217315652    -0.5232877614    -0.4602427625
   14      H       3.5847259639     1.5913301627     0.9944288461
   15      H      -4.1217315652     0.5232877614    -0.4602427625
   16      H      -1.0000936558    -1.8672333155     1.3518989957
 ----------------------------------------------------------------
 Molecular Point Group                 C2    NOp =  2
 Largest Abelian Subgroup              C2    NOp =  2
 Nuclear Repulsion Energy =   635.4408049157 hartrees
 There are       43 alpha and       43 beta electrons
 Applying Cartesian multipole field
    Component          Value
    ---------          -----
     (2,0,0)        1.00000E-11
     (0,2,0)        2.00000E-11
     (0,0,2)       -3.00000E-10
 Nucleus-field energy     =    -0.0000000145 hartrees
 Requested basis set is cc-pVTZ
 There are 140 shells and 392 basis functions
 A cutoff of  1.0D-11 yielded   8046 shell pairs
 There are     62594 function pairs (     81594 Cartesian)
 Smallest overlap matrix eigenvalue = 9.52E-05
 Guess MOs from SCF MO coefficient file
 Reading MOs from coefficient file
 Reading MOs from coefficient file
 A restricted Hartree-Fock SCF calculation will be
 performed using Pulay DIIS extrapolation
 SCF converges when DIIS error is below 1.0E-08
 Geometry optimization detected.  Setting ReadMinima to 0
 Setting SaveMinima to 0
 using 16 threads for integral computing 
 ---------------------------------------
  Cycle       Energy         DIIS Error
 ---------------------------------------
    1   -1101.5964887877      2.18E-04
    2   -1101.5972746333      2.61E-05
    3   -1101.5973050088      1.07E-05
    4   -1101.5973100810      5.77E-06
    5   -1101.5973113867      1.79E-06
    6   -1101.5973115223      7.75E-07
    7   -1101.5973115516      2.82E-07
    8   -1101.5973115555      9.34E-08
    9   -1101.5973115560      4.20E-08
   10   -1101.5973115561      1.13E-08
   11   -1101.5973115562      3.88E-09 Convergence criterion met
 ---------------------------------------
 SCF time:  CPU 699.68 s  wall 43.76 s
 SCF   energy in the final basis set = -1101.5973115562
 Total energy in the final basis set = -1101.5973115562
 
 Components of the MP2 correlation energy:
        aaaa  correlation energy =        -0.2321081290 au
        abab  correlation energy =        -1.3502910972 au
        bbbb  correlation energy =        -0.2321081290 au
        non-Brillouin singles    =        -0.0000000000 au

 Total  MP2   correlation energy =        -1.8145073552 au
        MP2         total energy =     -1103.4118189114 au

  Entering Z-vector solver.
   1         0           1      0.000264    0.000264
   2         0           1      0.000116    0.000116
   3         0           1      0.000048    0.000048
   4         0           1      0.000024    0.000024
   5         0           1      0.000007    0.000007
   6         0           1      0.000002    0.000002
   7         1           0      0.000000    0.000000    Roots Converged
 
 --------------------------------------------------------------
             Orbital Energies (a.u.) and Symmetries
 --------------------------------------------------------------
 
 Alpha MOs, Restricted
 -- Occupied --                  
-91.984 -91.984 -11.272 -11.271 -11.261 -11.261 -11.238 -11.238
  1 B     1 A     2 A     2 B     3 B     3 A     4 A     4 B                  
-11.236 -11.236  -8.986  -8.986  -6.667  -6.667  -6.666  -6.666
  5 B     5 A     6 B     6 A     7 B     7 A     8 A     8 B                  
 -6.665  -6.665  -1.195  -1.166  -1.033  -0.994  -0.989  -0.948
  9 B     9 A    10 A    10 B    11 A    11 B    12 A    12 B                  
 -0.806  -0.770  -0.756  -0.718  -0.704  -0.645  -0.570  -0.569
 13 A    13 B    14 A    14 B    15 A    15 B    16 A    16 B                  
 -0.562  -0.555  -0.540  -0.513  -0.511  -0.478  -0.473  -0.354
 17 A    17 B    18 A    18 B    19 A    19 B    20 A    21 A                  
 -0.345  -0.341  -0.305
 20 B    22 A    21 B                                                          
 -- Virtual --                   
  0.097   0.123   0.150   0.154   0.163   0.171   0.184   0.185
 23 A    22 B    23 B    24 A    25 A    24 B    26 A    25 B                  
  0.191   0.201   0.208   0.232   0.238   0.251   0.318   0.324
 27 A    26 B    28 A    27 B    28 B    29 A    29 B    30 A                  
  0.347   0.353   0.366   0.376   0.391   0.403   0.421   0.430
 30 B    31 A    31 B    32 A    33 A    32 B    33 B    34 A                  
  0.439   0.450   0.455   0.461   0.468   0.491   0.499   0.502
 35 A    34 B    36 A    35 B    37 A    36 B    38 A    37 B                  
  0.508   0.521   0.538   0.541   0.548   0.556   0.565   0.571
 38 B    39 A    39 B    40 B    40 A    41 A    41 B    42 A                  
  0.574   0.581   0.600   0.601   0.608   0.608   0.621   0.623
 42 B    43 A    44 A    43 B    44 B    45 A    45 B    46 A                  
  0.640   0.646   0.657   0.669   0.678   0.681   0.703   0.714
 46 B    47 A    47 B    48 B    48 A    49 A    50 A    49 B                  
  0.756   0.757   0.781   0.785   0.808   0.829   0.840   0.846
 50 B    51 A    51 B    52 A    52 B    53 A    53 B    54 B                  
  0.864   0.865   0.880   0.899   0.905   0.919   0.928   0.937
 54 A    55 B    55 A    56 B    56 A    57 A    57 B    58 A                  
  0.969   0.996   1.007   1.014   1.023   1.029   1.067   1.091
 59 A    58 B    60 A    59 B    61 A    60 B    61 B    62 A                  
  1.100   1.103   1.104   1.116   1.131   1.151   1.171   1.181
 62 B    63 A    63 B    64 A    65 A    64 B    66 A    65 B                  
  1.189   1.195   1.217   1.226   1.243   1.247   1.285   1.293
 67 A    66 B    68 A    67 B    68 B    69 A    69 B    70 A                  
  1.301   1.312   1.345   1.347   1.377   1.380   1.406   1.438
 70 B    71 A    72 A    71 B    73 A    72 B    73 B    74 A                  
  1.447   1.458   1.486   1.492   1.493   1.511   1.517   1.538
 74 B    75 B    75 A    76 B    76 A    77 B    77 A    78 B                  
  1.549   1.558   1.561   1.589   1.593   1.619   1.633   1.643
 78 A    79 B    79 A    80 A    80 B    81 A    81 B    82 A                  
  1.676   1.709   1.711   1.741   1.746   1.751   1.775   1.826
 82 B    83 B    83 A    84 B    85 B    84 A    85 A    86 A                  
  1.835   1.861   1.864   1.892   1.906   1.914   1.921   1.940
 86 B    87 A    87 B    88 B    88 A    89 B    89 A    90 B                  
  1.953   2.007   2.046   2.067   2.071   2.117   2.127   2.148
 90 A    91 B    91 A    92 B    92 A    93 A    93 B    94 A                  
  2.169   2.190   2.205   2.210   2.227   2.237   2.255   2.265
 95 A    94 B    95 B    96 B    96 A    97 A    97 B    98 A                  
  2.286   2.313   2.334   2.397   2.404   2.424   2.453   2.471
 98 B    99 B    99 A   100 A   100 B   101 A   102 A   101 B                  
  2.489   2.499   2.523   2.529   2.540   2.565   2.568   2.595
103 A   102 B   103 B   104 B   104 A   105 B   105 A   106 A                  
  2.625   2.665   2.679   2.694   2.705   2.718   2.751   2.764
106 B   107 B   107 A   108 A   108 B   109 B   109 A   110 B                  
  2.769   2.774   2.785   2.794   2.798   2.867   2.895   2.903
111 B   110 A   111 A   112 A   112 B   113 A   114 A   113 B                  
  2.912   2.926   2.934   2.981   2.995   3.014   3.017   3.029
114 B   115 B   115 A   116 A   117 A   116 B   118 A   117 B                  
  3.046   3.060   3.065   3.133   3.160   3.161   3.169   3.186
119 A   118 B   119 B   120 A   120 B   121 A   121 B   122 A                  
  3.206   3.216   3.244   3.251   3.263   3.272   3.280   3.288
123 A   122 B   124 A   123 B   125 A   126 A   124 B   125 B                  
  3.290   3.300   3.333   3.345   3.354   3.356   3.367   3.403
127 A   126 B   128 A   127 B   128 B   129 A   129 B   130 B                  
  3.406   3.431   3.432   3.449   3.455   3.459   3.472   3.480
130 A   131 A   131 B   132 A   133 A   132 B   134 A   133 B                  
  3.483   3.494   3.508   3.509   3.514   3.525   3.532   3.545
135 A   134 B   136 A   135 B   137 A   136 B   137 B   138 B                  
  3.552   3.568   3.580   3.593   3.603   3.619   3.638   3.658
138 A   139 A   140 A   139 B   141 A   140 B   142 A   141 B                  
  3.692   3.703   3.731   3.735   3.745   3.756   3.784   3.789
143 A   142 B   144 A   143 B   145 A   144 B   146 A   145 B                  
  3.816   3.851   3.866   3.886   3.889   3.912   3.914   3.922
147 A   146 B   147 B   148 A   148 B   149 B   149 A   150 A                  
  3.967   3.974   4.004   4.006   4.021   4.028   4.035   4.057
150 B   151 A   152 A   151 B   152 B   153 A   154 A   153 B                  
  4.066   4.115   4.119   4.141   4.160   4.166   4.180   4.188
154 B   155 B   155 A   156 A   156 B   157 A   157 B   158 A                  
  4.208   4.216   4.231   4.257   4.274   4.285   4.331   4.332
158 B   159 A   160 A   159 B   161 A   160 B   161 B   162 A                  
  4.339   4.374   4.391   4.404   4.437   4.467   4.522   4.530
162 B   163 A   164 A   163 B   164 B   165 A   165 B   166 A                  
  4.552   4.554   4.586   4.608   4.657   4.661   4.693   4.702
166 B   167 A   167 B   168 A   169 A   168 B   170 A   169 B                  
  4.714   4.745   4.759   4.765   4.787   4.824   4.846   4.892
170 B   171 A   171 B   172 B   172 A   173 A   173 B   174 B                  
  4.899   4.934   4.976   5.010   5.052   5.067   5.068   5.072
174 A   175 A   175 B   176 A   176 B   177 A   177 B   178 A                  
  5.090   5.099   5.187   5.241   5.243   5.295   5.306   5.379
178 B   179 A   179 B   180 B   180 A   181 B   181 A   182 A                  
  5.388   5.419   5.427   5.508   5.564   5.599   5.653   5.667
182 B   183 A   183 B   184 A   184 B   185 A   186 A   185 B                  
  5.794   5.895   5.945   6.031   6.088   6.130   6.183   6.204
186 B   187 A   187 B   188 A   188 B   189 A   189 B   190 A                  
  6.213   6.546   6.566   6.712   6.748   9.510  10.680  11.879
190 B   191 A   191 B   192 A   192 B   193 A   193 B   194 A                  
 12.176  13.506  13.578  14.607  14.620
194 B   195 A   195 B   196 A   196 B                                          
 
 Beta MOs, Restricted
 -- Occupied --                  
-91.984 -91.984 -11.272 -11.271 -11.261 -11.261 -11.238 -11.238
  1 B     1 A     2 A     2 B     3 B     3 A     4 A     4 B                  
-11.236 -11.236  -8.986  -8.986  -6.667  -6.667  -6.666  -6.666
  5 B     5 A     6 B     6 A     7 B     7 A     8 A     8 B                  
 -6.665  -6.665  -1.195  -1.166  -1.033  -0.994  -0.989  -0.948
  9 B     9 A    10 A    10 B    11 A    11 B    12 A    12 B                  
 -0.806  -0.770  -0.756  -0.718  -0.704  -0.645  -0.570  -0.569
 13 A    13 B    14 A    14 B    15 A    15 B    16 A    16 B                  
 -0.562  -0.555  -0.540  -0.513  -0.511  -0.478  -0.473  -0.354
 17 A    17 B    18 A    18 B    19 A    19 B    20 A    21 A                  
 -0.345  -0.341  -0.305
 20 B    22 A    21 B                                                          
 -- Virtual --                   
  0.097   0.123   0.150   0.154   0.163   0.171   0.184   0.185
 23 A    22 B    23 B    24 A    25 A    24 B    26 A    25 B                  
  0.191   0.201   0.208   0.232   0.238   0.251   0.318   0.324
 27 A    26 B    28 A    27 B    28 B    29 A    29 B    30 A                  
  0.347   0.353   0.366   0.376   0.391   0.403   0.421   0.430
 30 B    31 A    31 B    32 A    33 A    32 B    33 B    34 A                  
  0.439   0.450   0.455   0.461   0.468   0.491   0.499   0.502
 35 A    34 B    36 A    35 B    37 A    36 B    38 A    37 B                  
  0.508   0.521   0.538   0.541   0.548   0.556   0.565   0.571
 38 B    39 A    39 B    40 B    40 A    41 A    41 B    42 A                  
  0.574   0.581   0.600   0.601   0.608   0.608   0.621   0.623
 42 B    43 A    44 A    43 B    44 B    45 A    45 B    46 A                  
  0.640   0.646   0.657   0.669   0.678   0.681   0.703   0.714
 46 B    47 A    47 B    48 B    48 A    49 A    50 A    49 B                  
  0.756   0.757   0.781   0.785   0.808   0.829   0.840   0.846
 50 B    51 A    51 B    52 A    52 B    53 A    53 B    54 B                  
  0.864   0.865   0.880   0.899   0.905   0.919   0.928   0.937
 54 A    55 B    55 A    56 B    56 A    57 A    57 B    58 A                  
  0.969   0.996   1.007   1.014   1.023   1.029   1.067   1.091
 59 A    58 B    60 A    59 B    61 A    60 B    61 B    62 A                  
  1.100   1.103   1.104   1.116   1.131   1.151   1.171   1.181
 62 B    63 A    63 B    64 A    65 A    64 B    66 A    65 B                  
  1.189   1.195   1.217   1.226   1.243   1.247   1.285   1.293
 67 A    66 B    68 A    67 B    68 B    69 A    69 B    70 A                  
  1.301   1.312   1.345   1.347   1.377   1.380   1.406   1.438
 70 B    71 A    72 A    71 B    73 A    72 B    73 B    74 A                  
  1.447   1.458   1.486   1.492   1.493   1.511   1.517   1.538
 74 B    75 B    75 A    76 B    76 A    77 B    77 A    78 B                  
  1.549   1.558   1.561   1.589   1.593   1.619   1.633   1.643
 78 A    79 B    79 A    80 A    80 B    81 A    81 B    82 A                  
  1.676   1.709   1.711   1.741   1.746   1.751   1.775   1.826
 82 B    83 B    83 A    84 B    85 B    84 A    85 A    86 A                  
  1.835   1.861   1.864   1.892   1.906   1.914   1.921   1.940
 86 B    87 A    87 B    88 B    88 A    89 B    89 A    90 B                  
  1.953   2.007   2.046   2.067   2.071   2.117   2.127   2.148
 90 A    91 B    91 A    92 B    92 A    93 A    93 B    94 A                  
  2.169   2.190   2.205   2.210   2.227   2.237   2.255   2.265
 95 A    94 B    95 B    96 B    96 A    97 A    97 B    98 A                  
  2.286   2.313   2.334   2.397   2.404   2.424   2.453   2.471
 98 B    99 B    99 A   100 A   100 B   101 A   102 A   101 B                  
  2.489   2.499   2.523   2.529   2.540   2.565   2.568   2.595
103 A   102 B   103 B   104 B   104 A   105 B   105 A   106 A                  
  2.625   2.665   2.679   2.694   2.705   2.718   2.751   2.764
106 B   107 B   107 A   108 A   108 B   109 B   109 A   110 B                  
  2.769   2.774   2.785   2.794   2.798   2.867   2.895   2.903
111 B   110 A   111 A   112 A   112 B   113 A   114 A   113 B                  
  2.912   2.926   2.934   2.981   2.995   3.014   3.017   3.029
114 B   115 B   115 A   116 A   117 A   116 B   118 A   117 B                  
  3.046   3.060   3.065   3.133   3.160   3.161   3.169   3.186
119 A   118 B   119 B   120 A   120 B   121 A   121 B   122 A                  
  3.206   3.216   3.244   3.251   3.263   3.272   3.280   3.288
123 A   122 B   124 A   123 B   125 A   126 A   124 B   125 B                  
  3.290   3.300   3.333   3.345   3.354   3.356   3.367   3.403
127 A   126 B   128 A   127 B   128 B   129 A   129 B   130 B                  
  3.406   3.431   3.432   3.449   3.455   3.459   3.472   3.480
130 A   131 A   131 B   132 A   133 A   132 B   134 A   133 B                  
  3.483   3.494   3.508   3.509   3.514   3.525   3.532   3.545
135 A   134 B   136 A   135 B   137 A   136 B   137 B   138 B                  
  3.552   3.568   3.580   3.593   3.603   3.619   3.638   3.658
138 A   139 A   140 A   139 B   141 A   140 B   142 A   141 B                  
  3.692   3.703   3.731   3.735   3.745   3.756   3.784   3.789
143 A   142 B   144 A   143 B   145 A   144 B   146 A   145 B                  
  3.816   3.851   3.866   3.886   3.889   3.912   3.914   3.922
147 A   146 B   147 B   148 A   148 B   149 B   149 A   150 A                  
  3.967   3.974   4.004   4.006   4.021   4.028   4.035   4.057
150 B   151 A   152 A   151 B   152 B   153 A   154 A   153 B                  
  4.066   4.115   4.119   4.141   4.160   4.166   4.180   4.188
154 B   155 B   155 A   156 A   156 B   157 A   157 B   158 A                  
  4.208   4.216   4.231   4.257   4.274   4.285   4.331   4.332
158 B   159 A   160 A   159 B   161 A   160 B   161 B   162 A                  
  4.339   4.374   4.391   4.404   4.437   4.467   4.522   4.530
162 B   163 A   164 A   163 B   164 B   165 A   165 B   166 A                  
  4.552   4.554   4.586   4.608   4.657   4.661   4.693   4.702
166 B   167 A   167 B   168 A   169 A   168 B   170 A   169 B                  
  4.714   4.745   4.759   4.765   4.787   4.824   4.846   4.892
170 B   171 A   171 B   172 B   172 A   173 A   173 B   174 B                  
  4.899   4.934   4.976   5.010   5.052   5.067   5.068   5.072
174 A   175 A   175 B   176 A   176 B   177 A   177 B   178 A                  
  5.090   5.099   5.187   5.241   5.243   5.295   5.306   5.379
178 B   179 A   179 B   180 B   180 A   181 B   181 A   182 A                  
  5.388   5.419   5.427   5.508   5.564   5.599   5.653   5.667
182 B   183 A   183 B   184 A   184 B   185 A   186 A   185 B                  
  5.794   5.895   5.945   6.031   6.088   6.130   6.183   6.204
186 B   187 A   187 B   188 A   188 B   189 A   189 B   190 A                  
  6.213   6.546   6.566   6.712   6.748   9.510  10.680  11.879
190 B   191 A   191 B   192 A   192 B   193 A   193 B   194 A                  
 12.176  13.506  13.578  14.607  14.620
194 B   195 A   195 B   196 A   196 B                                          
 --------------------------------------------------------------
 
          Ground-State Mulliken Net Atomic Charges

     Atom                 Charge (a.u.)
  ----------------------------------------
      1 S                     0.129035
      2 C                    -0.239386
      3 C                    -0.191427
      4 C                    -0.199669
      5 C                    -0.034217
      6 H                     0.177051
      7 C                    -0.034217
      8 S                     0.129035
      9 C                    -0.199669
     10 C                    -0.239386
     11 C                    -0.191427
     12 H                     0.174417
     13 H                     0.184194
     14 H                     0.174417
     15 H                     0.184194
     16 H                     0.177051
  ----------------------------------------
  Sum of atomic charges =     0.000000

 -----------------------------------------------------------------
                    Cartesian Multipole Moments
 -----------------------------------------------------------------
    Charge (ESU x 10^10)
                 0.0000
    Dipole Moment (Debye)
         X      -0.0000      Y      -0.0000      Z       0.4474
       Tot       0.4474
    Quadrupole Moments (Debye-Ang)
        XX     -61.3637     XY       0.8240     YY     -70.9909
        XZ      -0.0000     YZ       0.0000     ZZ     -74.6009
    Octopole Moments (Debye-Ang^2)
       XXX      -0.0000    XXY      -0.0000    XYY      -0.0000
       YYY       0.0000    XXZ      -4.5096    XYZ      11.7347
       YYZ       6.0468    XZZ      -0.0000    YZZ       0.0000
       ZZZ      -1.9018
    Hexadecapole Moments (Debye-Ang^3)
      XXXX   -1839.7016   XXXY     -11.5431   XXYY    -406.0994
      XYYY       4.3472   YYYY    -427.0038   XXXZ      -0.0000
      XXYZ      -0.0000   XYYZ       0.0000   YYYZ       0.0000
      XXZZ    -406.2845   XYZZ       2.2752   YYZZ    -103.4784
      XZZZ      -0.0000   YZZZ       0.0000   ZZZZ    -253.6988
 -----------------------------------------------------------------
 DrvMan is completing analytic gradient of the MP2 energy
 MP2 relaxed dipole moment
            1
    1  -0.0000000
    2  -0.0000000
    3   0.1760308
	Magnitude:	 0.176 au	 0.447 Debye
 MP2 energy read as -1103.411819
 Full Analytical Gradient of MP2 Energy (in au.)
             1             2             3             4             5
    1    0.00014087   -0.00012387   -0.00012360    0.00017389    0.00070773
    2    0.00021705   -0.00010704    0.00024873   -0.00125034    0.00186582
    3   -0.00058893    0.00004013   -0.00025358    0.00150363   -0.00064909
             6             7             8             9            10
    1   -0.00002077   -0.00070773   -0.00014087   -0.00017389    0.00012387
    2    0.00010176   -0.00186582   -0.00021705    0.00125034    0.00010704
    3   -0.00017446   -0.00064909   -0.00058893    0.00150363    0.00004013
            11            12            13            14            15
    1    0.00012360    0.00001720   -0.00002581   -0.00001720    0.00002581
    2   -0.00024873    0.00002456   -0.00006893   -0.00002456    0.00006893
    3   -0.00025358    0.00011075    0.00001155    0.00011075    0.00001155
            16
    1    0.00002077
    2   -0.00010176
    3   -0.00017446
 Gradient time:  CPU 1.56 s  wall 0.10 s
 Geometry Optimization Parameters
   NAtoms,    NIC,     NZ,  NCons,   NDum,   NFix, NCnnct, MaxDiis
       16     111       0       1       0       0       0       0

 Cartesian Hessian Update
 Hessian Updated using BFGS Update


** CONSTRAINED OPTIMIZATION IN DELOCALIZED INTERNAL COORDINATES **
   Searching for a Minimum

   Optimization Cycle:   3

                       Coordinates (Angstroms)
     ATOM                X               Y               Z
[...]
         Gradient           0.000071      0.000300     YES
         Displacement       0.001491      0.001200      NO
         Energy change     -0.000001      0.000001     YES

 Final energy is   -1103.41187220604     


 ******************************
 **  OPTIMIZATION CONVERGED  **
 ******************************

                       Coordinates (Angstroms)
     ATOM                X               Y               Z
      1  S         1.7586643969   -1.0288577131   -0.6331555037
      2  C         3.1555761581   -0.1847477189   -0.1419082327
      3  C         2.8350051215    0.9318140888    0.5913574693
      4  C         1.4494243820    1.0886503959    0.7562418615
      5  C         0.7161595317    0.0983480120    0.1391253095
      6  H         0.9842663455    1.8839791885    1.3102033065
      7  C        -0.7161595317   -0.0983480120    0.1391253095
      8  S        -1.7586643969    1.0288577131   -0.6331555037
      9  C        -1.4494243820   -1.0886503959    0.7562418615
     10  C        -3.1555761581    0.1847477189   -0.1419082327
     11  C        -2.8350051215   -0.9318140888    0.5913574693
     12  H        -3.5736150727   -1.5990132593    0.9957256426
     13  H         4.1296488924   -0.5420979607   -0.4110509702
     14  H         3.5736150727    1.5990132593    0.9957256426
     15  H        -4.1296488924    0.5420979607   -0.4110509702
     16  H        -0.9842663455   -1.8839791885    1.3102033065

Z-matrix Print:
$molecule
0 1
S 
C  1 1.704467
H  2 1.071893 1 120.483960
C  2 1.373737 1 111.414478 3 -179.951992 0
H  4 1.074343 2 123.041096 1 -179.892704 0
C  4 1.404143 2 112.565320 1 -0.381786 0
H  6 1.075078 4 124.756629 2 -178.870354 0
C  6 1.378118 4 113.091232 2 0.522031 0
C  8 1.445762 6 128.674410 4 -177.240717 0
C  9 1.378118 8 128.674410 6 109.999999 0
H  10 1.075078 9 122.149262 8 2.169670 0
C  10 1.404143 9 113.091232 8 -177.240717 0
H  12 1.074343 10 124.391626 9 -179.974806 0
C  12 1.373737 10 112.565320 9 0.522031 0
H  14 1.071893 12 128.101541 10 179.670789 0
S  14 1.704467 12 111.414478 10 -0.381786 0
$end

 
 --------------------------------------------------------------
             Orbital Energies (a.u.) and Symmetries
 --------------------------------------------------------------
 
 Alpha MOs, Restricted
 -- Occupied --                  
-91.984 -91.984 -11.272 -11.272 -11.261 -11.261 -11.238 -11.238
  1 B     1 A     2 A     2 B     3 B     3 A     4 A     4 B                  
-11.236 -11.236  -8.986  -8.986  -6.667  -6.667  -6.666  -6.666
  5 B     5 A     6 B     6 A     7 B     7 A     8 A     8 B                  
 -6.665  -6.665  -1.195  -1.166  -1.033  -0.994  -0.988  -0.948
  9 B     9 A    10 A    10 B    11 A    11 B    12 A    12 B                  
 -0.806  -0.770  -0.755  -0.718  -0.704  -0.645  -0.571  -0.569
 13 A    13 B    14 A    14 B    15 A    15 B    16 A    16 B                  
 -0.562  -0.555  -0.540  -0.513  -0.511  -0.478  -0.473  -0.354
 17 A    17 B    18 A    18 B    19 A    19 B    20 A    21 A                  
 -0.345  -0.343  -0.303
 20 B    22 A    21 B                                                          
 -- Virtual --                   
  0.095   0.124   0.150   0.154   0.163   0.171   0.185   0.185
 23 A    22 B    23 B    24 A    25 A    24 B    26 A    25 B                  
  0.192   0.201   0.208   0.233   0.237   0.252   0.318   0.325
 27 A    26 B    28 A    27 B    28 B    29 A    29 B    30 A                  
  0.347   0.353   0.366   0.376   0.391   0.403   0.421   0.431
 30 B    31 A    31 B    32 A    33 A    32 B    33 B    34 A                  
  0.439   0.449   0.456   0.460   0.468   0.493   0.502   0.502
 35 A    34 B    36 A    35 B    37 A    36 B    38 A    37 B                  
  0.508   0.521   0.538   0.543   0.548   0.556   0.562   0.571
 38 B    39 A    39 B    40 B    40 A    41 A    41 B    42 A                  
  0.573   0.581   0.599   0.601   0.608   0.608   0.622   0.623
 42 B    43 A    44 A    43 B    44 B    45 A    45 B    46 A                  
  0.641   0.645   0.656   0.670   0.679   0.682   0.702   0.713
 46 B    47 A    47 B    48 B    48 A    49 A    50 A    49 B                  
  0.757   0.758   0.781   0.784   0.807   0.829   0.839   0.847
 50 B    51 A    51 B    52 A    52 B    53 A    53 B    54 B                  
  0.863   0.865   0.881   0.902   0.903   0.920   0.930   0.937
 55 B    54 A    55 A    56 B    56 A    57 A    57 B    58 A                  
  0.965   0.999   1.008   1.015   1.023   1.028   1.068   1.093
 59 A    58 B    60 A    59 B    61 A    60 B    61 B    62 A                  
  1.100   1.101   1.103   1.113   1.131   1.151   1.171   1.182
 62 B    63 A    63 B    64 A    65 A    64 B    66 A    65 B                  
  1.188   1.195   1.217   1.225   1.241   1.250   1.280   1.293
 67 A    66 B    68 A    67 B    68 B    69 A    69 B    70 A                  
  1.300   1.312   1.344   1.352   1.375   1.382   1.406   1.438
 70 B    71 A    72 A    71 B    73 A    72 B    73 B    74 A                  
  1.448   1.458   1.486   1.491   1.492   1.512   1.516   1.539
 74 B    75 B    75 A    76 B    76 A    77 B    77 A    78 B                  
  1.548   1.560   1.561   1.588   1.593   1.617   1.633   1.642
 78 A    79 B    79 A    80 A    80 B    81 A    81 B    82 A                  
  1.677   1.707   1.712   1.738   1.748   1.752   1.776   1.825
 82 B    83 B    83 A    84 B    85 B    84 A    85 A    86 A                  
  1.837   1.861   1.867   1.890   1.906   1.917   1.925   1.940
 86 B    87 A    87 B    88 B    88 A    89 B    89 A    90 B                  
  1.952   2.002   2.045   2.069   2.071   2.113   2.127   2.150
 90 A    91 B    91 A    92 B    92 A    93 A    93 B    94 A                  
  2.168   2.188   2.203   2.214   2.230   2.239   2.256   2.266
 95 A    94 B    95 B    96 B    96 A    97 A    97 B    98 A                  
  2.286   2.316   2.337   2.393   2.401   2.426   2.455   2.469
 98 B    99 B    99 A   100 A   100 B   101 A   102 A   101 B                  
  2.488   2.497   2.522   2.529   2.536   2.565   2.570   2.594
103 A   102 B   103 B   104 B   104 A   105 B   105 A   106 A                  
  2.625   2.667   2.684   2.701   2.703   2.718   2.753   2.764
106 B   107 B   107 A   108 A   108 B   109 B   109 A   110 B                  
  2.770   2.774   2.785   2.793   2.799   2.866   2.896   2.902
111 B   110 A   111 A   112 A   112 B   113 A   114 A   113 B                  
  2.908   2.925   2.935   2.977   2.995   3.015   3.018   3.028
114 B   115 B   115 A   116 A   117 A   116 B   118 A   117 B                  
  3.046   3.057   3.064   3.131   3.160   3.162   3.173   3.183
119 A   118 B   119 B   120 A   120 B   121 A   121 B   122 A                  
  3.206   3.217   3.244   3.251   3.261   3.269   3.280   3.288
123 A   122 B   124 A   123 B   125 A   126 A   124 B   127 A                  
  3.289   3.310   3.334   3.345   3.350   3.356   3.368   3.404
125 B   126 B   128 A   127 B   128 B   129 A   129 B   130 B                  
  3.405   3.432   3.432   3.449   3.456   3.459   3.471   3.480
130 A   131 A   131 B   132 A   133 A   132 B   134 A   133 B                  
  3.485   3.494   3.505   3.508   3.514   3.525   3.532   3.546
135 A   134 B   136 A   135 B   137 A   136 B   137 B   138 B                  
  3.547   3.571   3.579   3.593   3.600   3.620   3.636   3.658
138 A   139 A   140 A   139 B   141 A   140 B   142 A   141 B                  
  3.690   3.703   3.730   3.740   3.743   3.758   3.782   3.785
143 A   142 B   144 A   143 B   145 A   144 B   146 A   145 B                  
  3.820   3.849   3.866   3.887   3.888   3.913   3.914   3.922
147 A   146 B   147 B   148 A   148 B   149 B   149 A   150 A                  
  3.969   3.974   4.002   4.005   4.019   4.030   4.037   4.054
150 B   151 A   152 A   151 B   152 B   153 A   154 A   153 B                  
  4.064   4.116   4.117   4.140   4.161   4.165   4.180   4.184
154 B   155 A   155 B   156 A   156 B   157 A   157 B   158 A                  
  4.210   4.216   4.232   4.258   4.276   4.286   4.329   4.333
158 B   159 A   160 A   159 B   161 A   160 B   161 B   162 A                  
  4.339   4.375   4.392   4.403   4.436   4.468   4.522   4.531
162 B   163 A   164 A   163 B   164 B   165 A   165 B   166 A                  
  4.552   4.555   4.588   4.609   4.657   4.662   4.695   4.703
166 B   167 A   167 B   168 A   169 A   168 B   170 A   169 B                  
  4.712   4.744   4.759   4.765   4.785   4.823   4.846   4.891
170 B   171 A   171 B   172 B   172 A   173 A   173 B   174 B                  
  4.902   4.934   4.980   5.010   5.053   5.068   5.068   5.073
174 A   175 A   175 B   176 A   176 B   177 A   177 B   178 A                  
  5.090   5.099   5.188   5.239   5.244   5.294   5.308   5.378
178 B   179 A   179 B   180 B   180 A   181 B   181 A   182 A                  
  5.388   5.418   5.427   5.508   5.564   5.599   5.651   5.667
182 B   183 A   183 B   184 A   184 B   185 A   186 A   185 B                  
  5.796   5.895   5.941   6.033   6.091   6.131   6.183   6.203
186 B   187 A   187 B   188 A   188 B   189 A   189 B   190 A                  
  6.215   6.547   6.565   6.709   6.750   9.500  10.690  11.873
190 B   191 A   191 B   192 A   192 B   193 A   193 B   194 A                  
 12.191  13.518  13.581  14.611  14.622
194 B   195 A   195 B   196 A   196 B                                          
 
 Beta MOs, Restricted
 -- Occupied --                  
-91.984 -91.984 -11.272 -11.272 -11.261 -11.261 -11.238 -11.238
  1 B     1 A     2 A     2 B     3 B     3 A     4 A     4 B                  
-11.236 -11.236  -8.986  -8.986  -6.667  -6.667  -6.666  -6.666
  5 B     5 A     6 B     6 A     7 B     7 A     8 A     8 B                  
 -6.665  -6.665  -1.195  -1.166  -1.033  -0.994  -0.988  -0.948
  9 B     9 A    10 A    10 B    11 A    11 B    12 A    12 B                  
 -0.806  -0.770  -0.755  -0.718  -0.704  -0.645  -0.571  -0.569
 13 A    13 B    14 A    14 B    15 A    15 B    16 A    16 B                  
 -0.562  -0.555  -0.540  -0.513  -0.511  -0.478  -0.473  -0.354
 17 A    17 B    18 A    18 B    19 A    19 B    20 A    21 A                  
 -0.345  -0.343  -0.303
 20 B    22 A    21 B                                                          
 -- Virtual --                   
  0.095   0.124   0.150   0.154   0.163   0.171   0.185   0.185
 23 A    22 B    23 B    24 A    25 A    24 B    26 A    25 B                  
  0.192   0.201   0.208   0.233   0.237   0.252   0.318   0.325
 27 A    26 B    28 A    27 B    28 B    29 A    29 B    30 A                  
  0.347   0.353   0.366   0.376   0.391   0.403   0.421   0.431
 30 B    31 A    31 B    32 A    33 A    32 B    33 B    34 A                  
  0.439   0.449   0.456   0.460   0.468   0.493   0.502   0.502
 35 A    34 B    36 A    35 B    37 A    36 B    38 A    37 B                  
  0.508   0.521   0.538   0.543   0.548   0.556   0.562   0.571
 38 B    39 A    39 B    40 B    40 A    41 A    41 B    42 A                  
  0.573   0.581   0.599   0.601   0.608   0.608   0.622   0.623
 42 B    43 A    44 A    43 B    44 B    45 A    45 B    46 A                  
  0.641   0.645   0.656   0.670   0.679   0.682   0.702   0.713
 46 B    47 A    47 B    48 B    48 A    49 A    50 A    49 B                  
  0.757   0.758   0.781   0.784   0.807   0.829   0.839   0.847
 50 B    51 A    51 B    52 A    52 B    53 A    53 B    54 B                  
  0.863   0.865   0.881   0.902   0.903   0.920   0.930   0.937
 55 B    54 A    55 A    56 B    56 A    57 A    57 B    58 A                  
  0.965   0.999   1.008   1.015   1.023   1.028   1.068   1.093
 59 A    58 B    60 A    59 B    61 A    60 B    61 B    62 A                  
  1.100   1.101   1.103   1.113   1.131   1.151   1.171   1.182
 62 B    63 A    63 B    64 A    65 A    64 B    66 A    65 B                  
  1.188   1.195   1.217   1.225   1.241   1.250   1.280   1.293
 67 A    66 B    68 A    67 B    68 B    69 A    69 B    70 A                  
  1.300   1.312   1.344   1.352   1.375   1.382   1.406   1.438
 70 B    71 A    72 A    71 B    73 A    72 B    73 B    74 A                  
  1.448   1.458   1.486   1.491   1.492   1.512   1.516   1.539
 74 B    75 B    75 A    76 B    76 A    77 B    77 A    78 B                  
  1.548   1.560   1.561   1.588   1.593   1.617   1.633   1.642
 78 A    79 B    79 A    80 A    80 B    81 A    81 B    82 A                  
  1.677   1.707   1.712   1.738   1.748   1.752   1.776   1.825
 82 B    83 B    83 A    84 B    85 B    84 A    85 A    86 A                  
  1.837   1.861   1.867   1.890   1.906   1.917   1.925   1.940
 86 B    87 A    87 B    88 B    88 A    89 B    89 A    90 B                  
  1.952   2.002   2.045   2.069   2.071   2.113   2.127   2.150
 90 A    91 B    91 A    92 B    92 A    93 A    93 B    94 A                  
  2.168   2.188   2.203   2.214   2.230   2.239   2.256   2.266
 95 A    94 B    95 B    96 B    96 A    97 A    97 B    98 A                  
  2.286   2.316   2.337   2.393   2.401   2.426   2.455   2.469
 98 B    99 B    99 A   100 A   100 B   101 A   102 A   101 B                  
  2.488   2.497   2.522   2.529   2.536   2.565   2.570   2.594
103 A   102 B   103 B   104 B   104 A   105 B   105 A   106 A                  
  2.625   2.667   2.684   2.701   2.703   2.718   2.753   2.764
106 B   107 B   107 A   108 A   108 B   109 B   109 A   110 B                  
  2.770   2.774   2.785   2.793   2.799   2.866   2.896   2.902
111 B   110 A   111 A   112 A   112 B   113 A   114 A   113 B                  
  2.908   2.925   2.935   2.977   2.995   3.015   3.018   3.028
114 B   115 B   115 A   116 A   117 A   116 B   118 A   117 B                  
  3.046   3.057   3.064   3.131   3.160   3.162   3.173   3.183
119 A   118 B   119 B   120 A   120 B   121 A   121 B   122 A                  
  3.206   3.217   3.244   3.251   3.261   3.269   3.280   3.288
123 A   122 B   124 A   123 B   125 A   126 A   124 B   127 A                  
  3.289   3.310   3.334   3.345   3.350   3.356   3.368   3.404
125 B   126 B   128 A   127 B   128 B   129 A   129 B   130 B                  
  3.405   3.432   3.432   3.449   3.456   3.459   3.471   3.480
130 A   131 A   131 B   132 A   133 A   132 B   134 A   133 B                  
  3.485   3.494   3.505   3.508   3.514   3.525   3.532   3.546
135 A   134 B   136 A   135 B   137 A   136 B   137 B   138 B                  
  3.547   3.571   3.579   3.593   3.600   3.620   3.636   3.658
138 A   139 A   140 A   139 B   141 A   140 B   142 A   141 B                  
  3.690   3.703   3.730   3.740   3.743   3.758   3.782   3.785
143 A   142 B   144 A   143 B   145 A   144 B   146 A   145 B                  
  3.820   3.849   3.866   3.887   3.888   3.913   3.914   3.922
147 A   146 B   147 B   148 A   148 B   149 B   149 A   150 A                  
  3.969   3.974   4.002   4.005   4.019   4.030   4.037   4.054
150 B   151 A   152 A   151 B   152 B   153 A   154 A   153 B                  
  4.064   4.116   4.117   4.140   4.161   4.165   4.180   4.184
154 B   155 A   155 B   156 A   156 B   157 A   157 B   158 A                  
  4.210   4.216   4.232   4.258   4.276   4.286   4.329   4.333
158 B   159 A   160 A   159 B   161 A   160 B   161 B   162 A                  
  4.339   4.375   4.392   4.403   4.436   4.468   4.522   4.531
162 B   163 A   164 A   163 B   164 B   165 A   165 B   166 A                  
  4.552   4.555   4.588   4.609   4.657   4.662   4.695   4.703
166 B   167 A   167 B   168 A   169 A   168 B   170 A   169 B                  
  4.712   4.744   4.759   4.765   4.785   4.823   4.846   4.891
170 B   171 A   171 B   172 B   172 A   173 A   173 B   174 B                  
  4.902   4.934   4.980   5.010   5.053   5.068   5.068   5.073
174 A   175 A   175 B   176 A   176 B   177 A   177 B   178 A                  
  5.090   5.099   5.188   5.239   5.244   5.294   5.308   5.378
178 B   179 A   179 B   180 B   180 A   181 B   181 A   182 A                  
  5.388   5.418   5.427   5.508   5.564   5.599   5.651   5.667
182 B   183 A   183 B   184 A   184 B   185 A   186 A   185 B                  
  5.796   5.895   5.941   6.033   6.091   6.131   6.183   6.203
186 B   187 A   187 B   188 A   188 B   189 A   189 B   190 A                  
  6.215   6.547   6.565   6.709   6.750   9.500  10.690  11.873
190 B   191 A   191 B   192 A   192 B   193 A   193 B   194 A                  
 12.191  13.518  13.581  14.611  14.622
194 B   195 A   195 B   196 A   196 B                                          
 --------------------------------------------------------------
 
          Ground-State Mulliken Net Atomic Charges

     Atom                 Charge (a.u.)
  ----------------------------------------
      1 S                     0.128154
      2 C                    -0.239076
      3 C                    -0.192262
      4 C                    -0.198823
      5 C                    -0.033833
      6 H                     0.177245
      7 C                    -0.033833
      8 S                     0.128154
      9 C                    -0.198823
     10 C                    -0.239076
     11 C                    -0.192262
     12 H                     0.174344
     13 H                     0.184251
     14 H                     0.174344
     15 H                     0.184251
     16 H                     0.177245
  ----------------------------------------
  Sum of atomic charges =    -0.000000

 -----------------------------------------------------------------
                    Cartesian Multipole Moments
 -----------------------------------------------------------------
    Charge (ESU x 10^10)
                -0.0000
    Dipole Moment (Debye)
         X      -0.0000      Y      -0.0000      Z       0.4841
       Tot       0.4841
    Quadrupole Moments (Debye-Ang)
        XX     -61.3356     XY       0.7087     YY     -70.8582
        XZ      -0.0000     YZ      -0.0000     ZZ     -74.7859
    Octopole Moments (Debye-Ang^2)
       XXX      -0.0000    XXY      -0.0000    XYY      -0.0000
       YYY      -0.0000    XXZ      -3.7186    XYZ      11.4995
       YYZ       5.8615    XZZ      -0.0000    YZZ      -0.0000
       ZZZ      -2.5191
    Hexadecapole Moments (Debye-Ang^3)
      XXXX   -1840.2256   XXXY      -9.9953   XXYY    -406.6753
      XYYY       8.6529   YYYY    -434.4037   XXXZ      -0.0000
      XXYZ      -0.0000   XYYZ      -0.0000   YYYZ      -0.0000
      XXZZ    -407.0714   XYZZ       4.0045   YYZZ    -103.9443
      XZZZ      -0.0000   YZZZ      -0.0000   ZZZZ    -245.5686
 -----------------------------------------------------------------
Archival summary:
1\1\nid01206\OPT\MP2\BasisUnspecified\286\MonMar616:52:452017MonMar616:52:452017\0\\#,OPT,MP2,BasisUnspecified,\\0,1\S\C,1,1.70447\H,2,1.07189,1,120.484\C,2,1.37374,1,111.414,3,-179.952,0\H,4,1.07434,2,123.041,1,-179.893,0\C,4,1.40414,2,112.565,1,-0.381786,0\H,6,1.07508,4,124.757,2,-178.87,0\C,6,1.37812,4,113.091,2,0.522031,0\C,8,1.44576,6,128.674,4,-177.241,0\C,9,1.37812,8,128.674,6,110,0\H,10,1.07508,9,122.149,8,2.16967,0\C,10,1.40414,9,113.091,8,-177.241,0\H,12,1.07434,10,124.392,9,-179.975,0\C,12,1.37374,10,112.565,9,0.522031,0\H,14,1.07189,12,128.102,10,179.671,0\S,14,1.70447,12,111.414,10,-0.381786,0\\HF=-1101.59723\MP2=-1103.41187\\@

 Total job time:  10343.20s(wall), 54465.49s(cpu) 
 Mon Mar  6 16:52:45 2017

        *************************************************************
        *                                                           *
        *  Thank you very much for using Q-Chem.  Have a nice day.  *
        *                                                           *
        *************************************************************


0 sent ACK to 0 
now end server 0 ... 
