srun -N 1 --ntasks-per-node 1 --cpus-per-task 64 --cpu_bind=cores --nodelist nid01269 /global/project/projectdirs/jcesr/qchem/qc44/cnl_qc441/dist/exe/qcprog.cori.haswell.exe .pt_mp2_-10.0.in.30452.qcin.1 /dev/shm/eg_qchem/qchem30452/
Process 0 of 1 is on nid01269 - thread support 0
initial socket setup ...start
initial socket setup ...done 
now start server 0 ... 
nid01269 10.128.4
Q-Chem Developer Version! Running on 10.128.4.*
                  Welcome to Q-Chem
     A Quantum Leap Into The Future Of Chemistry


 Q-Chem 4.4, Q-Chem, Inc., Pleasanton, CA (2016)

 Y. Shao,  Z. Gan,  E. Epifanovsky,  A. T. B. Gilbert,  M. Wormit,  
 J. Kussmann,  A. W. Lange,  A. Behn,  J. Deng,  X. Feng,  D. Ghosh,  
 M. Goldey,  P. R. Horn,  L. D. Jacobson,  I. Kaliman,  F.Rob,  
 R. Z. Khaliullin,  T. Kus,  A. Landau,  J. Liu,  E. I. Proynov,  Y. M. Rhee,  
 R. M. Richard,  M. A. Rohrdanz,  R. P. Steele,  E. J. Sundstrom,  
 H. L. Woodcock III,  P. M. Zimmerman,  D. Zuev,  B. Albrecht,  E. Alguire,  
 B. Austin,  S. A. Baeppler,  G. J. O. Beran,  Y. A. Bernard,  E. Berquist,  
 K. Brandhorst,  K. B. Bravaya,  S. T. Brown,  D. Casanova,  C.-M. Chang,  
 Y. Chen,  S. H. Chien,  K. D. Closser,  M. P. Coons,  D. L. Crittenden,  
 S. Dasgupta,  M. Diedenhofen,  R. A. DiStasio Jr.,  H. Do,  A. D. Dutoi,  
 R. G. Edgar,  P.-T. Fang,  S. Fatehi,  Q. Feng,  L. Fusti-Molnar,  
 A. Ghysels,  A. Golubeva-Zadorozhnaya,  J. Gomes,  A. Gunina,  
 M. W. D. Hanson-Heine,  P. H. P. Harbach,  A. W. Hauser,  E. G. Hohenstein,  
 Z. C. Holden,  K. Hui,  T.-C. Jagau,  H. Ji,  B. Kaduk,  K. Khistyaev,  
 Jaehoon Kim,  Jihan Kim,  R. A. King,  P. Klunzinger,  D. Kosenkov,  
 T. Kowalczyk,  C. M. Krauter,  A. Kunitsa,  K. U. Lao,  A. Laurent,  
 K. V. Lawler,  D. Lefrancois,  S. Lehtola,  S. V. Levchenko,  C. Y. Lin,  
 Y.-S. Lin,  F. Liu,  E. Livshits,  R. C. Lochan,  A. Luenser,  P. Manohar,  
 S. F. Manzer,  S.-P. Mao,  Y. Mao,  N. Mardirossian,  A. V. Marenich,  
 L. A. Martinez-Martinez,  S. A. Maurer,  N. J. Mayhall,  J.-M. Mewes,  
 A. F. Morrison,  K. Nanda,  C. M. Oana,  R. Olivares-Amaya,  D. P. O'Neill,  
 J. A. Parkhill,  T. M. Perrine,  R. Peverati,  P. A. Pieniazek,  F. Plasser,  
 A. Prociuk,  D. R. Rehn,  E. Rosta,  N. J. Russ,  N. Sergueev,  
 S. M. Sharada,  S. Sharma,  D. W. Small,  A. Sodt,  T. Stauch,  T. Stein,  
 D. Stuck,  Y.-C. Su,  A. J. W. Thom,  T. Tsuchimochi,  L. Vogt,  O. Vydrov,  
 T. Wang,  M. A. Watson,  J. Wenzel,  A. White,  C. F. Williams,  
 V. Vanovschi,  S. Yeganeh,  S. R. Yost,  Z.-Q. You,  I. Y. Zhang,  X. Zhang,  
 Y. Zhao,  B. R. Brooks,  G. K. L. Chan,  D. M. Chipman,  C. J. Cramer,  
 W. A. Goddard III,  M. S. Gordon,  W. J. Hehre,  A. Klamt,  
 H. F. Schaefer III,  M. W. Schmidt,  C. D. Sherrill,  D. G. Truhlar,  
 A. Warshel,  X. Xu,  A. Aspuru-Guzik,  R. Baer,  A. T. Bell,  N. A. Besley,  
 J.-D. Chai,  A. Dreuw,  B. D. Dunietz,  T. R. Furlani,  S. R. Gwaltney,  
 C.-P. Hsu,  Y. Jung,  J. Kong,  D. S. Lambrecht,  W. Liang,  C. Ochsenfeld,  
 V. A. Rassolov,  L. V. Slipchenko,  J. E. Subotnik,  T. Van Voorhis,  
 J. M. Herbert,  A. I. Krylov,  P. M. W. Gill,  M. Head-Gordon

 Contributors to earlier versions of Q-Chem not listed above: 
 R. D. Adamson,  J. Baker,  E. F. C. Byrd,  A. K. Chakraborty,  C.-L. Cheng,  
 H. Dachsel,  R. J. Doerksen,  G. Hawkins,  A. Heyden,  S. Hirata,  
 G. Kedziora,  F. J. Keil,  C. Kelley,  P. P. Korambath,  W. Kurlancheek,  
 A. M. Lee,  M. S. Lee,  D. Liotard,  I. Lotan,  P. E. Maslen,  N. Nair,  
 D. Neuhauser,  R. Olson,  B. Peters,  J. Ritchie,  N. E. Schultz,  
 N. Shenvi,  A. C. Simmonett,  K. S. Thanthiriwatte,  Q. Wu,  W. Zhang

 Please cite Q-Chem as follows:
 Y. Shao et al., Mol. Phys. 113, 184-215 (2015)
 DOI: 10.1080/00268976.2014.952696

 Q-Chem 4.4.1 for Intel X86 EM64T Linux

 Parts of Q-Chem use Armadillo 5.200.1 (Boston Tea Smuggler).
 http://arma.sourceforge.net/

 Q-Chem begins on Mon Mar  6 14:00:25 2017  

Host: nid01196
0

     Scratch files written to /dev/shm/eg_qchem/qchem30452//
 Parallel job on  1  processors

Checking the input file for inconsistencies... 	...done.

--------------------------------------------------------------
User input:
--------------------------------------------------------------
$molecule
 0  1
 S           1.80900300       -1.15938900        0.25896800
 C           3.16466000       -0.14246800        0.05606700
 C           2.78757500        1.14089100       -0.25226100
 C           1.39402000        1.28822000       -0.33563400
 C           0.70898100        0.11689900       -0.08798100
 H           0.89277600        2.20524100       -0.58940400
 C          -0.70898100       -0.11689900       -0.08798100
 S          -1.33468240       -1.71731905       -0.00744229
 C          -1.73821250        0.79927386       -0.15053604
 C          -2.94916546       -1.16448529       -0.03781170
 C          -3.00935720        0.20419636       -0.12358514
 H          -3.93457425        0.74924366       -0.15613276
 H           4.15569300       -0.53353100        0.17259300
 H           3.49202900        1.93475000       -0.41867900
 H          -3.76049725       -1.86329259        0.00762040
 H          -1.56299773        1.85958825       -0.19060419
$end


$rem
         jobtype = opt
        exchange = hf
           basis = cc-pvtz
  max_scf_cycles = 100
      mem_static = 6200
       mem_total = 62000
          method = mp2
$end


$opt
CONSTRAINT
tors 4 5 7 9 -10.0
ENDCONSTRAINT
$end

--------------------------------------------------------------
 Atom  15: ( -4.0141368891, -0.0457441975,  0.8830971209)
         ->( -4.0141368850, -0.0457442017,  0.8830971230)
 ----------------------------------------------------------------
             Standard Nuclear Orientation (Angstroms)
    I     Atom           X                Y                Z
 ----------------------------------------------------------------
    1      S       1.5974779641     0.1196608585     1.1288791823
    2      C       3.0996306981     0.0183879986     0.3248990774
    3      C       2.9353074773    -0.0925436720    -1.0333945651
    4      C       1.5840782175    -0.1083914571    -1.4136323386
    5      C       0.7185221431    -0.0067352820    -0.3444821951
    6      H       1.2377017472    -0.2131427175    -2.4263627021
    7      C      -0.7185221437     0.0067352816    -0.3444821949
    8      S      -1.5974779657    -0.1196608587     1.1288791799
    9      C      -1.5840782156     0.1083914579    -1.4136323393
   10      C      -3.0996306960    -0.0183879986     0.3248990801
   11      C      -2.9353074762     0.0925436717    -1.0333945670
   12      H      -3.7588564342     0.1679172875    -1.7191411879
   13      H       4.0141368850     0.0457442017     0.8830971230
   14      H       3.7588564346    -0.1679172922    -1.7191411896
   15      H      -4.0141368850    -0.0457442017     0.8830971230
   16      H      -1.2377017453     0.2131427204    -2.4263627040
 ----------------------------------------------------------------
 Molecular Point Group                 C2    NOp =  2
 Largest Abelian Subgroup              C2    NOp =  2
 Nuclear Repulsion Energy =   640.7304085065 hartrees
 There are       43 alpha and       43 beta electrons
 Requested basis set is cc-pVTZ
 There are 140 shells and 392 basis functions

 Total QAlloc Memory Limit  62000 MB
 Mega-Array Size      6061 MB
 MEM_STATIC part      6200 MB
 A cutoff of  1.0D-11 yielded   8028 shell pairs
 There are     62344 function pairs (     81284 Cartesian)
 
 -------------------------------------------------------
 OpenMP Integral Computing Module                       
 Release: version 1.0, May 2013, Q-Chem Inc. Pittsburgh 
 -------------------------------------------------------
 Integral Job Info:
 Integral job number is                      11
 Integral operator is                         1
 short-range coefficients                     0
 long-range coefficients              100000000
 Omega coefficients                           0
 if combine SR and LR in K                    0
 Integral screening is                        0
 Integral computing path is                   2
 max size of driver memory is            800000
 size of driver memory is                776718
 size of scratch memory is             26248924
 max col of scratch BK array              10000
 max len of scratch array in speh3          662
 max len of scratch index in speh4           32
 max int batch size is                      520
 min int batch size is                       52
 fixed nKL is                                52
 max L of basis functions is                  3
 order of int derivative is                   0
 number of shells is                        140
 number of basis is                         448
 number of cartesian basis is               448
 number of contracted shell pairs          8028
 number of primitive shell pairs          28526
 maxK2 (contraction) of shell pair          121
 max number of K2 of shell pair               1
 max number of CS2 of shell pair           1048
 max number of PS2 of shell pair           3108
 mem total for path MDJ                  223748
 -------------------------------------------------------
 Smallest overlap matrix eigenvalue = 5.17E-05

 Scale SEOQF with 1.000000e-01/1.000000e+00/1.000000e-01

 Standard Electronic Orientation quadrupole field applied
 Nucleus-field energy     =     0.0000000042 hartrees
 Guess from superposition of atomic densities
 Warning:  Energy on first SCF cycle will be non-variational
 A restricted Hartree-Fock SCF calculation will be
 performed using Pulay DIIS extrapolation
 SCF converges when DIIS error is below 1.0E-08
 using 16 threads for integral computing 
 ---------------------------------------
  Cycle       Energy         DIIS Error
 ---------------------------------------
    1   -1106.0328506501      2.98E-02
    2   -1095.6339619172      1.19E-02
    3   -1101.2100747767      4.06E-03
    4   -1101.4953617091      2.20E-03
    5   -1101.5895725988      5.18E-04
    6   -1101.5953055729      1.63E-04
    7   -1101.5961507696      4.47E-05
    8   -1101.5962837020      2.18E-05
    9   -1101.5963281776      9.57E-06
   10   -1101.5963369281      3.02E-06
   11   -1101.5963375148      1.39E-06
   12   -1101.5963375481      2.64E-07
   13   -1101.5963375401      8.56E-08
   14   -1101.5963375403      3.15E-08
   15   -1101.5963375406      1.46E-08
   16   -1101.5963375439      4.64E-09 Convergence criterion met
 ---------------------------------------
 SCF time:  CPU 643.25 s  wall 40.26 s
 SCF   energy in the final basis set = -1101.5963375439
 Total energy in the final basis set = -1101.5963375439
 
 Components of the MP2 correlation energy:
        aaaa  correlation energy =        -0.2326020274 au
        abab  correlation energy =        -1.3510766200 au
        bbbb  correlation energy =        -0.2326020274 au
        non-Brillouin singles    =        -0.0000000000 au

 Total  MP2   correlation energy =        -1.8162806747 au
        MP2         total energy =     -1103.4126182186 au

  Entering Z-vector solver.
   1         0           1      0.000268    0.000268
   2         0           1      0.000118    0.000118
   3         0           1      0.000048    0.000048
   4         0           1      0.000022    0.000022
   5         0           1      0.000007    0.000007
   6         0           1      0.000002    0.000002
   7         1           0      0.000000    0.000000    Roots Converged
 
 --------------------------------------------------------------
             Orbital Energies (a.u.) and Symmetries
 --------------------------------------------------------------
 Warning : Irrep of orbital(   1) could not be determined
 Warning : Irrep of orbital(   2) could not be determined
 
 Alpha MOs, Restricted
 -- Occupied --                  
-91.984 -91.984 -11.276 -11.275 -11.261 -11.261 -11.239 -11.239
  0 xxx   0 xxx   1 A     1 B     2 B     2 A     3 B     3 A                  
-11.237 -11.237  -8.986  -8.986  -6.667  -6.667  -6.666  -6.666
  4 B     4 A     5 B     5 A     6 B     6 A     7 B     7 A                  
 -6.666  -6.666  -1.197  -1.166  -1.036  -1.001  -0.984  -0.948
  8 A     8 B     9 A     9 B    10 A    11 A    10 B    11 B                  
 -0.810  -0.780  -0.746  -0.717  -0.709  -0.644  -0.575  -0.572
 12 A    13 A    12 B    13 B    14 A    14 B    15 A    16 A                  
 -0.559  -0.555  -0.543  -0.512  -0.510  -0.491  -0.462  -0.378
 15 B    16 B    17 A    18 A    17 B    19 A    18 B    19 B                  
 -0.357  -0.345  -0.277
 20 B    20 A    21 A                                                          
 -- Virtual --                   
  0.070   0.140   0.153   0.153   0.159   0.173   0.177   0.180
 21 B    22 A    23 A    22 B    24 A    25 A    23 B    24 B                  
  0.199   0.218   0.220   0.244   0.255   0.299   0.304   0.353
 26 A    27 A    25 B    28 A    26 B    27 B    29 A    30 A                  
  0.361   0.366   0.369   0.378   0.388   0.403   0.420   0.431
 28 B    31 A    32 A    29 B    30 B    31 B    32 B    33 A                  
  0.442   0.450   0.466   0.466   0.480   0.487   0.516   0.526
 33 B    34 A    34 B    35 A    36 A    35 B    37 A    36 B                  
  0.527   0.535   0.537   0.544   0.554   0.559   0.571   0.576
 38 A    37 B    39 A    38 B    40 A    39 B    40 B    41 B                  
  0.578   0.585   0.600   0.600   0.609   0.611   0.618   0.625
 41 A    42 A    42 B    43 A    44 A    43 B    45 A    44 B                  
  0.638   0.638   0.651   0.666   0.667   0.702   0.730   0.750
 46 A    45 B    47 A    48 A    46 B    47 B    49 A    48 B                  
  0.751   0.771   0.786   0.798   0.821   0.821   0.838   0.853
 50 A    51 A    49 B    50 B    52 A    51 B    53 A    52 B                  
  0.861   0.876   0.887   0.906   0.917   0.934   0.937   0.952
 54 A    53 B    55 A    56 A    54 B    55 B    57 A    58 A                  
  0.955   0.993   0.995   1.011   1.059   1.061   1.078   1.083
 56 B    57 B    58 B    59 A    59 B    60 A    61 A    60 B                  
  1.095   1.099   1.105   1.114   1.126   1.151   1.170   1.174
 62 A    61 B    62 B    63 A    63 B    64 A    65 A    64 B                  
  1.196   1.213   1.215   1.234   1.248   1.248   1.258   1.267
 65 B    66 A    66 B    67 A    68 A    67 B    68 B    69 A                  
  1.294   1.307   1.317   1.322   1.354   1.403   1.428   1.429
 69 B    70 B    70 A    71 A    72 A    71 B    72 B    73 A                  
  1.436   1.468   1.478   1.489   1.490   1.508   1.520   1.537
 74 A    73 B    75 A    74 B    76 A    77 A    75 B    76 B                  
  1.552   1.563   1.563   1.598   1.604   1.624   1.630   1.633
 77 B    78 B    78 A    79 A    80 A    79 B    80 B    81 A                  
  1.657   1.661   1.731   1.742   1.747   1.763   1.792   1.830
 82 A    81 B    82 B    83 A    83 B    84 A    85 A    84 B                  
  1.844   1.858   1.863   1.889   1.908   1.923   1.954   1.958
 85 B    86 A    86 B    87 B    87 A    88 A    88 B    89 A                  
  1.975   1.992   2.049   2.067   2.090   2.129   2.134   2.149
 89 B    90 A    91 A    90 B    91 B    92 A    93 A    92 B                  
  2.163   2.191   2.203   2.212   2.215   2.236   2.266   2.275
 93 B    94 A    95 A    96 A    94 B    95 B    96 B    97 B                  
  2.279   2.285   2.330   2.407   2.411   2.434   2.441   2.472
 97 A    98 A    98 B    99 A    99 B   100 A   100 B   101 B                  
  2.483   2.515   2.517   2.526   2.551   2.557   2.589   2.598
101 A   102 A   102 B   103 A   104 A   103 B   105 A   104 B                  
  2.666   2.667   2.676   2.681   2.712   2.744   2.748   2.768
106 A   105 B   107 A   106 B   108 A   107 B   109 A   110 A                  
  2.770   2.786   2.797   2.801   2.826   2.847   2.876   2.902
108 B   111 A   109 B   110 B   111 B   112 A   112 B   113 B                  
  2.905   2.917   2.926   2.931   2.988   3.005   3.009   3.035
113 A   114 A   115 A   114 B   115 B   116 A   117 A   116 B                  
  3.048   3.080   3.100   3.105   3.144   3.146   3.164   3.186
117 B   118 A   118 B   119 A   119 B   120 A   121 A   120 B                  
  3.212   3.222   3.224   3.236   3.256   3.271   3.277   3.289
121 B   122 A   122 B   123 A   123 B   124 B   124 A   125 A                  
  3.302   3.312   3.317   3.322   3.331   3.359   3.360   3.397
125 B   126 A   127 A   126 B   128 A   127 B   129 A   128 B                  
  3.410   3.416   3.427   3.439   3.442   3.448   3.469   3.478
130 A   129 B   131 A   132 A   130 B   133 A   131 B   134 A                  
  3.490   3.499   3.510   3.513   3.525   3.527   3.533   3.543
132 B   133 B   134 B   135 A   136 A   137 A   135 B   136 B                  
  3.552   3.566   3.570   3.590   3.592   3.601   3.643   3.668
137 B   138 B   138 A   139 A   139 B   140 A   140 B   141 B                  
  3.680   3.706   3.706   3.728   3.732   3.758   3.768   3.785
141 A   142 A   142 B   143 B   143 A   144 B   144 A   145 A                  
  3.826   3.841   3.880   3.885   3.891   3.900   3.934   3.961
146 A   145 B   147 A   146 B   148 A   147 B   148 B   149 A                  
  3.969   3.984   3.992   4.003   4.013   4.018   4.046   4.050
149 B   150 B   150 A   151 A   152 A   151 B   153 A   152 B                  
  4.080   4.124   4.129   4.142   4.164   4.171   4.185   4.186
154 A   153 B   154 B   155 A   156 A   155 B   157 A   156 B                  
  4.191   4.209   4.223   4.262   4.269   4.298   4.298   4.320
158 A   159 A   157 B   158 B   160 A   161 A   159 B   160 B                  
  4.336   4.352   4.425   4.447   4.456   4.476   4.486   4.489
161 B   162 A   162 B   163 A   164 A   163 B   164 B   165 A                  
  4.512   4.600   4.614   4.626   4.651   4.661   4.686   4.691
166 A   165 B   166 B   167 A   168 A   167 B   169 A   168 B                  
  4.697   4.731   4.739   4.765   4.800   4.837   4.854   4.855
170 A   171 A   169 B   170 B   172 A   173 A   171 B   174 A                  
  4.917   4.960   5.005   5.045   5.055   5.068   5.069   5.096
172 B   173 B   175 A   174 B   176 A   177 A   175 B   178 A                  
  5.148   5.164   5.180   5.248   5.253   5.291   5.328   5.359
176 B   177 B   179 A   178 B   179 B   180 A   181 A   180 B                  
  5.383   5.426   5.450   5.458   5.583   5.617   5.628   5.690
182 A   181 B   183 A   182 B   184 A   183 B   184 B   185 A                  
  5.797   5.877   5.975   6.085   6.088   6.142   6.155   6.245
186 A   185 B   187 A   188 A   186 B   189 A   187 B   188 B                  
  6.497   6.526   6.623   6.670   6.869   9.331  10.969  11.698
189 B   190 A   190 B   191 A   191 B   192 A   192 B   193 A                  
 12.465  13.256  14.041  14.390  15.177
193 B   194 A   194 B   195 A   195 B                                          
 
 Beta MOs, Restricted
 -- Occupied --                  
-91.984 -91.984 -11.276 -11.275 -11.261 -11.261 -11.239 -11.239
  0 xxx   0 xxx   1 A     1 B     2 B     2 A     3 B     3 A                  
-11.237 -11.237  -8.986  -8.986  -6.667  -6.667  -6.666  -6.666
  4 B     4 A     5 B     5 A     6 B     6 A     7 B     7 A                  
 -6.666  -6.666  -1.197  -1.166  -1.036  -1.001  -0.984  -0.948
  8 A     8 B     9 A     9 B    10 A    11 A    10 B    11 B                  
 -0.810  -0.780  -0.746  -0.717  -0.709  -0.644  -0.575  -0.572
 12 A    13 A    12 B    13 B    14 A    14 B    15 A    16 A                  
 -0.559  -0.555  -0.543  -0.512  -0.510  -0.491  -0.462  -0.378
 15 B    16 B    17 A    18 A    17 B    19 A    18 B    19 B                  
 -0.357  -0.345  -0.277
 20 B    20 A    21 A                                                          
 -- Virtual --                   
  0.070   0.140   0.153   0.153   0.159   0.173   0.177   0.180
 21 B    22 A    23 A    22 B    24 A    25 A    23 B    24 B                  
  0.199   0.218   0.220   0.244   0.255   0.299   0.304   0.353
 26 A    27 A    25 B    28 A    26 B    27 B    29 A    30 A                  
  0.361   0.366   0.369   0.378   0.388   0.403   0.420   0.431
 28 B    31 A    32 A    29 B    30 B    31 B    32 B    33 A                  
  0.442   0.450   0.466   0.466   0.480   0.487   0.516   0.526
 33 B    34 A    34 B    35 A    36 A    35 B    37 A    36 B                  
  0.527   0.535   0.537   0.544   0.554   0.559   0.571   0.576
 38 A    37 B    39 A    38 B    40 A    39 B    40 B    41 B                  
  0.578   0.585   0.600   0.600   0.609   0.611   0.618   0.625
 41 A    42 A    42 B    43 A    44 A    43 B    45 A    44 B                  
  0.638   0.638   0.651   0.666   0.667   0.702   0.730   0.750
 46 A    45 B    47 A    48 A    46 B    47 B    49 A    48 B                  
  0.751   0.771   0.786   0.798   0.821   0.821   0.838   0.853
 50 A    51 A    49 B    50 B    52 A    51 B    53 A    52 B                  
  0.861   0.876   0.887   0.906   0.917   0.934   0.937   0.952
 54 A    53 B    55 A    56 A    54 B    55 B    57 A    58 A                  
  0.955   0.993   0.995   1.011   1.059   1.061   1.078   1.083
 56 B    57 B    58 B    59 A    59 B    60 A    61 A    60 B                  
  1.095   1.099   1.105   1.114   1.126   1.151   1.170   1.174
 62 A    61 B    62 B    63 A    63 B    64 A    65 A    64 B                  
  1.196   1.213   1.215   1.234   1.248   1.248   1.258   1.267
 65 B    66 A    66 B    67 A    68 A    67 B    68 B    69 A                  
  1.294   1.307   1.317   1.322   1.354   1.403   1.428   1.429
 69 B    70 B    70 A    71 A    72 A    71 B    72 B    73 A                  
  1.436   1.468   1.478   1.489   1.490   1.508   1.520   1.537
 74 A    73 B    75 A    74 B    76 A    77 A    75 B    76 B                  
  1.552   1.563   1.563   1.598   1.604   1.624   1.630   1.633
 77 B    78 B    78 A    79 A    80 A    79 B    80 B    81 A                  
  1.657   1.661   1.731   1.742   1.747   1.763   1.792   1.830
 82 A    81 B    82 B    83 A    83 B    84 A    85 A    84 B                  
  1.844   1.858   1.863   1.889   1.908   1.923   1.954   1.958
 85 B    86 A    86 B    87 B    87 A    88 A    88 B    89 A                  
  1.975   1.992   2.049   2.067   2.090   2.129   2.134   2.149
 89 B    90 A    91 A    90 B    91 B    92 A    93 A    92 B                  
  2.163   2.191   2.203   2.212   2.215   2.236   2.266   2.275
 93 B    94 A    95 A    96 A    94 B    95 B    96 B    97 B                  
  2.279   2.285   2.330   2.407   2.411   2.434   2.441   2.472
 97 A    98 A    98 B    99 A    99 B   100 A   100 B   101 B                  
  2.483   2.515   2.517   2.526   2.551   2.557   2.589   2.598
101 A   102 A   102 B   103 A   104 A   103 B   105 A   104 B                  
  2.666   2.667   2.676   2.681   2.712   2.744   2.748   2.768
106 A   105 B   107 A   106 B   108 A   107 B   109 A   110 A                  
  2.770   2.786   2.797   2.801   2.826   2.847   2.876   2.902
108 B   111 A   109 B   110 B   111 B   112 A   112 B   113 B                  
  2.905   2.917   2.926   2.931   2.988   3.005   3.009   3.035
113 A   114 A   115 A   114 B   115 B   116 A   117 A   116 B                  
  3.048   3.080   3.100   3.105   3.144   3.146   3.164   3.186
117 B   118 A   118 B   119 A   119 B   120 A   121 A   120 B                  
  3.212   3.222   3.224   3.236   3.256   3.271   3.277   3.289
121 B   122 A   122 B   123 A   123 B   124 B   124 A   125 A                  
  3.302   3.312   3.317   3.322   3.331   3.359   3.360   3.397
125 B   126 A   127 A   126 B   128 A   127 B   129 A   128 B                  
  3.410   3.416   3.427   3.439   3.442   3.448   3.469   3.478
130 A   129 B   131 A   132 A   130 B   133 A   131 B   134 A                  
  3.490   3.499   3.510   3.513   3.525   3.527   3.533   3.543
132 B   133 B   134 B   135 A   136 A   137 A   135 B   136 B                  
  3.552   3.566   3.570   3.590   3.592   3.601   3.643   3.668
137 B   138 B   138 A   139 A   139 B   140 A   140 B   141 B                  
  3.680   3.706   3.706   3.728   3.732   3.758   3.768   3.785
141 A   142 A   142 B   143 B   143 A   144 B   144 A   145 A                  
  3.826   3.841   3.880   3.885   3.891   3.900   3.934   3.961
146 A   145 B   147 A   146 B   148 A   147 B   148 B   149 A                  
  3.969   3.984   3.992   4.003   4.013   4.018   4.046   4.050
149 B   150 B   150 A   151 A   152 A   151 B   153 A   152 B                  
  4.080   4.124   4.129   4.142   4.164   4.171   4.185   4.186
154 A   153 B   154 B   155 A   156 A   155 B   157 A   156 B                  
  4.191   4.209   4.223   4.262   4.269   4.298   4.298   4.320
158 A   159 A   157 B   158 B   160 A   161 A   159 B   160 B                  
  4.336   4.352   4.425   4.447   4.456   4.476   4.486   4.489
161 B   162 A   162 B   163 A   164 A   163 B   164 B   165 A                  
  4.512   4.600   4.614   4.626   4.651   4.661   4.686   4.691
166 A   165 B   166 B   167 A   168 A   167 B   169 A   168 B                  
  4.697   4.731   4.739   4.765   4.800   4.837   4.854   4.855
170 A   171 A   169 B   170 B   172 A   173 A   171 B   174 A                  
  4.917   4.960   5.005   5.045   5.055   5.068   5.069   5.096
172 B   173 B   175 A   174 B   176 A   177 A   175 B   178 A                  
  5.148   5.164   5.180   5.248   5.253   5.291   5.328   5.359
176 B   177 B   179 A   178 B   179 B   180 A   181 A   180 B                  
  5.383   5.426   5.450   5.458   5.583   5.617   5.628   5.690
182 A   181 B   183 A   182 B   184 A   183 B   184 B   185 A                  
  5.797   5.877   5.975   6.085   6.088   6.142   6.155   6.245
186 A   185 B   187 A   188 A   186 B   189 A   187 B   188 B                  
  6.497   6.526   6.623   6.670   6.869   9.331  10.969  11.698
189 B   190 A   190 B   191 A   191 B   192 A   192 B   193 A                  
 12.465  13.256  14.041  14.390  15.177
193 B   194 A   194 B   195 A   195 B                                          
 --------------------------------------------------------------
 
          Ground-State Mulliken Net Atomic Charges

     Atom                 Charge (a.u.)
  ----------------------------------------
      1 S                     0.101071
      2 C                    -0.236983
      3 C                    -0.203706
      4 C                    -0.183843
      5 C                    -0.000637
      6 H                     0.164197
      7 C                    -0.000633
      8 S                     0.101071
      9 C                    -0.183846
     10 C                    -0.236985
     11 C                    -0.203702
     12 H                     0.173546
     13 H                     0.186354
     14 H                     0.173545
     15 H                     0.186354
     16 H                     0.164197
  ----------------------------------------
  Sum of atomic charges =    -0.000000

 -----------------------------------------------------------------
                    Cartesian Multipole Moments
 -----------------------------------------------------------------
    Charge (ESU x 10^10)
                -0.0000
    Dipole Moment (Debye)
         X      -0.0000      Y       0.0000      Z      -0.7136
       Tot       0.7136
    Quadrupole Moments (Debye-Ang)
        XX     -61.0642     XY      -0.3106     YY     -78.0217
        XZ       0.0000     YZ      -0.0000     ZZ     -67.4152
    Octopole Moments (Debye-Ang^2)
       XXX      -0.0000    XXY       0.0000    XYY      -0.0000
       YYY       0.0000    XXZ       5.6489    XYZ       2.4374
       YYZ       3.9869    XZZ       0.0000    YZZ       0.0000
       ZZZ      -6.6169
    Hexadecapole Moments (Debye-Ang^3)
      XXXX   -1814.7262   XXXY      -3.0080   XXYY    -402.5376
      XYYY       1.9239   YYYY     -99.6245   XXXZ       0.0000
      XXYZ      -0.0000   XYYZ       0.0000   YYYZ      -0.0000
      XXZZ    -392.8577   XYZZ      -2.7871   YYZZ    -119.0791
      XZZZ       0.0000   YZZZ      -0.0000   ZZZZ    -536.9115
 -----------------------------------------------------------------
 DrvMan is completing analytic gradient of the MP2 energy
 MP2 relaxed dipole moment
            1
    1  -0.0000000
    2   0.0000000
    3  -0.2807363
	Magnitude:	 0.281 au	 0.714 Debye
 MP2 energy read as -1103.412618
 Full Analytical Gradient of MP2 Energy (in au.)
             1             2             3             4             5
    1   -0.00187150   -0.00066072    0.00049342    0.00071211    0.00014711
    2    0.00016275   -0.00033277    0.00026855    0.00098583   -0.00058544
    3    0.00052753    0.00000989   -0.00016660    0.00043418   -0.00082975
             6             7             8             9            10
    1   -0.00043835   -0.00014711    0.00187150   -0.00071211    0.00066072
    2   -0.00027974    0.00058544   -0.00016275   -0.00098583    0.00033277
    3    0.00000301   -0.00082975    0.00052753    0.00043418    0.00000989
            11            12            13            14            15
    1   -0.00049342   -0.00004170    0.00009455    0.00004170   -0.00009455
    2   -0.00026855    0.00003554   -0.00023774   -0.00003554    0.00023774
    3   -0.00016661    0.00003854   -0.00001680    0.00003854   -0.00001680
            16
    1    0.00043835
    2    0.00027974
    3    0.00000301
 Gradient time:  CPU 1.50 s  wall 0.10 s
 Geometry Optimization Parameters
   NAtoms,    NIC,     NZ,  NCons,   NDum,   NFix, NCnnct, MaxDiis
       16     111       0       1       0       0       0       0


** CONSTRAINED OPTIMIZATION IN DELOCALIZED INTERNAL COORDINATES **
   Searching for a Minimum

   Optimization Cycle:   1

                       Coordinates (Angstroms)
     ATOM                X               Y               Z
      1  S         1.5974779649    0.1196608586    1.1288791811
      2  C         3.0996306971    0.0183879986    0.3248990787
      3  C         2.9353074767   -0.0925436719   -1.0333945660
      4  C         1.5840782165   -0.1083914575   -1.4136323389
      5  C         0.7185221434   -0.0067352818   -0.3444821950
      6  H         1.2377017462   -0.2131427189   -2.4263627031
      7  C        -0.7185221434    0.0067352818   -0.3444821950
      8  S        -1.5974779649   -0.1196608586    1.1288791811
      9  C        -1.5840782165    0.1083914575   -1.4136323389
     10  C        -3.0996306971   -0.0183879986    0.3248990787
     11  C        -2.9353074767    0.0925436719   -1.0333945660
     12  H        -3.7588564344    0.1679172899   -1.7191411888
     13  H         4.0141368850    0.0457442017    0.8830971230
     14  H         3.7588564344   -0.1679172899   -1.7191411888
     15  H        -4.0141368850   -0.0457442017    0.8830971230
     16  H        -1.2377017462    0.2131427189   -2.4263627031
   Point Group: c2    Number of degrees of freedom:    22


   Energy is  -1103.412618219

              Constraints and their Current Values
                                        Value     Constraint
   Dihedral:        4   5   7   9      -10.000      -10.000

 Attempting to Generate Delocalized Internal Coordinates

 21 Hessian modes will be used to form the next step
  Hessian Eigenvalues:
     0.045000    0.045000    0.045000    0.045002    0.045003    0.045012
     0.159945    0.159993    0.160000    0.221308    0.238060    0.249999
     0.326324    0.340049    0.365509    0.366895    0.370094    0.399848
     0.435412    0.463135    0.495504

 Minimum Search - Taking Simple RFO Step
 Searching for Lamda that Minimizes Along All modes
 Value Taken    Lamda =  -0.00029013
 Step Taken.  Stepsize is  0.042946

                             Maximum     Tolerance    Cnvgd?
         Gradient           0.006630      0.000300      NO
         Displacement       0.027309      0.001200      NO
         Energy change     *********      0.000001      NO


 New Cartesian Coordinates Obtained by Inverse Iteration

 Displacement from previous Coordinates is:  0.195024
 ----------------------------------------------------------------
             Standard Nuclear Orientation (Angstroms)
    I     Atom           X                Y                Z
 ----------------------------------------------------------------
    1      S       1.6240429060     0.1200388228     1.1390284511
    2      C       3.1145857419     0.0224680865     0.3135490289
    3      C       2.9278700574    -0.0963367292    -1.0408665069
    4      C       1.5712231671    -0.1149262777    -1.4004490987
    5      C       0.7194723836    -0.0093439650    -0.3201669166
    6      H       1.2133249090    -0.2195742162    -2.4089206151
    7      C      -0.7194723836     0.0093439650    -0.3201669166
    8      S      -1.6240429060    -0.1200388228     1.1390284511
    9      C      -1.5712231671     0.1149262777    -1.4004490987
   10      C      -3.1145857419    -0.0224680865     0.3135490289
   11      C      -2.9278700574     0.0963367292    -1.0408665069
   12      H      -3.7402860403     0.1711800190    -1.7398019707
   13      H       4.0372925663     0.0570164527     0.8574900191
   14      H       3.7402860403    -0.1711800190    -1.7398019707
   15      H      -4.0372925663    -0.0570164527     0.8574900191
   16      H      -1.2133249090     0.2195742162    -2.4089206151
 ----------------------------------------------------------------
 Molecular Point Group                 C2    NOp =  2
 Largest Abelian Subgroup              C2    NOp =  2
 Nuclear Repulsion Energy =   639.5674606432 hartrees
 There are       43 alpha and       43 beta electrons
 Applying Cartesian multipole field
    Component          Value
    ---------          -----
     (2,0,0)        1.00000E-11
     (0,2,0)        2.00000E-10
     (0,0,2)       -3.00000E-11
 Nucleus-field energy     =     0.0000000044 hartrees
 Requested basis set is cc-pVTZ
 There are 140 shells and 392 basis functions
 A cutoff of  1.0D-11 yielded   8030 shell pairs
 There are     62346 function pairs (     81282 Cartesian)
 Smallest overlap matrix eigenvalue = 5.24E-05
 Guess MOs from SCF MO coefficient file
 Reading MOs from coefficient file
 Reading MOs from coefficient file
 A restricted Hartree-Fock SCF calculation will be
 performed using Pulay DIIS extrapolation
 SCF converges when DIIS error is below 1.0E-08
 Geometry optimization detected.  Setting ReadMinima to 0
 Setting SaveMinima to 0
 using 16 threads for integral computing 
 ---------------------------------------
  Cycle       Energy         DIIS Error
 ---------------------------------------
    1   -1101.5913764282      3.04E-04
    2   -1101.5970861904      4.56E-05
    3   -1101.5971468930      2.00E-05
    4   -1101.5971562697      9.29E-06
    5   -1101.5971589572      1.72E-06
    6   -1101.5971591157      8.98E-07
    7   -1101.5971591486      3.04E-07
    8   -1101.5971591525      1.10E-07
    9   -1101.5971591531      3.25E-08
   10   -1101.5971591534      1.16E-08
   11   -1101.5971591534      4.23E-09 Convergence criterion met
 ---------------------------------------
 SCF time:  CPU 752.36 s  wall 47.06 s
 SCF   energy in the final basis set = -1101.5971591534
 Total energy in the final basis set = -1101.5971591534
 
 Components of the MP2 correlation energy:
        aaaa  correlation energy =        -0.2325112005 au
        abab  correlation energy =        -1.3508519321 au
        bbbb  correlation energy =        -0.2325112005 au
        non-Brillouin singles    =        -0.0000000000 au

 Total  MP2   correlation energy =        -1.8158743331 au
        MP2         total energy =     -1103.4130334865 au

  Entering Z-vector solver.
   1         0           1      0.000268    0.000268
   2         0           1      0.000118    0.000118
   3         0           1      0.000048    0.000048
   4         0           1      0.000022    0.000022
   5         0           1      0.000007    0.000007
   6         0           1      0.000002    0.000002
   7         1           0      0.000000    0.000000    Roots Converged
 
 --------------------------------------------------------------
             Orbital Energies (a.u.) and Symmetries
 --------------------------------------------------------------
 
 Alpha MOs, Restricted
 -- Occupied --                  
-91.985 -91.985 -11.276 -11.275 -11.261 -11.261 -11.239 -11.239
  1 A     1 B     2 A     2 B     3 B     3 A     4 B     4 A                  
-11.237 -11.237  -8.986  -8.986  -6.667  -6.667  -6.667  -6.667
  5 B     5 A     6 B     6 A     7 B     7 A     8 B     8 A                  
 -6.666  -6.666  -1.197  -1.167  -1.036  -1.001  -0.984  -0.948
  9 A     9 B    10 A    10 B    11 A    12 A    11 B    12 B                  
 -0.810  -0.780  -0.746  -0.717  -0.709  -0.645  -0.576  -0.572
 13 A    14 A    13 B    14 B    15 A    15 B    16 A    17 A                  
 -0.559  -0.555  -0.543  -0.512  -0.511  -0.489  -0.463  -0.378
 16 B    17 B    18 A    19 A    18 B    20 A    19 B    20 B                  
 -0.356  -0.345  -0.277
 21 B    21 A    22 A                                                          
 -- Virtual --                   
  0.070   0.140   0.153   0.153   0.159   0.173   0.177   0.180
 22 B    23 A    24 A    23 B    25 A    26 A    24 B    25 B                  
  0.199   0.217   0.220   0.244   0.256   0.297   0.304   0.353
 27 A    28 A    26 B    29 A    27 B    28 B    30 A    31 A                  
  0.360   0.367   0.370   0.378   0.387   0.403   0.418   0.431
 29 B    32 A    33 A    30 B    31 B    32 B    33 B    34 A                  
  0.441   0.450   0.466   0.467   0.480   0.488   0.516   0.526
 34 B    35 A    35 B    36 A    37 A    36 B    38 A    37 B                  
  0.528   0.535   0.537   0.543   0.551   0.562   0.572   0.577
 39 A    38 B    40 A    39 B    41 A    40 B    41 B    42 B                  
  0.577   0.585   0.599   0.601   0.610   0.611   0.617   0.626
 42 A    43 A    43 B    44 A    45 A    44 B    46 A    45 B                  
  0.637   0.638   0.652   0.664   0.668   0.700   0.730   0.749
 47 A    46 B    48 A    49 A    47 B    48 B    50 A    49 B                  
  0.752   0.772   0.786   0.797   0.820   0.821   0.838   0.853
 51 A    52 A    50 B    51 B    53 A    52 B    54 A    53 B                  
  0.861   0.877   0.889   0.907   0.916   0.933   0.934   0.954
 55 A    54 B    56 A    57 A    55 B    56 B    58 A    57 B                  
  0.955   0.991   0.995   1.011   1.059   1.068   1.080   1.083
 59 A    58 B    59 B    60 A    60 B    61 A    62 A    61 B                  
  1.093   1.099   1.105   1.113   1.126   1.147   1.171   1.174
 63 A    62 B    63 B    64 A    64 B    65 A    66 A    65 B                  
  1.194   1.214   1.215   1.232   1.244   1.248   1.258   1.264
 66 B    67 B    67 A    68 A    69 A    68 B    69 B    70 A                  
  1.298   1.305   1.317   1.323   1.355   1.402   1.428   1.428
 70 B    71 B    71 A    72 A    73 A    72 B    74 A    73 B                  
  1.433   1.468   1.477   1.489   1.491   1.507   1.521   1.539
 75 A    74 B    76 A    75 B    77 A    78 A    76 B    77 B                  
  1.553   1.562   1.564   1.597   1.605   1.624   1.631   1.632
 78 B    79 B    79 A    80 A    81 A    80 B    82 A    81 B                  
  1.656   1.663   1.732   1.741   1.749   1.762   1.796   1.833
 83 A    82 B    83 B    84 A    84 B    85 A    86 A    85 B                  
  1.844   1.853   1.864   1.889   1.904   1.923   1.950   1.957
 86 B    87 A    87 B    88 B    88 A    89 A    89 B    90 A                  
  1.967   1.990   2.047   2.068   2.093   2.130   2.133   2.136
 90 B    91 A    92 A    91 B    92 B    93 A    94 A    93 B                  
  2.162   2.189   2.203   2.210   2.215   2.236   2.266   2.276
 94 B    95 A    96 A    97 A    95 B    96 B    97 B    98 B                  
  2.279   2.285   2.324   2.407   2.412   2.433   2.441   2.471
 98 A    99 A    99 B   100 A   100 B   101 A   101 B   102 B                  
  2.482   2.515   2.516   2.525   2.552   2.557   2.589   2.601
102 A   103 B   103 A   104 A   105 A   104 B   106 A   105 B                  
  2.666   2.666   2.673   2.682   2.712   2.743   2.746   2.768
107 A   106 B   108 A   107 B   109 A   108 B   110 A   111 A                  
  2.771   2.785   2.798   2.800   2.826   2.846   2.875   2.904
109 B   112 A   110 B   111 B   112 B   113 A   113 B   114 B                  
  2.906   2.917   2.926   2.932   2.988   3.003   3.009   3.035
114 A   115 A   116 A   115 B   116 B   117 A   118 A   117 B                  
  3.045   3.078   3.099   3.102   3.139   3.146   3.163   3.188
118 B   119 A   119 B   120 A   120 B   121 A   122 A   121 B                  
  3.213   3.221   3.224   3.239   3.254   3.272   3.278   3.285
122 B   123 A   123 B   124 A   124 B   125 B   125 A   126 A                  
  3.303   3.311   3.317   3.323   3.331   3.356   3.357   3.397
126 B   127 A   128 A   127 B   129 A   130 A   128 B   129 B                  
  3.411   3.412   3.429   3.439   3.442   3.447   3.469   3.477
131 A   130 B   132 A   133 A   131 B   134 A   132 B   135 A                  
  3.489   3.500   3.512   3.513   3.523   3.527   3.534   3.545
133 B   134 B   136 A   135 B   137 A   138 A   136 B   137 B                  
  3.552   3.564   3.567   3.586   3.587   3.599   3.642   3.669
138 B   139 B   139 A   140 B   140 A   141 A   141 B   142 B                  
  3.680   3.705   3.706   3.728   3.729   3.757   3.766   3.782
142 A   143 B   143 A   144 B   144 A   145 B   145 A   146 A                  
  3.824   3.840   3.880   3.884   3.888   3.898   3.935   3.963
147 A   146 B   148 A   147 B   149 A   148 B   149 B   150 A                  
  3.973   3.984   3.992   4.004   4.013   4.021   4.044   4.051
150 B   151 B   151 A   152 A   153 A   152 B   154 A   153 B                  
  4.078   4.125   4.130   4.140   4.165   4.171   4.185   4.187
155 A   154 B   155 B   156 A   157 A   156 B   157 B   158 A                  
  4.194   4.208   4.219   4.262   4.268   4.299   4.299   4.320
159 A   160 A   158 B   159 B   161 A   162 A   160 B   161 B                  
  4.341   4.355   4.426   4.449   4.457   4.475   4.488   4.491
162 B   163 A   163 B   164 A   165 A   164 B   165 B   166 A                  
  4.510   4.598   4.615   4.627   4.650   4.659   4.684   4.691
167 A   166 B   167 B   168 A   169 A   168 B   170 A   169 B                  
  4.699   4.730   4.742   4.765   4.802   4.836   4.851   4.859
171 A   172 A   170 B   171 B   173 A   174 A   175 A   172 B                  
  4.920   4.961   4.997   5.047   5.053   5.066   5.069   5.094
173 B   174 B   176 A   175 B   177 A   178 A   176 B   179 A                  
  5.149   5.161   5.184   5.246   5.253   5.292   5.327   5.357
177 B   178 B   180 A   179 B   180 B   181 A   182 A   181 B                  
  5.384   5.426   5.450   5.455   5.583   5.616   5.626   5.687
183 A   182 B   184 A   183 B   185 A   184 B   185 B   186 A                  
  5.793   5.878   5.976   6.084   6.085   6.143   6.153   6.247
187 A   186 B   188 A   187 B   189 A   190 A   188 B   189 B                  
  6.498   6.525   6.620   6.669   6.867   9.318  10.958  11.695
190 B   191 A   191 B   192 A   192 B   193 A   193 B   194 A                  
 12.444  13.249  14.044  14.390  15.159
194 B   195 A   195 B   196 A   196 B                                          
 
 Beta MOs, Restricted
 -- Occupied --                  
-91.985 -91.985 -11.276 -11.275 -11.261 -11.261 -11.239 -11.239
  1 A     1 B     2 A     2 B     3 B     3 A     4 B     4 A                  
-11.237 -11.237  -8.986  -8.986  -6.667  -6.667  -6.667  -6.667
  5 B     5 A     6 B     6 A     7 B     7 A     8 B     8 A                  
 -6.666  -6.666  -1.197  -1.167  -1.036  -1.001  -0.984  -0.948
  9 A     9 B    10 A    10 B    11 A    12 A    11 B    12 B                  
 -0.810  -0.780  -0.746  -0.717  -0.709  -0.645  -0.576  -0.572
 13 A    14 A    13 B    14 B    15 A    15 B    16 A    17 A                  
 -0.559  -0.555  -0.543  -0.512  -0.511  -0.489  -0.463  -0.378
 16 B    17 B    18 A    19 A    18 B    20 A    19 B    20 B                  
 -0.356  -0.345  -0.277
 21 B    21 A    22 A                                                          
 -- Virtual --                   
  0.070   0.140   0.153   0.153   0.159   0.173   0.177   0.180
 22 B    23 A    24 A    23 B    25 A    26 A    24 B    25 B                  
  0.199   0.217   0.220   0.244   0.256   0.297   0.304   0.353
 27 A    28 A    26 B    29 A    27 B    28 B    30 A    31 A                  
  0.360   0.367   0.370   0.378   0.387   0.403   0.418   0.431
 29 B    32 A    33 A    30 B    31 B    32 B    33 B    34 A                  
  0.441   0.450   0.466   0.467   0.480   0.488   0.516   0.526
 34 B    35 A    35 B    36 A    37 A    36 B    38 A    37 B                  
  0.528   0.535   0.537   0.543   0.551   0.562   0.572   0.577
 39 A    38 B    40 A    39 B    41 A    40 B    41 B    42 B                  
  0.577   0.585   0.599   0.601   0.610   0.611   0.617   0.626
 42 A    43 A    43 B    44 A    45 A    44 B    46 A    45 B                  
  0.637   0.638   0.652   0.664   0.668   0.700   0.730   0.749
 47 A    46 B    48 A    49 A    47 B    48 B    50 A    49 B                  
  0.752   0.772   0.786   0.797   0.820   0.821   0.838   0.853
 51 A    52 A    50 B    51 B    53 A    52 B    54 A    53 B                  
  0.861   0.877   0.889   0.907   0.916   0.933   0.934   0.954
 55 A    54 B    56 A    57 A    55 B    56 B    58 A    57 B                  
  0.955   0.991   0.995   1.011   1.059   1.068   1.080   1.083
 59 A    58 B    59 B    60 A    60 B    61 A    62 A    61 B                  
  1.093   1.099   1.105   1.113   1.126   1.147   1.171   1.174
 63 A    62 B    63 B    64 A    64 B    65 A    66 A    65 B                  
  1.194   1.214   1.215   1.232   1.244   1.248   1.258   1.264
 66 B    67 B    67 A    68 A    69 A    68 B    69 B    70 A                  
  1.298   1.305   1.317   1.323   1.355   1.402   1.428   1.428
 70 B    71 B    71 A    72 A    73 A    72 B    74 A    73 B                  
  1.433   1.468   1.477   1.489   1.491   1.507   1.521   1.539
 75 A    74 B    76 A    75 B    77 A    78 A    76 B    77 B                  
  1.553   1.562   1.564   1.597   1.605   1.624   1.631   1.632
 78 B    79 B    79 A    80 A    81 A    80 B    82 A    81 B                  
  1.656   1.663   1.732   1.741   1.749   1.762   1.796   1.833
 83 A    82 B    83 B    84 A    84 B    85 A    86 A    85 B                  
  1.844   1.853   1.864   1.889   1.904   1.923   1.950   1.957
 86 B    87 A    87 B    88 B    88 A    89 A    89 B    90 A                  
  1.967   1.990   2.047   2.068   2.093   2.130   2.133   2.136
 90 B    91 A    92 A    91 B    92 B    93 A    94 A    93 B                  
  2.162   2.189   2.203   2.210   2.215   2.236   2.266   2.276
 94 B    95 A    96 A    97 A    95 B    96 B    97 B    98 B                  
  2.279   2.285   2.324   2.407   2.412   2.433   2.441   2.471
 98 A    99 A    99 B   100 A   100 B   101 A   101 B   102 B                  
  2.482   2.515   2.516   2.525   2.552   2.557   2.589   2.601
102 A   103 B   103 A   104 A   105 A   104 B   106 A   105 B                  
  2.666   2.666   2.673   2.682   2.712   2.743   2.746   2.768
107 A   106 B   108 A   107 B   109 A   108 B   110 A   111 A                  
  2.771   2.785   2.798   2.800   2.826   2.846   2.875   2.904
109 B   112 A   110 B   111 B   112 B   113 A   113 B   114 B                  
  2.906   2.917   2.926   2.932   2.988   3.003   3.009   3.035
114 A   115 A   116 A   115 B   116 B   117 A   118 A   117 B                  
  3.045   3.078   3.099   3.102   3.139   3.146   3.163   3.188
118 B   119 A   119 B   120 A   120 B   121 A   122 A   121 B                  
  3.213   3.221   3.224   3.239   3.254   3.272   3.278   3.285
122 B   123 A   123 B   124 A   124 B   125 B   125 A   126 A                  
  3.303   3.311   3.317   3.323   3.331   3.356   3.357   3.397
126 B   127 A   128 A   127 B   129 A   130 A   128 B   129 B                  
  3.411   3.412   3.429   3.439   3.442   3.447   3.469   3.477
131 A   130 B   132 A   133 A   131 B   134 A   132 B   135 A                  
  3.489   3.500   3.512   3.513   3.523   3.527   3.534   3.545
133 B   134 B   136 A   135 B   137 A   138 A   136 B   137 B                  
  3.552   3.564   3.567   3.586   3.587   3.599   3.642   3.669
138 B   139 B   139 A   140 B   140 A   141 A   141 B   142 B                  
  3.680   3.705   3.706   3.728   3.729   3.757   3.766   3.782
142 A   143 B   143 A   144 B   144 A   145 B   145 A   146 A                  
  3.824   3.840   3.880   3.884   3.888   3.898   3.935   3.963
147 A   146 B   148 A   147 B   149 A   148 B   149 B   150 A                  
  3.973   3.984   3.992   4.004   4.013   4.021   4.044   4.051
150 B   151 B   151 A   152 A   153 A   152 B   154 A   153 B                  
  4.078   4.125   4.130   4.140   4.165   4.171   4.185   4.187
155 A   154 B   155 B   156 A   157 A   156 B   157 B   158 A                  
  4.194   4.208   4.219   4.262   4.268   4.299   4.299   4.320
159 A   160 A   158 B   159 B   161 A   162 A   160 B   161 B                  
  4.341   4.355   4.426   4.449   4.457   4.475   4.488   4.491
162 B   163 A   163 B   164 A   165 A   164 B   165 B   166 A                  
  4.510   4.598   4.615   4.627   4.650   4.659   4.684   4.691
167 A   166 B   167 B   168 A   169 A   168 B   170 A   169 B                  
  4.699   4.730   4.742   4.765   4.802   4.836   4.851   4.859
171 A   172 A   170 B   171 B   173 A   174 A   175 A   172 B                  
  4.920   4.961   4.997   5.047   5.053   5.066   5.069   5.094
173 B   174 B   176 A   175 B   177 A   178 A   176 B   179 A                  
  5.149   5.161   5.184   5.246   5.253   5.292   5.327   5.357
177 B   178 B   180 A   179 B   180 B   181 A   182 A   181 B                  
  5.384   5.426   5.450   5.455   5.583   5.616   5.626   5.687
183 A   182 B   184 A   183 B   185 A   184 B   185 B   186 A                  
  5.793   5.878   5.976   6.084   6.085   6.143   6.153   6.247
187 A   186 B   188 A   187 B   189 A   190 A   188 B   189 B                  
  6.498   6.525   6.620   6.669   6.867   9.318  10.958  11.695
190 B   191 A   191 B   192 A   192 B   193 A   193 B   194 A                  
 12.444  13.249  14.044  14.390  15.159
194 B   195 A   195 B   196 A   196 B                                          
 --------------------------------------------------------------
 
          Ground-State Mulliken Net Atomic Charges

     Atom                 Charge (a.u.)
  ----------------------------------------
      1 S                     0.101249
      2 C                    -0.235909
      3 C                    -0.206634
      4 C                    -0.179889
      5 C                    -0.004319
      6 H                     0.164865
      7 C                    -0.004319
      8 S                     0.101249
      9 C                    -0.179889
     10 C                    -0.235909
     11 C                    -0.206634
     12 H                     0.173941
     13 H                     0.186696
     14 H                     0.173941
     15 H                     0.186696
     16 H                     0.164865
  ----------------------------------------
  Sum of atomic charges =     0.000000

 -----------------------------------------------------------------
                    Cartesian Multipole Moments
 -----------------------------------------------------------------
    Charge (ESU x 10^10)
                 0.0000
    Dipole Moment (Debye)
         X       0.0000      Y      -0.0000      Z      -0.7369
       Tot       0.7369
    Quadrupole Moments (Debye-Ang)
        XX     -60.9612     XY      -0.2284     YY     -78.0307
        XZ      -0.0000     YZ       0.0000     ZZ     -67.5157
    Octopole Moments (Debye-Ang^2)
       XXX       0.0000    XXY      -0.0000    XYY      -0.0000
       YYY       0.0000    XXZ       5.2130    XYZ       2.5156
       YYZ       3.5367    XZZ       0.0000    YZZ       0.0000
       ZZZ      -8.0379
    Hexadecapole Moments (Debye-Ang^3)
      XXXX   -1823.5869   XXXY      -1.4657   XXYY    -404.8654
      XYYY       1.7824   YYYY     -99.8903   XXXZ       0.0000
      XXYZ       0.0000   XYYZ      -0.0000   YYYZ      -0.0000
      XXZZ    -395.7247   XYZZ      -2.8048   YYZZ    -119.1185
      XZZZ       0.0000   YZZZ      -0.0000   ZZZZ    -538.1879
 -----------------------------------------------------------------
 DrvMan is completing analytic gradient of the MP2 energy
 MP2 relaxed dipole moment
            1
    1   0.0000000
    2  -0.0000000
    3  -0.2899116
	Magnitude:	 0.290 au	 0.737 Debye
 MP2 energy read as -1103.413033
 Full Analytical Gradient of MP2 Energy (in au.)
             1             2             3             4             5
    1    0.00008073    0.00021817    0.00033339    0.00007287    0.00012215
    2   -0.00015381   -0.00000483   -0.00009506    0.00080520   -0.00060984
    3    0.00019539    0.00008856    0.00031023    0.00045394   -0.00104185
             6             7             8             9            10
    1   -0.00019956   -0.00012215   -0.00008073   -0.00007287   -0.00021817
    2   -0.00010307    0.00060984    0.00015381   -0.00080520    0.00000483
    3    0.00002318   -0.00104185    0.00019539    0.00045394    0.00008856
            11            12            13            14            15
    1   -0.00033339   -0.00002362    0.00010747    0.00002362   -0.00010747
    2    0.00009506   -0.00001745   -0.00005240    0.00001745    0.00005240
    3    0.00031023    0.00006631   -0.00009576    0.00006631   -0.00009576
            16
    1    0.00019956
    2    0.00010307
    3    0.00002318
 Gradient time:  CPU 1.41 s  wall 0.09 s
 Geometry Optimization Parameters
   NAtoms,    NIC,     NZ,  NCons,   NDum,   NFix, NCnnct, MaxDiis
       16     111       0       1       0       0       0       0

 Cartesian Hessian Update
 Hessian Updated using BFGS Update


** CONSTRAINED OPTIMIZATION IN DELOCALIZED INTERNAL COORDINATES **
   Searching for a Minimum

   Optimization Cycle:   2

                       Coordinates (Angstroms)
     ATOM                X               Y               Z
      1  S         1.6240429060    0.1200388228    1.1390284511
      2  C         3.1145857419    0.0224680865    0.3135490289
      3  C         2.9278700574   -0.0963367292   -1.0408665069
      4  C         1.5712231671   -0.1149262777   -1.4004490987
      5  C         0.7194723836   -0.0093439650   -0.3201669166
      6  H         1.2133249090   -0.2195742162   -2.4089206151
      7  C        -0.7194723836    0.0093439650   -0.3201669166
      8  S        -1.6240429060   -0.1200388228    1.1390284511
      9  C        -1.5712231671    0.1149262777   -1.4004490987
     10  C        -3.1145857419   -0.0224680865    0.3135490289
     11  C        -2.9278700574    0.0963367292   -1.0408665069
     12  H        -3.7402860403    0.1711800190   -1.7398019707
     13  H         4.0372925663    0.0570164527    0.8574900191
     14  H         3.7402860403   -0.1711800190   -1.7398019707
     15  H        -4.0372925663   -0.0570164527    0.8574900191
     16  H        -1.2133249090    0.2195742162   -2.4089206151
   Point Group: c2    Number of degrees of freedom:    22


   Energy is  -1103.413033487

              Constraints and their Current Values
                                        Value     Constraint
   Dihedral:        4   5   7   9      -10.000      -10.000
 Hessian Updated using BFGS Update

 21 Hessian modes will be used to form the next step
  Hessian Eigenvalues:
     0.040175    0.045000    0.045000    0.045002    0.045010    0.045602
     0.154277    0.159992    0.160117    0.195293    0.221884    0.260920
     0.337491    0.340150    0.365451    0.366909    0.370083    0.414975
     0.443204    0.462607    0.498648

 Minimum Search - Taking Simple RFO Step
 Searching for Lamda that Minimizes Along All modes
 Value Taken    Lamda =  -0.00004038
 Step Taken.  Stepsize is  0.022116

                             Maximum     Tolerance    Cnvgd?
         Gradient           0.001645      0.000300      NO
         Displacement       0.013035      0.001200      NO
         Energy change     -0.000415      0.000001      NO


 New Cartesian Coordinates Obtained by Inverse Iteration

 Displacement from previous Coordinates is:  0.080256
 ----------------------------------------------------------------
             Standard Nuclear Orientation (Angstroms)
    I     Atom           X                Y                Z
 ----------------------------------------------------------------
    1      S       1.6306671292     0.1223855212     1.1437993641
    2      C       3.1157441696     0.0246206938     0.3087644632
    3      C       2.9217442229    -0.0981265471    -1.0444926512
    4      C       1.5637524486    -0.1193634048    -1.3956927737
    5      C       0.7189314089    -0.0111892691    -0.3096772777
    6      H       1.2013599199    -0.2245680148    -2.4023714503
    7      C      -0.7189314089     0.0111892691    -0.3096772777
    8      S      -1.6306671292    -0.1223855212     1.1437993641
    9      C      -1.5637524486     0.1193634048    -1.3956927737
   10      C      -3.1157441696    -0.0246206938     0.3087644632
   11      C      -2.9217442229     0.0981265471    -1.0444926512
   12      H      -3.7298911733     0.1731305580    -1.7484115455
   13      H       4.0410032790     0.0627811185     0.8479442622
   14      H       3.7298911733    -0.1731305580    -1.7484115455
   15      H      -4.0410032790    -0.0627811185     0.8479442622
   16      H      -1.2013599199     0.2245680148    -2.4023714503
 ----------------------------------------------------------------
 Molecular Point Group                 C2    NOp =  2
 Largest Abelian Subgroup              C2    NOp =  2
 Nuclear Repulsion Energy =   639.5077243612 hartrees
 There are       43 alpha and       43 beta electrons
 Applying Cartesian multipole field
    Component          Value
    ---------          -----
     (2,0,0)        1.00000E-11
     (0,2,0)        2.00000E-10
     (0,0,2)       -3.00000E-11
 Nucleus-field energy     =     0.0000000044 hartrees
 Requested basis set is cc-pVTZ
 There are 140 shells and 392 basis functions
 A cutoff of  1.0D-11 yielded   8038 shell pairs
 There are     62410 function pairs (     81358 Cartesian)
 Smallest overlap matrix eigenvalue = 5.25E-05
 Guess MOs from SCF MO coefficient file
 Reading MOs from coefficient file
 Reading MOs from coefficient file
 A restricted Hartree-Fock SCF calculation will be
 performed using Pulay DIIS extrapolation
 SCF converges when DIIS error is below 1.0E-08
 Geometry optimization detected.  Setting ReadMinima to 0
 Setting SaveMinima to 0
 using 16 threads for integral computing 
 ---------------------------------------
  Cycle       Energy         DIIS Error
 ---------------------------------------
    1   -1101.5962673602      1.31E-04
    2   -1101.5970865192      1.97E-05
    3   -1101.5970974041      9.25E-06
    4   -1101.5970994784      3.70E-06
    5   -1101.5970999530      8.56E-07
    6   -1101.5970999859      3.99E-07
    7   -1101.5970999960      1.11E-07
    8   -1101.5970999965      5.33E-08
    9   -1101.5970999965      2.26E-08
   10   -1101.5970999971      8.04E-09 Convergence criterion met
 ---------------------------------------
 SCF time:  CPU 689.04 s  wall 43.10 s
 SCF   energy in the final basis set = -1101.5970999971
 Total energy in the final basis set = -1101.5970999971
 
 Components of the MP2 correlation energy:
        aaaa  correlation energy =        -0.2325381675 au
        abab  correlation energy =        -1.3508778295 au
        bbbb  correlation energy =        -0.2325381675 au
        non-Brillouin singles    =        -0.0000000000 au

 Total  MP2   correlation energy =        -1.8159541645 au
        MP2         total energy =     -1103.4130541616 au

  Entering Z-vector solver.
   1         0           1      0.000267    0.000267
   2         0           1      0.000118    0.000118
   3         0           1      0.000048    0.000048
   4         0           1      0.000022    0.000022
   5         0           1      0.000007    0.000007
   6         0           1      0.000002    0.000002
   7         1           0      0.000000    0.000000    Roots Converged
 
 --------------------------------------------------------------
             Orbital Energies (a.u.) and Symmetries
 --------------------------------------------------------------
 
 Alpha MOs, Restricted
 -- Occupied --                  
-91.985 -91.985 -11.276 -11.275 -11.261 -11.261 -11.238 -11.238
  1 A     1 B     2 A     2 B     3 B     3 A     4 B     4 A                  
-11.237 -11.237  -8.987  -8.987  -6.668  -6.668  -6.667  -6.667
  5 B     5 A     6 B     6 A     7 B     7 A     8 B     8 A                  
 -6.666  -6.666  -1.197  -1.167  -1.036  -1.001  -0.985  -0.948
  9 A     9 B    10 A    10 B    11 A    12 A    11 B    12 B                  
 -0.810  -0.780  -0.746  -0.717  -0.709  -0.645  -0.575  -0.572
 13 A    14 A    13 B    14 B    15 A    15 B    16 A    17 A                  
 -0.559  -0.555  -0.543  -0.512  -0.511  -0.489  -0.464  -0.378
 16 B    17 B    18 A    19 A    18 B    20 A    19 B    20 B                  
 -0.356  -0.346  -0.277
 21 B    21 A    22 A                                                          
 -- Virtual --                   
  0.070   0.140   0.153   0.153   0.159   0.174   0.176   0.180
 22 B    23 A    24 A    23 B    25 A    26 A    24 B    25 B                  
  0.199   0.217   0.220   0.244   0.256   0.296   0.304   0.354
 27 A    28 A    26 B    29 A    27 B    28 B    30 A    31 A                  
  0.359   0.367   0.371   0.378   0.387   0.404   0.418   0.431
 29 B    32 A    33 A    30 B    31 B    32 B    33 B    34 A                  
  0.441   0.450   0.466   0.468   0.480   0.488   0.515   0.525
 34 B    35 A    35 B    36 A    37 A    36 B    38 A    37 B                  
  0.527   0.535   0.537   0.543   0.551   0.562   0.572   0.577
 39 A    38 B    40 A    39 B    41 A    40 B    41 B    42 A                  
  0.577   0.585   0.599   0.601   0.610   0.611   0.617   0.627
 42 B    43 A    43 B    44 A    45 A    44 B    46 A    45 B                  
  0.637   0.638   0.652   0.664   0.669   0.700   0.731   0.749
 47 A    46 B    48 A    49 A    47 B    48 B    50 A    49 B                  
  0.752   0.772   0.786   0.797   0.820   0.820   0.838   0.854
 51 A    52 A    50 B    51 B    53 A    52 B    54 A    53 B                  
  0.861   0.878   0.890   0.908   0.915   0.933   0.934   0.953
 55 A    54 B    56 A    57 A    55 B    58 A    56 B    57 B                  
  0.957   0.991   0.996   1.010   1.059   1.071   1.081   1.083
 59 A    58 B    59 B    60 A    60 B    61 A    62 A    61 B                  
  1.093   1.099   1.105   1.113   1.126   1.145   1.170   1.173
 63 A    62 B    63 B    64 A    64 B    65 A    66 A    65 B                  
  1.194   1.214   1.215   1.231   1.243   1.247   1.258   1.263
 66 B    67 B    67 A    68 A    69 A    68 B    69 B    70 A                  
  1.300   1.306   1.318   1.324   1.356   1.401   1.428   1.429
 70 B    71 B    71 A    72 A    73 A    72 B    74 A    73 B                  
  1.432   1.468   1.477   1.490   1.492   1.506   1.521   1.541
 75 A    74 B    76 A    75 B    77 A    78 A    76 B    77 B                  
  1.553   1.563   1.563   1.597   1.605   1.624   1.631   1.632
 78 B    79 B    79 A    80 A    81 A    80 B    82 A    81 B                  
  1.655   1.664   1.732   1.741   1.750   1.762   1.798   1.832
 83 A    82 B    83 B    84 A    84 B    85 A    86 A    85 B                  
  1.844   1.851   1.865   1.889   1.903   1.923   1.948   1.958
 86 B    87 A    87 B    88 B    88 A    89 A    89 B    90 A                  
  1.965   1.990   2.047   2.068   2.095   2.130   2.133   2.134
 90 B    91 A    92 A    91 B    92 B    93 A    93 B    94 A                  
  2.163   2.189   2.203   2.210   2.215   2.237   2.266   2.277
 94 B    95 A    96 A    97 A    95 B    96 B    97 B    98 B                  
  2.279   2.285   2.322   2.407   2.413   2.434   2.441   2.472
 98 A    99 A    99 B   100 A   100 B   101 A   101 B   102 B                  
  2.482   2.515   2.516   2.525   2.553   2.557   2.589   2.600
102 A   103 B   103 A   104 A   105 A   104 B   106 A   105 B                  
  2.666   2.667   2.672   2.683   2.713   2.742   2.745   2.768
107 A   106 B   108 A   107 B   109 A   108 B   110 A   111 A                  
  2.772   2.785   2.799   2.800   2.826   2.846   2.874   2.905
109 B   112 A   110 B   111 B   112 B   113 A   113 B   114 B                  
  2.906   2.917   2.926   2.933   2.988   3.002   3.009   3.035
114 A   115 A   116 A   115 B   116 B   117 A   118 A   117 B                  
  3.045   3.077   3.099   3.101   3.139   3.147   3.164   3.189
118 B   119 A   119 B   120 A   120 B   121 A   122 A   121 B                  
  3.213   3.221   3.225   3.240   3.253   3.272   3.278   3.284
122 B   123 A   123 B   124 A   124 B   125 B   125 A   126 A                  
  3.304   3.312   3.318   3.323   3.332   3.356   3.357   3.398
126 B   127 A   128 A   127 B   129 A   130 A   128 B   129 B                  
  3.410   3.411   3.429   3.439   3.442   3.448   3.469   3.477
130 B   131 A   132 A   133 A   131 B   134 A   132 B   135 A                  
  3.490   3.500   3.512   3.515   3.523   3.526   3.536   3.545
133 B   134 B   136 A   135 B   137 A   138 A   136 B   137 B                  
  3.552   3.564   3.566   3.586   3.586   3.599   3.642   3.671
138 B   139 B   139 A   140 A   140 B   141 A   141 B   142 B                  
  3.681   3.704   3.707   3.728   3.729   3.758   3.767   3.782
142 A   143 B   143 A   144 B   144 A   145 B   145 A   146 A                  
  3.823   3.840   3.880   3.885   3.887   3.898   3.935   3.965
147 A   146 B   148 A   147 B   149 A   148 B   149 B   150 A                  
  3.975   3.984   3.993   4.003   4.014   4.022   4.044   4.052
150 B   151 B   151 A   152 A   153 A   152 B   154 A   153 B                  
  4.079   4.125   4.130   4.139   4.166   4.171   4.185   4.188
155 A   154 B   155 B   156 A   157 A   156 B   157 B   158 A                  
  4.197   4.209   4.218   4.262   4.269   4.300   4.302   4.319
159 A   160 A   158 B   159 B   161 A   162 A   160 B   161 B                  
  4.343   4.356   4.426   4.450   4.459   4.474   4.490   4.493
162 B   163 A   163 B   164 A   165 A   164 B   165 B   166 A                  
  4.510   4.597   4.616   4.629   4.650   4.659   4.684   4.692
167 A   166 B   167 B   168 A   169 A   168 B   170 A   169 B                  
  4.699   4.730   4.744   4.763   4.805   4.836   4.850   4.863
171 A   172 A   170 B   171 B   173 A   174 A   175 A   172 B                  
  4.921   4.961   4.994   5.047   5.053   5.065   5.069   5.094
173 B   174 B   176 A   175 B   177 A   178 A   176 B   179 A                  
  5.150   5.161   5.186   5.247   5.255   5.292   5.328   5.356
177 B   178 B   180 A   179 B   180 B   181 A   182 A   181 B                  
  5.385   5.427   5.450   5.454   5.584   5.616   5.625   5.688
183 A   182 B   184 A   183 B   185 A   184 B   185 B   186 A                  
  5.792   5.882   5.980   6.084   6.087   6.145   6.153   6.248
187 A   186 B   188 A   187 B   189 A   190 A   188 B   189 B                  
  6.501   6.523   6.619   6.671   6.868   9.316  10.967  11.698
190 B   191 A   191 B   192 A   192 B   193 A   193 B   194 A                  
 12.457  13.245  14.045  14.393  15.155
194 B   195 A   195 B   196 A   196 B                                          
 
 Beta MOs, Restricted
 -- Occupied --                  
-91.985 -91.985 -11.276 -11.275 -11.261 -11.261 -11.238 -11.238
  1 A     1 B     2 A     2 B     3 B     3 A     4 B     4 A                  
-11.237 -11.237  -8.987  -8.987  -6.668  -6.668  -6.667  -6.667
  5 B     5 A     6 B     6 A     7 B     7 A     8 B     8 A                  
 -6.666  -6.666  -1.197  -1.167  -1.036  -1.001  -0.985  -0.948
  9 A     9 B    10 A    10 B    11 A    12 A    11 B    12 B                  
 -0.810  -0.780  -0.746  -0.717  -0.709  -0.645  -0.575  -0.572
 13 A    14 A    13 B    14 B    15 A    15 B    16 A    17 A                  
 -0.559  -0.555  -0.543  -0.512  -0.511  -0.489  -0.464  -0.378
 16 B    17 B    18 A    19 A    18 B    20 A    19 B    20 B                  
 -0.356  -0.346  -0.277
 21 B    21 A    22 A                                                          
 -- Virtual --                   
  0.070   0.140   0.153   0.153   0.159   0.174   0.176   0.180
 22 B    23 A    24 A    23 B    25 A    26 A    24 B    25 B                  
  0.199   0.217   0.220   0.244   0.256   0.296   0.304   0.354
 27 A    28 A    26 B    29 A    27 B    28 B    30 A    31 A                  
  0.359   0.367   0.371   0.378   0.387   0.404   0.418   0.431
 29 B    32 A    33 A    30 B    31 B    32 B    33 B    34 A                  
  0.441   0.450   0.466   0.468   0.480   0.488   0.515   0.525
 34 B    35 A    35 B    36 A    37 A    36 B    38 A    37 B                  
  0.527   0.535   0.537   0.543   0.551   0.562   0.572   0.577
 39 A    38 B    40 A    39 B    41 A    40 B    41 B    42 A                  
  0.577   0.585   0.599   0.601   0.610   0.611   0.617   0.627
 42 B    43 A    43 B    44 A    45 A    44 B    46 A    45 B                  
  0.637   0.638   0.652   0.664   0.669   0.700   0.731   0.749
 47 A    46 B    48 A    49 A    47 B    48 B    50 A    49 B                  
  0.752   0.772   0.786   0.797   0.820   0.820   0.838   0.854
 51 A    52 A    50 B    51 B    53 A    52 B    54 A    53 B                  
  0.861   0.878   0.890   0.908   0.915   0.933   0.934   0.953
 55 A    54 B    56 A    57 A    55 B    58 A    56 B    57 B                  
  0.957   0.991   0.996   1.010   1.059   1.071   1.081   1.083
 59 A    58 B    59 B    60 A    60 B    61 A    62 A    61 B                  
  1.093   1.099   1.105   1.113   1.126   1.145   1.170   1.173
 63 A    62 B    63 B    64 A    64 B    65 A    66 A    65 B                  
  1.194   1.214   1.215   1.231   1.243   1.247   1.258   1.263
 66 B    67 B    67 A    68 A    69 A    68 B    69 B    70 A                  
  1.300   1.306   1.318   1.324   1.356   1.401   1.428   1.429
 70 B    71 B    71 A    72 A    73 A    72 B    74 A    73 B                  
  1.432   1.468   1.477   1.490   1.492   1.506   1.521   1.541
 75 A    74 B    76 A    75 B    77 A    78 A    76 B    77 B                  
  1.553   1.563   1.563   1.597   1.605   1.624   1.631   1.632
 78 B    79 B    79 A    80 A    81 A    80 B    82 A    81 B                  
  1.655   1.664   1.732   1.741   1.750   1.762   1.798   1.832
 83 A    82 B    83 B    84 A    84 B    85 A    86 A    85 B                  
  1.844   1.851   1.865   1.889   1.903   1.923   1.948   1.958
 86 B    87 A    87 B    88 B    88 A    89 A    89 B    90 A                  
  1.965   1.990   2.047   2.068   2.095   2.130   2.133   2.134
 90 B    91 A    92 A    91 B    92 B    93 A    93 B    94 A                  
  2.163   2.189   2.203   2.210   2.215   2.237   2.266   2.277
 94 B    95 A    96 A    97 A    95 B    96 B    97 B    98 B                  
  2.279   2.285   2.322   2.407   2.413   2.434   2.441   2.472
 98 A    99 A    99 B   100 A   100 B   101 A   101 B   102 B                  
  2.482   2.515   2.516   2.525   2.553   2.557   2.589   2.600
102 A   103 B   103 A   104 A   105 A   104 B   106 A   105 B                  
  2.666   2.667   2.672   2.683   2.713   2.742   2.745   2.768
107 A   106 B   108 A   107 B   109 A   108 B   110 A   111 A                  
  2.772   2.785   2.799   2.800   2.826   2.846   2.874   2.905
109 B   112 A   110 B   111 B   112 B   113 A   113 B   114 B                  
  2.906   2.917   2.926   2.933   2.988   3.002   3.009   3.035
114 A   115 A   116 A   115 B   116 B   117 A   118 A   117 B                  
  3.045   3.077   3.099   3.101   3.139   3.147   3.164   3.189
118 B   119 A   119 B   120 A   120 B   121 A   122 A   121 B                  
  3.213   3.221   3.225   3.240   3.253   3.272   3.278   3.284
122 B   123 A   123 B   124 A   124 B   125 B   125 A   126 A                  
  3.304   3.312   3.318   3.323   3.332   3.356   3.357   3.398
126 B   127 A   128 A   127 B   129 A   130 A   128 B   129 B                  
  3.410   3.411   3.429   3.439   3.442   3.448   3.469   3.477
130 B   131 A   132 A   133 A   131 B   134 A   132 B   135 A                  
  3.490   3.500   3.512   3.515   3.523   3.526   3.536   3.545
133 B   134 B   136 A   135 B   137 A   138 A   136 B   137 B                  
  3.552   3.564   3.566   3.586   3.586   3.599   3.642   3.671
138 B   139 B   139 A   140 A   140 B   141 A   141 B   142 B                  
  3.681   3.704   3.707   3.728   3.729   3.758   3.767   3.782
142 A   143 B   143 A   144 B   144 A   145 B   145 A   146 A                  
  3.823   3.840   3.880   3.885   3.887   3.898   3.935   3.965
147 A   146 B   148 A   147 B   149 A   148 B   149 B   150 A                  
  3.975   3.984   3.993   4.003   4.014   4.022   4.044   4.052
150 B   151 B   151 A   152 A   153 A   152 B   154 A   153 B                  
  4.079   4.125   4.130   4.139   4.166   4.171   4.185   4.188
155 A   154 B   155 B   156 A   157 A   156 B   157 B   158 A                  
  4.197   4.209   4.218   4.262   4.269   4.300   4.302   4.319
159 A   160 A   158 B   159 B   161 A   162 A   160 B   161 B                  
  4.343   4.356   4.426   4.450   4.459   4.474   4.490   4.493
162 B   163 A   163 B   164 A   165 A   164 B   165 B   166 A                  
  4.510   4.597   4.616   4.629   4.650   4.659   4.684   4.692
167 A   166 B   167 B   168 A   169 A   168 B   170 A   169 B                  
  4.699   4.730   4.744   4.763   4.805   4.836   4.850   4.863
171 A   172 A   170 B   171 B   173 A   174 A   175 A   172 B                  
  4.921   4.961   4.994   5.047   5.053   5.065   5.069   5.094
173 B   174 B   176 A   175 B   177 A   178 A   176 B   179 A                  
  5.150   5.161   5.186   5.247   5.255   5.292   5.328   5.356
177 B   178 B   180 A   179 B   180 B   181 A   182 A   181 B                  
  5.385   5.427   5.450   5.454   5.584   5.616   5.625   5.688
183 A   182 B   184 A   183 B   185 A   184 B   185 B   186 A                  
  5.792   5.882   5.980   6.084   6.087   6.145   6.153   6.248
187 A   186 B   188 A   187 B   189 A   190 A   188 B   189 B                  
  6.501   6.523   6.619   6.671   6.868   9.316  10.967  11.698
190 B   191 A   191 B   192 A   192 B   193 A   193 B   194 A                  
 12.457  13.245  14.045  14.393  15.155
194 B   195 A   195 B   196 A   196 B                                          
 --------------------------------------------------------------
 
          Ground-State Mulliken Net Atomic Charges

     Atom                 Charge (a.u.)
  ----------------------------------------
      1 S                     0.101682
      2 C                    -0.236114
      3 C                    -0.206485
      4 C                    -0.180334
      5 C                    -0.003926
      6 H                     0.164801
      7 C                    -0.003926
      8 S                     0.101682
      9 C                    -0.180334
     10 C                    -0.236114
     11 C                    -0.206485
     12 H                     0.173904
     13 H                     0.186473
     14 H                     0.173904
     15 H                     0.186473
     16 H                     0.164801
  ----------------------------------------
  Sum of atomic charges =     0.000000

 -----------------------------------------------------------------
                    Cartesian Multipole Moments
 -----------------------------------------------------------------
    Charge (ESU x 10^10)
                 0.0000
    Dipole Moment (Debye)
         X      -0.0000      Y      -0.0000      Z      -0.7393
       Tot       0.7393
    Quadrupole Moments (Debye-Ang)
        XX     -61.0183     XY      -0.1870     YY     -78.0212
        XZ      -0.0000     YZ       0.0000     ZZ     -67.5067
    Octopole Moments (Debye-Ang^2)
       XXX       0.0000    XXY      -0.0000    XYY       0.0000
       YYY      -0.0000    XXZ       4.9453    XYZ       2.5712
       YYZ       3.3512    XZZ      -0.0000    YZZ      -0.0000
       ZZZ      -8.6162
    Hexadecapole Moments (Debye-Ang^3)
      XXXX   -1823.9966   XXXY      -0.9165   XXYY    -404.7130
      XYYY       1.5582   YYYY    -100.1086   XXXZ      -0.0000
      XXYZ      -0.0000   XYYZ       0.0000   YYYZ      -0.0000
      XXZZ    -395.8668   XYZZ      -2.8556   YYZZ    -119.1896
      XZZZ      -0.0000   YZZZ       0.0000   ZZZZ    -538.8079
 -----------------------------------------------------------------
 DrvMan is completing analytic gradient of the MP2 energy
 MP2 relaxed dipole moment
            1
    1  -0.0000000
    2  -0.0000000
    3  -0.2908525
	Magnitude:	 0.291 au	 0.739 Debye
 MP2 energy read as -1103.413054
 Full Analytical Gradient of MP2 Energy (in au.)
             1             2             3             4             5
    1    0.00015978   -0.00019601   -0.00007969    0.00007390   -0.00003782
    2   -0.00014099    0.00000186   -0.00013487    0.00059993   -0.00075758
    3    0.00044891   -0.00002239   -0.00004737    0.00006027   -0.00029582
             6             7             8             9            10
    1    0.00001581    0.00003782   -0.00015978   -0.00007390    0.00019601
    2   -0.00000330    0.00075758    0.00014099   -0.00059993   -0.00000186
    3   -0.00004670   -0.00029582    0.00044891    0.00006027   -0.00002239
            11            12            13            14            15
    1    0.00007969    0.00002449   -0.00001759   -0.00002449    0.00001759
    2    0.00013487   -0.00003636    0.00002460    0.00003636   -0.00002460
    3   -0.00004737   -0.00004790   -0.00004900   -0.00004790   -0.00004900
            16
    1   -0.00001581
    2    0.00000330
    3   -0.00004670
 Gradient time:  CPU 1.50 s  wall 0.10 s
 Geometry Optimization Parameters
   NAtoms,    NIC,     NZ,  NCons,   NDum,   NFix, NCnnct, MaxDiis
       16     111       0       1       0       0       0       0

 Cartesian Hessian Update
 Hessian Updated using BFGS Update


** CONSTRAINED OPTIMIZATION IN DELOCALIZED INTERNAL COORDINATES **
   Searching for a Minimum

   Optimization Cycle:   3

                       Coordinates (Angstroms)
     ATOM                X               Y               Z
      1  S         1.6306671292    0.1223855212    1.1437993641
      2  C         3.1157441696    0.0246206938    0.3087644632
      3  C         2.9217442229   -0.0981265471   -1.0444926512
      4  C         1.5637524486   -0.1193634048   -1.3956927737
      5  C         0.7189314089   -0.0111892691   -0.3096772777
      6  H         1.2013599199   -0.2245680148   -2.4023714503
      7  C        -0.7189314089    0.0111892691   -0.3096772777
      8  S        -1.6306671292   -0.1223855212    1.1437993641
      9  C        -1.5637524486    0.1193634048   -1.3956927737
[...]
         Gradient           0.000043      0.000300     YES
         Displacement       0.000548      0.001200     YES
         Energy change     -0.000000      0.000001     YES

 Final energy is   -1103.41306268179     


 ******************************
 **  OPTIMIZATION CONVERGED  **
 ******************************

                       Coordinates (Angstroms)
     ATOM                X               Y               Z
      1  S         1.6305032968    0.1332166692    1.1416447271
      2  C         3.1161486189    0.0308075613    0.3081144229
      3  C         2.9220329349   -0.1013836495   -1.0442881833
      4  C         1.5638585357   -0.1274275582   -1.3953319223
      5  C         0.7189448664   -0.0149038462   -0.3096129338
      6  H         1.2011910424   -0.2396724734   -2.4010892823
      7  C        -0.7189448664    0.0149038462   -0.3096129338
      8  S        -1.6305032968   -0.1332166692    1.1416447271
      9  C        -1.5638585357    0.1274275582   -1.3953319223
     10  C        -3.1161486189   -0.0308075613    0.3081144229
     11  C        -2.9220329349    0.1013836495   -1.0442881833
     12  H        -3.7304586068    0.1816565801   -1.7472958214
     13  H         4.0410694715    0.0721005812    0.8477213841
     14  H         3.7304586068   -0.1816565801   -1.7472958214
     15  H        -4.0410694715   -0.0721005812    0.8477213841
     16  H        -1.2011910424    0.2396724734   -2.4010892823

Z-matrix Print:
$molecule
0 1
S 
C  1 1.706576
H  2 1.071615 1 120.206429
C  2 1.372643 1 111.339278 3 -179.975448 0
H  4 1.074344 2 123.058318 1 -179.980886 0
C  4 1.403049 2 112.655739 1 0.386868 0
H  6 1.075023 4 124.234803 2 179.017300 0
C  6 1.380336 4 113.217242 2 -0.003234 0
C  8 1.438199 6 127.855015 4 -178.960794 0
C  9 1.380336 8 127.855015 6 10.000000 0
H  10 1.075023 9 122.540410 8 1.999762 0
C  10 1.403049 9 113.217242 8 -178.960794 0
H  12 1.074344 10 124.284839 9 -179.630198 0
C  12 1.372643 10 112.655739 9 -0.003234 0
H  14 1.071615 12 128.454288 10 -179.586037 0
S  14 1.706576 12 111.339278 10 0.386868 0
$end

 
 --------------------------------------------------------------
             Orbital Energies (a.u.) and Symmetries
 --------------------------------------------------------------
 
 Alpha MOs, Restricted
 -- Occupied --                  
-91.985 -91.985 -11.276 -11.275 -11.261 -11.261 -11.238 -11.238
  1 A     1 B     2 A     2 B     3 B     3 A     4 B     4 A                  
-11.237 -11.237  -8.986  -8.986  -6.668  -6.668  -6.667  -6.667
  5 B     5 A     6 B     6 A     7 B     7 A     8 B     8 A                  
 -6.666  -6.666  -1.197  -1.167  -1.036  -1.001  -0.985  -0.948
  9 A     9 B    10 A    10 B    11 A    12 A    11 B    12 B                  
 -0.810  -0.780  -0.746  -0.717  -0.709  -0.645  -0.575  -0.572
 13 A    14 A    13 B    14 B    15 A    15 B    16 A    17 A                  
 -0.559  -0.555  -0.543  -0.512  -0.511  -0.489  -0.464  -0.378
 16 B    17 B    18 A    19 A    18 B    20 A    19 B    20 B                  
 -0.356  -0.346  -0.277
 21 B    21 A    22 A                                                          
 -- Virtual --                   
  0.071   0.140   0.153   0.153   0.159   0.174   0.176   0.181
 22 B    23 A    24 A    23 B    25 A    26 A    24 B    25 B                  
  0.199   0.217   0.220   0.244   0.256   0.295   0.305   0.354
 27 A    28 A    26 B    29 A    27 B    28 B    30 A    31 A                  
  0.358   0.367   0.371   0.377   0.388   0.403   0.418   0.431
 29 B    32 A    33 A    30 B    31 B    32 B    33 B    34 A                  
  0.442   0.450   0.465   0.468   0.480   0.488   0.516   0.525
 34 B    35 A    35 B    36 A    37 A    36 B    38 A    37 B                  
  0.528   0.535   0.537   0.543   0.551   0.562   0.572   0.576
 39 A    38 B    40 A    39 B    41 A    40 B    41 B    42 A                  
  0.577   0.585   0.599   0.601   0.610   0.611   0.617   0.627
 42 B    43 A    43 B    44 A    45 A    44 B    46 A    45 B                  
  0.636   0.639   0.652   0.664   0.669   0.699   0.730   0.749
 47 A    46 B    48 A    49 A    47 B    48 B    50 A    49 B                  
  0.751   0.773   0.786   0.796   0.819   0.820   0.838   0.854
 51 A    52 A    50 B    51 B    52 B    53 A    54 A    53 B                  
  0.861   0.878   0.889   0.908   0.913   0.934   0.935   0.952
 55 A    54 B    56 A    57 A    55 B    58 A    56 B    57 B                  
  0.957   0.990   0.996   1.010   1.059   1.071   1.081   1.081
 59 A    58 B    59 B    60 A    60 B    61 A    62 A    61 B                  
  1.094   1.099   1.104   1.113   1.126   1.146   1.170   1.174
 63 A    62 B    63 B    64 A    64 B    65 A    66 A    65 B                  
  1.194   1.214   1.215   1.230   1.245   1.248   1.258   1.263
 66 B    67 B    67 A    68 A    69 A    68 B    69 B    70 A                  
  1.299   1.306   1.318   1.324   1.358   1.401   1.427   1.428
 70 B    71 B    71 A    72 A    73 A    72 B    73 B    74 A                  
  1.433   1.467   1.477   1.490   1.492   1.506   1.519   1.541
 75 A    74 B    76 A    75 B    77 A    78 A    76 B    77 B                  
  1.553   1.563   1.563   1.596   1.606   1.626   1.631   1.631
 78 B    79 B    79 A    80 A    81 A    80 B    81 B    82 A                  
  1.656   1.664   1.732   1.741   1.749   1.762   1.798   1.827
 83 A    82 B    83 B    84 A    84 B    85 A    86 A    85 B                  
  1.843   1.851   1.867   1.890   1.903   1.923   1.948   1.958
 86 B    87 A    87 B    88 B    88 A    89 A    89 B    90 A                  
  1.964   1.989   2.048   2.069   2.095   2.129   2.132   2.134
 90 B    91 A    92 A    91 B    92 B    93 A    93 B    94 A                  
  2.163   2.190   2.203   2.211   2.214   2.238   2.266   2.276
 94 B    95 A    96 A    97 A    95 B    96 B    97 B    98 B                  
  2.278   2.286   2.321   2.407   2.414   2.434   2.442   2.472
 98 A    99 A    99 B   100 A   100 B   101 A   101 B   102 B                  
  2.482   2.515   2.516   2.526   2.553   2.558   2.589   2.599
102 A   103 B   103 A   104 A   105 A   104 B   106 A   105 B                  
  2.665   2.665   2.672   2.683   2.714   2.742   2.746   2.768
107 A   106 B   108 A   107 B   109 A   108 B   110 A   111 A                  
  2.771   2.785   2.797   2.800   2.827   2.846   2.873   2.904
109 B   112 A   110 B   111 B   112 B   113 A   113 B   114 B                  
  2.906   2.917   2.927   2.934   2.989   3.002   3.010   3.035
114 A   115 A   116 A   115 B   116 B   117 A   118 A   117 B                  
  3.043   3.077   3.099   3.100   3.140   3.147   3.166   3.188
118 B   119 A   119 B   120 A   120 B   121 A   122 A   121 B                  
  3.212   3.221   3.225   3.241   3.251   3.271   3.277   3.284
122 B   123 A   123 B   124 A   124 B   125 B   125 A   126 A                  
  3.305   3.313   3.318   3.322   3.332   3.356   3.358   3.399
126 B   127 A   128 A   127 B   129 A   130 A   128 B   129 B                  
  3.408   3.411   3.429   3.439   3.442   3.448   3.468   3.477
130 B   131 A   132 A   133 A   131 B   134 A   132 B   135 A                  
  3.490   3.500   3.512   3.515   3.523   3.526   3.534   3.545
133 B   134 B   136 A   135 B   137 A   138 A   136 B   137 B                  
  3.552   3.566   3.566   3.586   3.588   3.601   3.641   3.671
138 B   139 B   139 A   140 A   140 B   141 A   141 B   142 B                  
  3.681   3.703   3.707   3.728   3.728   3.757   3.766   3.781
142 A   143 B   143 A   144 B   144 A   145 B   145 A   146 A                  
  3.823   3.840   3.880   3.884   3.888   3.898   3.934   3.965
147 A   146 B   148 A   147 B   149 A   148 B   149 B   150 A                  
  3.975   3.984   3.993   4.003   4.014   4.021   4.043   4.051
150 B   151 B   151 A   152 A   153 A   152 B   154 A   153 B                  
  4.080   4.126   4.130   4.139   4.166   4.170   4.185   4.188
155 A   154 B   155 B   156 A   157 A   156 B   157 B   158 A                  
  4.196   4.208   4.217   4.262   4.270   4.299   4.301   4.320
159 A   160 A   158 B   159 B   161 A   162 A   160 B   161 B                  
  4.343   4.356   4.425   4.450   4.459   4.474   4.490   4.493
162 B   163 A   163 B   164 A   165 A   164 B   165 B   166 A                  
  4.510   4.597   4.615   4.628   4.650   4.659   4.684   4.692
167 A   166 B   167 B   168 A   169 A   168 B   170 A   169 B                  
  4.699   4.730   4.742   4.763   4.805   4.835   4.849   4.861
171 A   172 A   170 B   171 B   173 A   174 A   175 A   172 B                  
  4.918   4.962   4.994   5.045   5.053   5.066   5.068   5.093
173 B   174 B   176 A   175 B   177 A   178 A   176 B   179 A                  
  5.148   5.160   5.185   5.246   5.254   5.292   5.328   5.356
177 B   178 B   180 A   179 B   180 B   181 A   182 A   181 B                  
  5.385   5.426   5.450   5.453   5.584   5.616   5.626   5.688
183 A   182 B   184 A   183 B   185 A   184 B   185 B   186 A                  
  5.793   5.881   5.980   6.083   6.087   6.145   6.152   6.246
187 A   186 B   188 A   187 B   189 A   190 A   188 B   189 B                  
  6.499   6.524   6.618   6.671   6.867   9.320  10.960  11.698
190 B   191 A   191 B   192 A   192 B   193 A   193 B   194 A                  
 12.449  13.243  14.036  14.392  15.148
194 B   195 A   195 B   196 A   196 B                                          
 
 Beta MOs, Restricted
 -- Occupied --                  
-91.985 -91.985 -11.276 -11.275 -11.261 -11.261 -11.238 -11.238
  1 A     1 B     2 A     2 B     3 B     3 A     4 B     4 A                  
-11.237 -11.237  -8.986  -8.986  -6.668  -6.668  -6.667  -6.667
  5 B     5 A     6 B     6 A     7 B     7 A     8 B     8 A                  
 -6.666  -6.666  -1.197  -1.167  -1.036  -1.001  -0.985  -0.948
  9 A     9 B    10 A    10 B    11 A    12 A    11 B    12 B                  
 -0.810  -0.780  -0.746  -0.717  -0.709  -0.645  -0.575  -0.572
 13 A    14 A    13 B    14 B    15 A    15 B    16 A    17 A                  
 -0.559  -0.555  -0.543  -0.512  -0.511  -0.489  -0.464  -0.378
 16 B    17 B    18 A    19 A    18 B    20 A    19 B    20 B                  
 -0.356  -0.346  -0.277
 21 B    21 A    22 A                                                          
 -- Virtual --                   
  0.071   0.140   0.153   0.153   0.159   0.174   0.176   0.181
 22 B    23 A    24 A    23 B    25 A    26 A    24 B    25 B                  
  0.199   0.217   0.220   0.244   0.256   0.295   0.305   0.354
 27 A    28 A    26 B    29 A    27 B    28 B    30 A    31 A                  
  0.358   0.367   0.371   0.377   0.388   0.403   0.418   0.431
 29 B    32 A    33 A    30 B    31 B    32 B    33 B    34 A                  
  0.442   0.450   0.465   0.468   0.480   0.488   0.516   0.525
 34 B    35 A    35 B    36 A    37 A    36 B    38 A    37 B                  
  0.528   0.535   0.537   0.543   0.551   0.562   0.572   0.576
 39 A    38 B    40 A    39 B    41 A    40 B    41 B    42 A                  
  0.577   0.585   0.599   0.601   0.610   0.611   0.617   0.627
 42 B    43 A    43 B    44 A    45 A    44 B    46 A    45 B                  
  0.636   0.639   0.652   0.664   0.669   0.699   0.730   0.749
 47 A    46 B    48 A    49 A    47 B    48 B    50 A    49 B                  
  0.751   0.773   0.786   0.796   0.819   0.820   0.838   0.854
 51 A    52 A    50 B    51 B    52 B    53 A    54 A    53 B                  
  0.861   0.878   0.889   0.908   0.913   0.934   0.935   0.952
 55 A    54 B    56 A    57 A    55 B    58 A    56 B    57 B                  
  0.957   0.990   0.996   1.010   1.059   1.071   1.081   1.081
 59 A    58 B    59 B    60 A    60 B    61 A    62 A    61 B                  
  1.094   1.099   1.104   1.113   1.126   1.146   1.170   1.174
 63 A    62 B    63 B    64 A    64 B    65 A    66 A    65 B                  
  1.194   1.214   1.215   1.230   1.245   1.248   1.258   1.263
 66 B    67 B    67 A    68 A    69 A    68 B    69 B    70 A                  
  1.299   1.306   1.318   1.324   1.358   1.401   1.427   1.428
 70 B    71 B    71 A    72 A    73 A    72 B    73 B    74 A                  
  1.433   1.467   1.477   1.490   1.492   1.506   1.519   1.541
 75 A    74 B    76 A    75 B    77 A    78 A    76 B    77 B                  
  1.553   1.563   1.563   1.596   1.606   1.626   1.631   1.631
 78 B    79 B    79 A    80 A    81 A    80 B    81 B    82 A                  
  1.656   1.664   1.732   1.741   1.749   1.762   1.798   1.827
 83 A    82 B    83 B    84 A    84 B    85 A    86 A    85 B                  
  1.843   1.851   1.867   1.890   1.903   1.923   1.948   1.958
 86 B    87 A    87 B    88 B    88 A    89 A    89 B    90 A                  
  1.964   1.989   2.048   2.069   2.095   2.129   2.132   2.134
 90 B    91 A    92 A    91 B    92 B    93 A    93 B    94 A                  
  2.163   2.190   2.203   2.211   2.214   2.238   2.266   2.276
 94 B    95 A    96 A    97 A    95 B    96 B    97 B    98 B                  
  2.278   2.286   2.321   2.407   2.414   2.434   2.442   2.472
 98 A    99 A    99 B   100 A   100 B   101 A   101 B   102 B                  
  2.482   2.515   2.516   2.526   2.553   2.558   2.589   2.599
102 A   103 B   103 A   104 A   105 A   104 B   106 A   105 B                  
  2.665   2.665   2.672   2.683   2.714   2.742   2.746   2.768
107 A   106 B   108 A   107 B   109 A   108 B   110 A   111 A                  
  2.771   2.785   2.797   2.800   2.827   2.846   2.873   2.904
109 B   112 A   110 B   111 B   112 B   113 A   113 B   114 B                  
  2.906   2.917   2.927   2.934   2.989   3.002   3.010   3.035
114 A   115 A   116 A   115 B   116 B   117 A   118 A   117 B                  
  3.043   3.077   3.099   3.100   3.140   3.147   3.166   3.188
118 B   119 A   119 B   120 A   120 B   121 A   122 A   121 B                  
  3.212   3.221   3.225   3.241   3.251   3.271   3.277   3.284
122 B   123 A   123 B   124 A   124 B   125 B   125 A   126 A                  
  3.305   3.313   3.318   3.322   3.332   3.356   3.358   3.399
126 B   127 A   128 A   127 B   129 A   130 A   128 B   129 B                  
  3.408   3.411   3.429   3.439   3.442   3.448   3.468   3.477
130 B   131 A   132 A   133 A   131 B   134 A   132 B   135 A                  
  3.490   3.500   3.512   3.515   3.523   3.526   3.534   3.545
133 B   134 B   136 A   135 B   137 A   138 A   136 B   137 B                  
  3.552   3.566   3.566   3.586   3.588   3.601   3.641   3.671
138 B   139 B   139 A   140 A   140 B   141 A   141 B   142 B                  
  3.681   3.703   3.707   3.728   3.728   3.757   3.766   3.781
142 A   143 B   143 A   144 B   144 A   145 B   145 A   146 A                  
  3.823   3.840   3.880   3.884   3.888   3.898   3.934   3.965
147 A   146 B   148 A   147 B   149 A   148 B   149 B   150 A                  
  3.975   3.984   3.993   4.003   4.014   4.021   4.043   4.051
150 B   151 B   151 A   152 A   153 A   152 B   154 A   153 B                  
  4.080   4.126   4.130   4.139   4.166   4.170   4.185   4.188
155 A   154 B   155 B   156 A   157 A   156 B   157 B   158 A                  
  4.196   4.208   4.217   4.262   4.270   4.299   4.301   4.320
159 A   160 A   158 B   159 B   161 A   162 A   160 B   161 B                  
  4.343   4.356   4.425   4.450   4.459   4.474   4.490   4.493
162 B   163 A   163 B   164 A   165 A   164 B   165 B   166 A                  
  4.510   4.597   4.615   4.628   4.650   4.659   4.684   4.692
167 A   166 B   167 B   168 A   169 A   168 B   170 A   169 B                  
  4.699   4.730   4.742   4.763   4.805   4.835   4.849   4.861
171 A   172 A   170 B   171 B   173 A   174 A   175 A   172 B                  
  4.918   4.962   4.994   5.045   5.053   5.066   5.068   5.093
173 B   174 B   176 A   175 B   177 A   178 A   176 B   179 A                  
  5.148   5.160   5.185   5.246   5.254   5.292   5.328   5.356
177 B   178 B   180 A   179 B   180 B   181 A   182 A   181 B                  
  5.385   5.426   5.450   5.453   5.584   5.616   5.626   5.688
183 A   182 B   184 A   183 B   185 A   184 B   185 B   186 A                  
  5.793   5.881   5.980   6.083   6.087   6.145   6.152   6.246
187 A   186 B   188 A   187 B   189 A   190 A   188 B   189 B                  
  6.499   6.524   6.618   6.671   6.867   9.320  10.960  11.698
190 B   191 A   191 B   192 A   192 B   193 A   193 B   194 A                  
 12.449  13.243  14.036  14.392  15.148
194 B   195 A   195 B   196 A   196 B                                          
 --------------------------------------------------------------
 
          Ground-State Mulliken Net Atomic Charges

     Atom                 Charge (a.u.)
  ----------------------------------------
      1 S                     0.102386
      2 C                    -0.236523
      3 C                    -0.205888
      4 C                    -0.181584
      5 C                    -0.003665
      6 H                     0.164881
      7 C                    -0.003665
      8 S                     0.102386
      9 C                    -0.181584
     10 C                    -0.236523
     11 C                    -0.205888
     12 H                     0.173922
     13 H                     0.186472
     14 H                     0.173922
     15 H                     0.186472
     16 H                     0.164881
  ----------------------------------------
  Sum of atomic charges =    -0.000000

 -----------------------------------------------------------------
                    Cartesian Multipole Moments
 -----------------------------------------------------------------
    Charge (ESU x 10^10)
                 0.0000
    Dipole Moment (Debye)
         X       0.0000      Y       0.0000      Z      -0.7379
       Tot       0.7379
    Quadrupole Moments (Debye-Ang)
        XX     -61.0064     XY      -0.1786     YY     -78.0043
        XZ       0.0000     YZ      -0.0000     ZZ     -67.5315
    Octopole Moments (Debye-Ang^2)
       XXX      -0.0000    XXY       0.0000    XYY       0.0000
       YYY       0.0000    XXZ       5.0256    XYZ       2.7660
       YYZ       3.3904    XZZ      -0.0000    YZZ       0.0000
       ZZZ      -8.4280
    Hexadecapole Moments (Debye-Ang^3)
      XXXX   -1823.9641   XXXY      -1.7543   XXYY    -404.7509
      XYYY       0.4042   YYYY    -100.8630   XXXZ       0.0000
      XXYZ       0.0000   XYYZ      -0.0000   YYYZ       0.0000
      XXZZ    -395.8945   XYZZ      -3.3338   YYZZ    -119.0427
      XZZZ      -0.0000   YZZZ      -0.0000   ZZZZ    -538.1048
 -----------------------------------------------------------------
Archival summary:
1\1\nid01269\OPT\MP2\BasisUnspecified\286\MonMar616:54:532017MonMar616:54:532017\0\\#,OPT,MP2,BasisUnspecified,\\0,1\S\C,1,1.70658\H,2,1.07162,1,120.206\C,2,1.37264,1,111.339,3,-179.975,0\H,4,1.07434,2,123.058,1,-179.981,0\C,4,1.40305,2,112.656,1,0.386868,0\H,6,1.07502,4,124.235,2,179.017,0\C,6,1.38034,4,113.217,2,-0.00323417,0\C,8,1.4382,6,127.855,4,-178.961,0\C,9,1.38034,8,127.855,6,10,0\H,10,1.07502,9,122.54,8,1.99976,0\C,10,1.40305,9,113.217,8,-178.961,0\H,12,1.07434,10,124.285,9,-179.63,0\C,12,1.37264,10,112.656,9,-0.00323417,0\H,14,1.07162,12,128.454,10,-179.586,0\S,14,1.70658,12,111.339,10,0.386868,0\\HF=-1101.59711\MP2=-1103.41306\\@

 Total job time:  10468.40s(wall), 54564.84s(cpu) 
 Mon Mar  6 16:54:53 2017

        *************************************************************
        *                                                           *
        *  Thank you very much for using Q-Chem.  Have a nice day.  *
        *                                                           *
        *************************************************************


0 sent ACK to 0 
now end server 0 ... 
