srun -N 1 --ntasks-per-node 1 --cpus-per-task 64 --cpu_bind=cores --nodelist nid01263 /global/project/projectdirs/jcesr/qchem/qc44/cnl_qc441/dist/exe/qcprog.cori.haswell.exe .pt_mp2_-20.0.in.29845.qcin.1 /dev/shm/eg_qchem/qchem29845/
Process 0 of 1 is on nid01263 - thread support 0
initial socket setup ...start
initial socket setup ...done 
now start server 0 ... 
nid01263 10.128.4
Q-Chem Developer Version! Running on 10.128.4.*
                  Welcome to Q-Chem
     A Quantum Leap Into The Future Of Chemistry


 Q-Chem 4.4, Q-Chem, Inc., Pleasanton, CA (2016)

 Y. Shao,  Z. Gan,  E. Epifanovsky,  A. T. B. Gilbert,  M. Wormit,  
 J. Kussmann,  A. W. Lange,  A. Behn,  J. Deng,  X. Feng,  D. Ghosh,  
 M. Goldey,  P. R. Horn,  L. D. Jacobson,  I. Kaliman,  F.Rob,  
 R. Z. Khaliullin,  T. Kus,  A. Landau,  J. Liu,  E. I. Proynov,  Y. M. Rhee,  
 R. M. Richard,  M. A. Rohrdanz,  R. P. Steele,  E. J. Sundstrom,  
 H. L. Woodcock III,  P. M. Zimmerman,  D. Zuev,  B. Albrecht,  E. Alguire,  
 B. Austin,  S. A. Baeppler,  G. J. O. Beran,  Y. A. Bernard,  E. Berquist,  
 K. Brandhorst,  K. B. Bravaya,  S. T. Brown,  D. Casanova,  C.-M. Chang,  
 Y. Chen,  S. H. Chien,  K. D. Closser,  M. P. Coons,  D. L. Crittenden,  
 S. Dasgupta,  M. Diedenhofen,  R. A. DiStasio Jr.,  H. Do,  A. D. Dutoi,  
 R. G. Edgar,  P.-T. Fang,  S. Fatehi,  Q. Feng,  L. Fusti-Molnar,  
 A. Ghysels,  A. Golubeva-Zadorozhnaya,  J. Gomes,  A. Gunina,  
 M. W. D. Hanson-Heine,  P. H. P. Harbach,  A. W. Hauser,  E. G. Hohenstein,  
 Z. C. Holden,  K. Hui,  T.-C. Jagau,  H. Ji,  B. Kaduk,  K. Khistyaev,  
 Jaehoon Kim,  Jihan Kim,  R. A. King,  P. Klunzinger,  D. Kosenkov,  
 T. Kowalczyk,  C. M. Krauter,  A. Kunitsa,  K. U. Lao,  A. Laurent,  
 K. V. Lawler,  D. Lefrancois,  S. Lehtola,  S. V. Levchenko,  C. Y. Lin,  
 Y.-S. Lin,  F. Liu,  E. Livshits,  R. C. Lochan,  A. Luenser,  P. Manohar,  
 S. F. Manzer,  S.-P. Mao,  Y. Mao,  N. Mardirossian,  A. V. Marenich,  
 L. A. Martinez-Martinez,  S. A. Maurer,  N. J. Mayhall,  J.-M. Mewes,  
 A. F. Morrison,  K. Nanda,  C. M. Oana,  R. Olivares-Amaya,  D. P. O'Neill,  
 J. A. Parkhill,  T. M. Perrine,  R. Peverati,  P. A. Pieniazek,  F. Plasser,  
 A. Prociuk,  D. R. Rehn,  E. Rosta,  N. J. Russ,  N. Sergueev,  
 S. M. Sharada,  S. Sharma,  D. W. Small,  A. Sodt,  T. Stauch,  T. Stein,  
 D. Stuck,  Y.-C. Su,  A. J. W. Thom,  T. Tsuchimochi,  L. Vogt,  O. Vydrov,  
 T. Wang,  M. A. Watson,  J. Wenzel,  A. White,  C. F. Williams,  
 V. Vanovschi,  S. Yeganeh,  S. R. Yost,  Z.-Q. You,  I. Y. Zhang,  X. Zhang,  
 Y. Zhao,  B. R. Brooks,  G. K. L. Chan,  D. M. Chipman,  C. J. Cramer,  
 W. A. Goddard III,  M. S. Gordon,  W. J. Hehre,  A. Klamt,  
 H. F. Schaefer III,  M. W. Schmidt,  C. D. Sherrill,  D. G. Truhlar,  
 A. Warshel,  X. Xu,  A. Aspuru-Guzik,  R. Baer,  A. T. Bell,  N. A. Besley,  
 J.-D. Chai,  A. Dreuw,  B. D. Dunietz,  T. R. Furlani,  S. R. Gwaltney,  
 C.-P. Hsu,  Y. Jung,  J. Kong,  D. S. Lambrecht,  W. Liang,  C. Ochsenfeld,  
 V. A. Rassolov,  L. V. Slipchenko,  J. E. Subotnik,  T. Van Voorhis,  
 J. M. Herbert,  A. I. Krylov,  P. M. W. Gill,  M. Head-Gordon

 Contributors to earlier versions of Q-Chem not listed above: 
 R. D. Adamson,  J. Baker,  E. F. C. Byrd,  A. K. Chakraborty,  C.-L. Cheng,  
 H. Dachsel,  R. J. Doerksen,  G. Hawkins,  A. Heyden,  S. Hirata,  
 G. Kedziora,  F. J. Keil,  C. Kelley,  P. P. Korambath,  W. Kurlancheek,  
 A. M. Lee,  M. S. Lee,  D. Liotard,  I. Lotan,  P. E. Maslen,  N. Nair,  
 D. Neuhauser,  R. Olson,  B. Peters,  J. Ritchie,  N. E. Schultz,  
 N. Shenvi,  A. C. Simmonett,  K. S. Thanthiriwatte,  Q. Wu,  W. Zhang

 Please cite Q-Chem as follows:
 Y. Shao et al., Mol. Phys. 113, 184-215 (2015)
 DOI: 10.1080/00268976.2014.952696

 Q-Chem 4.4.1 for Intel X86 EM64T Linux

 Parts of Q-Chem use Armadillo 5.200.1 (Boston Tea Smuggler).
 http://arma.sourceforge.net/

 Q-Chem begins on Mon Mar  6 14:00:23 2017  

Host: nid01196
0

     Scratch files written to /dev/shm/eg_qchem/qchem29845//
 Parallel job on  1  processors

Checking the input file for inconsistencies... 	...done.

--------------------------------------------------------------
User input:
--------------------------------------------------------------
$molecule
 0  1
 S           1.80900300       -1.15938900        0.25896800
 C           3.16466000       -0.14246800        0.05606700
 C           2.78757500        1.14089100       -0.25226100
 C           1.39402000        1.28822000       -0.33563400
 C           0.70898100        0.11689900       -0.08798100
 H           0.89277600        2.20524100       -0.58940400
 C          -0.70898100       -0.11689900       -0.08798100
 S          -1.33605843       -1.70897354       -0.26519731
 C          -1.73733163        0.79393144        0.03646262
 C          -2.94940210       -1.16305009       -0.15477618
 C          -3.00865503        0.19993773       -0.00304330
 H          -3.93309035        0.74024396        0.08442671
 H           4.15569300       -0.53353100        0.17259300
 H           3.49202900        1.93475000       -0.41867900
 H          -3.76082833       -1.86128458       -0.20684401
 H          -1.56073351        1.84585597        0.17372209
$end


$rem
         jobtype = opt
        exchange = hf
           basis = cc-pvtz
  max_scf_cycles = 100
      mem_static = 6200
       mem_total = 62000
          method = mp2
$end


$opt
CONSTRAINT
tors 4 5 7 9 -20.0
ENDCONSTRAINT
$end

--------------------------------------------------------------
 Atom  11: ( -2.9328980512,  0.1845407974, -1.0212885967)
         ->( -2.9328980460,  0.1845407992, -1.0212885970)
 Atom  15: ( -4.0165678631, -0.1083309055,  0.8749768695)
         ->( -4.0165678660, -0.1083309071,  0.8749768649)
 ----------------------------------------------------------------
             Standard Nuclear Orientation (Angstroms)
    I     Atom           X                Y                Z
 ----------------------------------------------------------------
    1      S       1.6012978280     0.2299918017     1.1153559477
    2      C       3.1008292941     0.0425111648     0.3220341778
    3      C       2.9328980460    -0.1845407992    -1.0212885970
    4      C       1.5809040797    -0.2185802181    -1.3975944067
    5      C       0.7184049246    -0.0146218450    -0.3406651212
    6      H       1.2316109112    -0.4073592406    -2.3970587823
    7      C      -0.7184049253     0.0146218469    -0.3406651209
    8      S      -1.6012978257    -0.2299918022     1.1153559482
    9      C      -1.5809040830     0.2185802199    -1.3975944034
   10      C      -3.1008292917    -0.0425111648     0.3220341787
   11      C      -2.9328980460     0.1845407992    -1.0212885970
   12      H      -3.7543590817     0.3284466915    -1.6985295839
   13      H       4.0165678660     0.1083309071     0.8749768649
   14      H       3.7543590830    -0.3284466937    -1.6985295872
   15      H      -4.0165678660    -0.1083309071     0.8749768649
   16      H      -1.2316109111     0.4073592375    -2.3970587787
 ----------------------------------------------------------------
 Molecular Point Group                 C2    NOp =  2
 Largest Abelian Subgroup              C2    NOp =  2
 Nuclear Repulsion Energy =   640.3829531446 hartrees
 There are       43 alpha and       43 beta electrons
 Requested basis set is cc-pVTZ
 There are 140 shells and 392 basis functions

 Total QAlloc Memory Limit  62000 MB
 Mega-Array Size      6061 MB
 MEM_STATIC part      6200 MB
 A cutoff of  1.0D-11 yielded   8028 shell pairs
 There are     62336 function pairs (     81270 Cartesian)
 
 -------------------------------------------------------
 OpenMP Integral Computing Module                       
 Release: version 1.0, May 2013, Q-Chem Inc. Pittsburgh 
 -------------------------------------------------------
 Integral Job Info:
 Integral job number is                      11
 Integral operator is                         1
 short-range coefficients                     0
 long-range coefficients              100000000
 Omega coefficients                           0
 if combine SR and LR in K                    0
 Integral screening is                        0
 Integral computing path is                   2
 max size of driver memory is            800000
 size of driver memory is                776718
 size of scratch memory is             26248924
 max col of scratch BK array              10000
 max len of scratch array in speh3          662
 max len of scratch index in speh4           32
 max int batch size is                      520
 min int batch size is                       52
 fixed nKL is                                52
 max L of basis functions is                  3
 order of int derivative is                   0
 number of shells is                        140
 number of basis is                         448
 number of cartesian basis is               448
 number of contracted shell pairs          8028
 number of primitive shell pairs          28524
 maxK2 (contraction) of shell pair          121
 max number of K2 of shell pair               1
 max number of CS2 of shell pair           1054
 max number of PS2 of shell pair           3108
 mem total for path MDJ                  223748
 -------------------------------------------------------
 Smallest overlap matrix eigenvalue = 5.93E-05

 Scale SEOQF with 1.000000e-01/1.000000e+00/1.000000e-01

 Standard Electronic Orientation quadrupole field applied
 Nucleus-field energy     =     0.0000000062 hartrees
 Guess from superposition of atomic densities
 Warning:  Energy on first SCF cycle will be non-variational
 A restricted Hartree-Fock SCF calculation will be
 performed using Pulay DIIS extrapolation
 SCF converges when DIIS error is below 1.0E-08
 using 16 threads for integral computing 
 ---------------------------------------
  Cycle       Energy         DIIS Error
 ---------------------------------------
    1   -1106.0124612350      2.98E-02
    2   -1090.2833524018      1.72E-02
    3   -1097.1087038131      8.30E-03
    4   -1101.4719962950      2.12E-03
    5   -1101.5681036638      1.13E-03
    6   -1101.5949137046      2.27E-04
    7   -1101.5966185628      7.81E-05
    8   -1101.5968938167      3.30E-05
    9   -1101.5969613088      1.50E-05
   10   -1101.5969767960      8.29E-06
   11   -1101.5969804364      2.57E-06
   12   -1101.5969809955      1.07E-06
   13   -1101.5969810578      3.08E-07
   14   -1101.5969810583      8.70E-08
   15   -1101.5969810569      2.83E-08
   16   -1101.5969810564      1.42E-08
   17   -1101.5969810576      4.50E-09 Convergence criterion met
 ---------------------------------------
 SCF time:  CPU 694.66 s  wall 43.47 s
 SCF   energy in the final basis set = -1101.5969810576
 Total energy in the final basis set = -1101.5969810576
 
 Components of the MP2 correlation energy:
        aaaa  correlation energy =        -0.2325638422 au
        abab  correlation energy =        -1.3509031344 au
        bbbb  correlation energy =        -0.2325638422 au
        non-Brillouin singles    =        -0.0000000000 au

 Total  MP2   correlation energy =        -1.8160308187 au
        MP2         total energy =     -1103.4130118763 au

  Entering Z-vector solver.
   1         0           1      0.000268    0.000268
   2         0           1      0.000118    0.000118
   3         0           1      0.000048    0.000048
   4         0           1      0.000022    0.000022
   5         0           1      0.000007    0.000007
   6         0           1      0.000002    0.000002
   7         1           0      0.000000    0.000000    Roots Converged
 
 --------------------------------------------------------------
             Orbital Energies (a.u.) and Symmetries
 --------------------------------------------------------------
 
 Alpha MOs, Restricted
 -- Occupied --                  
-91.984 -91.984 -11.275 -11.274 -11.261 -11.261 -11.239 -11.239
  1 A     1 B     2 A     2 B     3 B     3 A     4 B     4 A                  
-11.237 -11.237  -8.986  -8.986  -6.667  -6.667  -6.666  -6.666
  5 B     5 A     6 B     6 A     7 B     7 A     8 B     8 A                  
 -6.666  -6.666  -1.197  -1.166  -1.036  -1.000  -0.985  -0.948
  9 A     9 B    10 A    10 B    11 A    12 A    11 B    12 B                  
 -0.810  -0.779  -0.747  -0.717  -0.708  -0.644  -0.574  -0.572
 13 A    14 A    13 B    14 B    15 A    15 B    16 A    17 A                  
 -0.560  -0.554  -0.542  -0.512  -0.510  -0.489  -0.464  -0.375
 16 B    17 B    18 A    19 A    18 B    20 A    19 B    20 B                  
 -0.355  -0.347  -0.279
 21 B    21 A    22 A                                                          
 -- Virtual --                   
  0.073   0.140   0.150   0.153   0.160   0.174   0.176   0.182
 22 B    23 A    24 A    23 B    25 A    26 A    24 B    25 B                  
  0.199   0.217   0.218   0.240   0.252   0.290   0.307   0.354
 27 A    28 A    26 B    29 A    27 B    28 B    30 A    29 B                  
  0.354   0.366   0.371   0.372   0.389   0.400   0.420   0.431
 31 A    32 A    33 A    30 B    31 B    32 B    33 B    34 A                  
  0.447   0.451   0.463   0.464   0.480   0.485   0.518   0.520
 34 B    35 A    35 B    36 A    37 A    36 B    38 A    37 B                  
  0.528   0.536   0.539   0.544   0.552   0.557   0.566   0.570
 39 A    38 B    40 A    39 B    41 A    40 B    41 B    42 A                  
  0.578   0.589   0.597   0.600   0.608   0.610   0.618   0.622
 42 B    43 A    44 A    43 B    44 B    45 A    46 A    45 B                  
  0.635   0.640   0.653   0.667   0.668   0.701   0.730   0.743
 47 A    46 B    48 A    47 B    49 A    48 B    50 A    49 B                  
  0.745   0.770   0.775   0.788   0.810   0.820   0.837   0.851
 51 A    50 B    52 A    51 B    52 B    53 A    54 A    53 B                  
  0.863   0.882   0.884   0.908   0.910   0.934   0.945   0.946
 55 A    54 B    56 A    55 B    57 A    56 B    58 A    57 B                  
  0.967   0.980   0.995   1.016   1.052   1.060   1.071   1.078
 59 A    58 B    59 B    60 A    60 B    61 A    61 B    62 A                  
  1.087   1.095   1.107   1.109   1.131   1.159   1.165   1.172
 62 B    63 A    63 B    64 A    64 B    65 A    66 A    65 B                  
  1.196   1.211   1.212   1.227   1.247   1.259   1.262   1.275
 66 B    67 A    67 B    68 A    68 B    69 B    69 A    70 A                  
  1.284   1.309   1.316   1.329   1.370   1.394   1.415   1.429
 70 B    71 B    71 A    72 A    73 A    72 B    73 B    74 A                  
  1.449   1.462   1.475   1.488   1.498   1.510   1.512   1.533
 75 A    74 B    76 A    75 B    77 A    76 B    78 A    77 B                  
  1.550   1.558   1.563   1.591   1.606   1.614   1.637   1.638
 78 B    79 A    79 B    80 A    81 A    80 B    82 A    81 B                  
  1.660   1.664   1.722   1.736   1.741   1.761   1.803   1.809
 82 B    83 A    83 B    84 A    84 B    85 A    86 A    85 B                  
  1.840   1.860   1.863   1.893   1.900   1.928   1.945   1.960
 86 B    87 B    87 A    88 B    88 A    89 A    89 B    90 A                  
  1.966   1.982   2.062   2.063   2.085   2.123   2.138   2.144
 90 B    91 A    92 A    91 B    92 B    93 A    93 B    94 A                  
  2.167   2.200   2.202   2.203   2.227   2.243   2.252   2.272
 94 B    95 A    95 B    96 A    97 A    96 B    97 B    98 B                  
  2.278   2.291   2.318   2.403   2.423   2.438   2.444   2.471
 98 A    99 A    99 B   100 A   100 B   101 A   101 B   102 B                  
  2.484   2.504   2.513   2.525   2.551   2.561   2.585   2.597
102 A   103 A   103 B   104 A   105 A   104 B   105 B   106 A                  
  2.651   2.663   2.667   2.672   2.721   2.739   2.757   2.766
106 B   107 B   107 A   108 A   109 A   108 B   110 A   111 A                  
  2.771   2.779   2.785   2.790   2.826   2.850   2.889   2.898
109 B   110 B   111 B   112 A   112 B   113 A   113 B   114 B                  
  2.902   2.918   2.938   2.944   2.994   3.006   3.012   3.030
114 A   115 A   116 A   115 B   116 B   117 A   118 A   117 B                  
  3.039   3.072   3.092   3.093   3.150   3.150   3.174   3.177
118 B   119 A   119 B   120 A   121 A   120 B   122 A   121 B                  
  3.208   3.222   3.226   3.246   3.249   3.265   3.269   3.290
122 B   123 B   123 A   124 A   124 B   125 B   125 A   126 A                  
  3.306   3.312   3.317   3.322   3.333   3.357   3.379   3.393
126 B   127 A   128 A   127 B   129 A   128 B   130 A   129 B                  
  3.412   3.418   3.423   3.442   3.445   3.450   3.472   3.474
131 A   130 B   132 A   133 A   131 B   134 A   132 B   135 A                  
  3.491   3.499   3.510   3.512   3.517   3.522   3.525   3.541
133 B   134 B   135 B   136 A   137 A   136 B   138 A   137 B                  
  3.554   3.566   3.568   3.593   3.609   3.613   3.636   3.676
138 B   139 B   139 A   140 A   140 B   141 A   141 B   142 B                  
  3.676   3.697   3.707   3.725   3.733   3.755   3.762   3.782
142 A   143 B   143 A   144 B   144 A   145 A   145 B   146 A                  
  3.821   3.832   3.882   3.884   3.910   3.912   3.926   3.958
147 A   146 B   147 B   148 A   148 B   149 A   149 B   150 B                  
  3.959   3.988   3.992   4.007   4.013   4.014   4.044   4.045
150 A   151 B   151 A   152 A   152 B   153 A   153 B   154 A                  
  4.088   4.118   4.133   4.144   4.167   4.172   4.182   4.190
155 A   154 B   155 B   156 A   157 A   156 B   158 A   157 B                  
  4.196   4.204   4.212   4.249   4.270   4.289   4.300   4.313
159 A   160 A   158 B   159 B   161 A   160 B   162 A   161 B                  
  4.341   4.358   4.418   4.446   4.459   4.476   4.491   4.492
162 B   163 A   163 B   164 A   165 A   164 B   166 A   165 B                  
  4.515   4.594   4.625   4.629   4.647   4.656   4.690   4.695
167 A   166 B   168 A   167 B   169 A   168 B   170 A   169 B                  
  4.702   4.722   4.744   4.762   4.803   4.834   4.836   4.868
171 A   170 B   172 A   171 B   173 A   172 B   174 A   175 A                  
  4.889   4.976   5.013   5.013   5.061   5.061   5.070   5.087
173 B   174 B   176 A   175 B   177 A   178 A   176 B   179 A                  
  5.130   5.140   5.186   5.234   5.253   5.290   5.335   5.353
177 B   178 B   180 A   179 B   180 B   181 A   182 A   181 B                  
  5.386   5.417   5.447   5.451   5.584   5.611   5.632   5.688
183 A   182 B   183 B   184 A   185 A   184 B   185 B   186 A                  
  5.805   5.870   5.983   6.076   6.091   6.144   6.147   6.230
187 A   186 B   188 A   187 B   189 A   188 B   190 A   189 B                  
  6.446   6.529   6.603   6.672   6.851   9.376  10.928  11.733
190 B   191 A   191 B   192 A   192 B   193 A   193 B   194 A                  
 12.400  13.284  13.948  14.411  15.098
194 B   195 A   195 B   196 A   196 B                                          
 
 Beta MOs, Restricted
 -- Occupied --                  
-91.984 -91.984 -11.275 -11.274 -11.261 -11.261 -11.239 -11.239
  1 A     1 B     2 A     2 B     3 B     3 A     4 B     4 A                  
-11.237 -11.237  -8.986  -8.986  -6.667  -6.667  -6.666  -6.666
  5 B     5 A     6 B     6 A     7 B     7 A     8 B     8 A                  
 -6.666  -6.666  -1.197  -1.166  -1.036  -1.000  -0.985  -0.948
  9 A     9 B    10 A    10 B    11 A    12 A    11 B    12 B                  
 -0.810  -0.779  -0.747  -0.717  -0.708  -0.644  -0.574  -0.572
 13 A    14 A    13 B    14 B    15 A    15 B    16 A    17 A                  
 -0.560  -0.554  -0.542  -0.512  -0.510  -0.489  -0.464  -0.375
 16 B    17 B    18 A    19 A    18 B    20 A    19 B    20 B                  
 -0.355  -0.347  -0.279
 21 B    21 A    22 A                                                          
 -- Virtual --                   
  0.073   0.140   0.150   0.153   0.160   0.174   0.176   0.182
 22 B    23 A    24 A    23 B    25 A    26 A    24 B    25 B                  
  0.199   0.217   0.218   0.240   0.252   0.290   0.307   0.354
 27 A    28 A    26 B    29 A    27 B    28 B    30 A    29 B                  
  0.354   0.366   0.371   0.372   0.389   0.400   0.420   0.431
 31 A    32 A    33 A    30 B    31 B    32 B    33 B    34 A                  
  0.447   0.451   0.463   0.464   0.480   0.485   0.518   0.520
 34 B    35 A    35 B    36 A    37 A    36 B    38 A    37 B                  
  0.528   0.536   0.539   0.544   0.552   0.557   0.566   0.570
 39 A    38 B    40 A    39 B    41 A    40 B    41 B    42 A                  
  0.578   0.589   0.597   0.600   0.608   0.610   0.618   0.622
 42 B    43 A    44 A    43 B    44 B    45 A    46 A    45 B                  
  0.635   0.640   0.653   0.667   0.668   0.701   0.730   0.743
 47 A    46 B    48 A    47 B    49 A    48 B    50 A    49 B                  
  0.745   0.770   0.775   0.788   0.810   0.820   0.837   0.851
 51 A    50 B    52 A    51 B    52 B    53 A    54 A    53 B                  
  0.863   0.882   0.884   0.908   0.910   0.934   0.945   0.946
 55 A    54 B    56 A    55 B    57 A    56 B    58 A    57 B                  
  0.967   0.980   0.995   1.016   1.052   1.060   1.071   1.078
 59 A    58 B    59 B    60 A    60 B    61 A    61 B    62 A                  
  1.087   1.095   1.107   1.109   1.131   1.159   1.165   1.172
 62 B    63 A    63 B    64 A    64 B    65 A    66 A    65 B                  
  1.196   1.211   1.212   1.227   1.247   1.259   1.262   1.275
 66 B    67 A    67 B    68 A    68 B    69 B    69 A    70 A                  
  1.284   1.309   1.316   1.329   1.370   1.394   1.415   1.429
 70 B    71 B    71 A    72 A    73 A    72 B    73 B    74 A                  
  1.449   1.462   1.475   1.488   1.498   1.510   1.512   1.533
 75 A    74 B    76 A    75 B    77 A    76 B    78 A    77 B                  
  1.550   1.558   1.563   1.591   1.606   1.614   1.637   1.638
 78 B    79 A    79 B    80 A    81 A    80 B    82 A    81 B                  
  1.660   1.664   1.722   1.736   1.741   1.761   1.803   1.809
 82 B    83 A    83 B    84 A    84 B    85 A    86 A    85 B                  
  1.840   1.860   1.863   1.893   1.900   1.928   1.945   1.960
 86 B    87 B    87 A    88 B    88 A    89 A    89 B    90 A                  
  1.966   1.982   2.062   2.063   2.085   2.123   2.138   2.144
 90 B    91 A    92 A    91 B    92 B    93 A    93 B    94 A                  
  2.167   2.200   2.202   2.203   2.227   2.243   2.252   2.272
 94 B    95 A    95 B    96 A    97 A    96 B    97 B    98 B                  
  2.278   2.291   2.318   2.403   2.423   2.438   2.444   2.471
 98 A    99 A    99 B   100 A   100 B   101 A   101 B   102 B                  
  2.484   2.504   2.513   2.525   2.551   2.561   2.585   2.597
102 A   103 A   103 B   104 A   105 A   104 B   105 B   106 A                  
  2.651   2.663   2.667   2.672   2.721   2.739   2.757   2.766
106 B   107 B   107 A   108 A   109 A   108 B   110 A   111 A                  
  2.771   2.779   2.785   2.790   2.826   2.850   2.889   2.898
109 B   110 B   111 B   112 A   112 B   113 A   113 B   114 B                  
  2.902   2.918   2.938   2.944   2.994   3.006   3.012   3.030
114 A   115 A   116 A   115 B   116 B   117 A   118 A   117 B                  
  3.039   3.072   3.092   3.093   3.150   3.150   3.174   3.177
118 B   119 A   119 B   120 A   121 A   120 B   122 A   121 B                  
  3.208   3.222   3.226   3.246   3.249   3.265   3.269   3.290
122 B   123 B   123 A   124 A   124 B   125 B   125 A   126 A                  
  3.306   3.312   3.317   3.322   3.333   3.357   3.379   3.393
126 B   127 A   128 A   127 B   129 A   128 B   130 A   129 B                  
  3.412   3.418   3.423   3.442   3.445   3.450   3.472   3.474
131 A   130 B   132 A   133 A   131 B   134 A   132 B   135 A                  
  3.491   3.499   3.510   3.512   3.517   3.522   3.525   3.541
133 B   134 B   135 B   136 A   137 A   136 B   138 A   137 B                  
  3.554   3.566   3.568   3.593   3.609   3.613   3.636   3.676
138 B   139 B   139 A   140 A   140 B   141 A   141 B   142 B                  
  3.676   3.697   3.707   3.725   3.733   3.755   3.762   3.782
142 A   143 B   143 A   144 B   144 A   145 A   145 B   146 A                  
  3.821   3.832   3.882   3.884   3.910   3.912   3.926   3.958
147 A   146 B   147 B   148 A   148 B   149 A   149 B   150 B                  
  3.959   3.988   3.992   4.007   4.013   4.014   4.044   4.045
150 A   151 B   151 A   152 A   152 B   153 A   153 B   154 A                  
  4.088   4.118   4.133   4.144   4.167   4.172   4.182   4.190
155 A   154 B   155 B   156 A   157 A   156 B   158 A   157 B                  
  4.196   4.204   4.212   4.249   4.270   4.289   4.300   4.313
159 A   160 A   158 B   159 B   161 A   160 B   162 A   161 B                  
  4.341   4.358   4.418   4.446   4.459   4.476   4.491   4.492
162 B   163 A   163 B   164 A   165 A   164 B   166 A   165 B                  
  4.515   4.594   4.625   4.629   4.647   4.656   4.690   4.695
167 A   166 B   168 A   167 B   169 A   168 B   170 A   169 B                  
  4.702   4.722   4.744   4.762   4.803   4.834   4.836   4.868
171 A   170 B   172 A   171 B   173 A   172 B   174 A   175 A                  
  4.889   4.976   5.013   5.013   5.061   5.061   5.070   5.087
173 B   174 B   176 A   175 B   177 A   178 A   176 B   179 A                  
  5.130   5.140   5.186   5.234   5.253   5.290   5.335   5.353
177 B   178 B   180 A   179 B   180 B   181 A   182 A   181 B                  
  5.386   5.417   5.447   5.451   5.584   5.611   5.632   5.688
183 A   182 B   183 B   184 A   185 A   184 B   185 B   186 A                  
  5.805   5.870   5.983   6.076   6.091   6.144   6.147   6.230
187 A   186 B   188 A   187 B   189 A   188 B   190 A   189 B                  
  6.446   6.529   6.603   6.672   6.851   9.376  10.928  11.733
190 B   191 A   191 B   192 A   192 B   193 A   193 B   194 A                  
 12.400  13.284  13.948  14.411  15.098
194 B   195 A   195 B   196 A   196 B                                          
 --------------------------------------------------------------
 
          Ground-State Mulliken Net Atomic Charges

     Atom                 Charge (a.u.)
  ----------------------------------------
      1 S                     0.104077
      2 C                    -0.235028
      3 C                    -0.204480
      4 C                    -0.187993
      5 C                    -0.001320
      6 H                     0.165195
      7 C                    -0.001321
      8 S                     0.104076
      9 C                    -0.187992
     10 C                    -0.235024
     11 C                    -0.204484
     12 H                     0.173980
     13 H                     0.185571
     14 H                     0.173980
     15 H                     0.185570
     16 H                     0.165194
  ----------------------------------------
  Sum of atomic charges =     0.000000

 -----------------------------------------------------------------
                    Cartesian Multipole Moments
 -----------------------------------------------------------------
    Charge (ESU x 10^10)
                 0.0000
    Dipole Moment (Debye)
         X      -0.0000      Y       0.0000      Z      -0.7003
       Tot       0.7003
    Quadrupole Moments (Debye-Ang)
        XX     -61.0763     XY      -0.4533     YY     -77.7634
        XZ      -0.0000     YZ      -0.0000     ZZ     -67.6829
    Octopole Moments (Debye-Ang^2)
       XXX      -0.0000    XXY       0.0000    XYY       0.0000
       YYY       0.0000    XXZ       5.7741    XYZ       4.7517
       YYZ       3.4868    XZZ       0.0000    YZZ       0.0000
       ZZZ      -6.0758
    Hexadecapole Moments (Debye-Ang^3)
      XXXX   -1815.7163   XXXY      -3.1983   XXYY    -402.3913
      XYYY       3.6926   YYYY    -112.0600   XXXZ      -0.0000
      XXYZ      -0.0000   XYYZ      -0.0000   YYYZ      -0.0000
      XXZZ    -393.2535   XYZZ      -4.9007   YYZZ    -117.3293
      XZZZ      -0.0000   YZZZ       0.0000   ZZZZ    -528.8894
 -----------------------------------------------------------------
 DrvMan is completing analytic gradient of the MP2 energy
 MP2 relaxed dipole moment
            1
    1  -0.0000000
    2   0.0000000
    3  -0.2755140
	Magnitude:	 0.276 au	 0.700 Debye
 MP2 energy read as -1103.413012
 Full Analytical Gradient of MP2 Energy (in au.)
             1             2             3             4             5
    1   -0.00159142   -0.00043886    0.00042583    0.00079964   -0.00020269
    2   -0.00006872   -0.00007062   -0.00015913    0.00055942   -0.00029926
    3    0.00044344   -0.00025287   -0.00009520    0.00054400   -0.00060416
             6             7             8             9            10
    1   -0.00021058    0.00020269    0.00159142   -0.00079964    0.00043886
    2    0.00008944    0.00029926    0.00006872   -0.00055942    0.00007062
    3   -0.00008770   -0.00060416    0.00044344    0.00054400   -0.00025287
            11            12            13            14            15
    1   -0.00042584   -0.00003396    0.00004836    0.00003397   -0.00004836
    2    0.00015913    0.00002530   -0.00011274   -0.00002530    0.00011274
    3   -0.00009520    0.00003840    0.00001409    0.00003840    0.00001409
            16
    1    0.00021058
    2   -0.00008945
    3   -0.00008770
 Gradient time:  CPU 1.53 s  wall 0.10 s
 Geometry Optimization Parameters
   NAtoms,    NIC,     NZ,  NCons,   NDum,   NFix, NCnnct, MaxDiis
       16     111       0       1       0       0       0       0


** CONSTRAINED OPTIMIZATION IN DELOCALIZED INTERNAL COORDINATES **
   Searching for a Minimum

   Optimization Cycle:   1

                       Coordinates (Angstroms)
     ATOM                X               Y               Z
      1  S         1.6012978269    0.2299918019    1.1153559479
      2  C         3.1008292929    0.0425111648    0.3220341782
      3  C         2.9328980460   -0.1845407992   -1.0212885970
      4  C         1.5809040813   -0.2185802190   -1.3975944051
      5  C         0.7184049249   -0.0146218460   -0.3406651210
      6  H         1.2316109112   -0.4073592390   -2.3970587805
      7  C        -0.7184049249    0.0146218460   -0.3406651210
      8  S        -1.6012978269   -0.2299918019    1.1153559479
      9  C        -1.5809040813    0.2185802190   -1.3975944051
     10  C        -3.1008292929   -0.0425111648    0.3220341782
     11  C        -2.9328980460    0.1845407992   -1.0212885970
     12  H        -3.7543590824    0.3284466926   -1.6985295856
     13  H         4.0165678660    0.1083309071    0.8749768649
     14  H         3.7543590824   -0.3284466926   -1.6985295856
     15  H        -4.0165678660   -0.1083309071    0.8749768649
     16  H        -1.2316109112    0.4073592390   -2.3970587805
   Point Group: c2    Number of degrees of freedom:    22


   Energy is  -1103.413011876

              Constraints and their Current Values
                                        Value     Constraint
   Dihedral:        4   5   7   9      -20.000      -20.000

 Attempting to Generate Delocalized Internal Coordinates

 21 Hessian modes will be used to form the next step
  Hessian Eigenvalues:
     0.045000    0.045000    0.045000    0.045002    0.045003    0.045012
     0.159945    0.159993    0.160000    0.221308    0.238060    0.249999
     0.326324    0.340049    0.365509    0.366895    0.370094    0.399848
     0.435412    0.463135    0.495504

 Minimum Search - Taking Simple RFO Step
 Searching for Lamda that Minimizes Along All modes
 Value Taken    Lamda =  -0.00021263
 Step Taken.  Stepsize is  0.037196

                             Maximum     Tolerance    Cnvgd?
         Gradient           0.005930      0.000300      NO
         Displacement       0.025264      0.001200      NO
         Energy change     *********      0.000001      NO


 New Cartesian Coordinates Obtained by Inverse Iteration

 Displacement from previous Coordinates is:  0.177320
 ----------------------------------------------------------------
             Standard Nuclear Orientation (Angstroms)
    I     Atom           X                Y                Z
 ----------------------------------------------------------------
    1      S       1.6240024527     0.2335783931     1.1241033718
    2      C       3.1130397940     0.0468573131     0.3116325255
    3      C       2.9253386309    -0.1856782391    -1.0280855637
    4      C       1.5684868315    -0.2238597763    -1.3857360248
    5      C       0.7191173333    -0.0163641480    -0.3188614261
    6      H       1.2076150503    -0.4161623015    -2.3801937289
    7      C      -0.7191173333     0.0163641480    -0.3188614261
    8      S      -1.6240024527    -0.2335783931     1.1241033718
    9      C      -1.5684868315     0.2238597763    -1.3857360248
   10      C      -3.1130397940    -0.0468573131     0.3116325255
   11      C      -2.9253386309     0.1856782391    -1.0280855637
   12      H      -3.7370735970     0.3299879988    -1.7168581646
   13      H       4.0362616265     0.1177362897     0.8512295127
   14      H       3.7370735970    -0.3299879988    -1.7168581646
   15      H      -4.0362616265    -0.1177362897     0.8512295127
   16      H      -1.2076150503     0.4161623015    -2.3801937289
 ----------------------------------------------------------------
 Molecular Point Group                 C2    NOp =  2
 Largest Abelian Subgroup              C2    NOp =  2
 Nuclear Repulsion Energy =   639.4442975613 hartrees
 There are       43 alpha and       43 beta electrons
 Applying Cartesian multipole field
    Component          Value
    ---------          -----
     (2,0,0)        1.00000E-11
     (0,2,0)        2.00000E-10
     (0,0,2)       -3.00000E-11
 Nucleus-field energy     =     0.0000000064 hartrees
 Requested basis set is cc-pVTZ
 There are 140 shells and 392 basis functions
 A cutoff of  1.0D-11 yielded   8030 shell pairs
 There are     62342 function pairs (     81276 Cartesian)
 Smallest overlap matrix eigenvalue = 6.03E-05
 Guess MOs from SCF MO coefficient file
 Reading MOs from coefficient file
 Reading MOs from coefficient file
 A restricted Hartree-Fock SCF calculation will be
 performed using Pulay DIIS extrapolation
 SCF converges when DIIS error is below 1.0E-08
 Geometry optimization detected.  Setting ReadMinima to 0
 Setting SaveMinima to 0
 using 16 threads for integral computing 
 ---------------------------------------
  Cycle       Energy         DIIS Error
 ---------------------------------------
    1   -1101.5926956632      2.76E-04
    2   -1101.5975944762      4.03E-05
    3   -1101.5976443818      1.66E-05
    4   -1101.5976512000      8.51E-06
    5   -1101.5976533880      1.56E-06
    6   -1101.5976535183      8.36E-07
    7   -1101.5976535441      2.60E-07
    8   -1101.5976535473      9.24E-08
    9   -1101.5976535475      3.11E-08
   10   -1101.5976535479      1.11E-08
   11   -1101.5976535482      3.90E-09 Convergence criterion met
 ---------------------------------------
 SCF time:  CPU 717.09 s  wall 44.86 s
 SCF   energy in the final basis set = -1101.5976535482
 Total energy in the final basis set = -1101.5976535482
 
 Components of the MP2 correlation energy:
        aaaa  correlation energy =        -0.2324879621 au
        abab  correlation energy =        -1.3507189819 au
        bbbb  correlation energy =        -0.2324879621 au
        non-Brillouin singles    =        -0.0000000000 au

 Total  MP2   correlation energy =        -1.8156949060 au
        MP2         total energy =     -1103.4133484542 au

  Entering Z-vector solver.
   1         0           1      0.000268    0.000268
   2         0           1      0.000118    0.000118
   3         0           1      0.000048    0.000048
   4         0           1      0.000022    0.000022
   5         0           1      0.000007    0.000007
   6         0           1      0.000002    0.000002
   7         1           0      0.000000    0.000000    Roots Converged
 
 --------------------------------------------------------------
             Orbital Energies (a.u.) and Symmetries
 --------------------------------------------------------------
 
 Alpha MOs, Restricted
 -- Occupied --                  
-91.985 -91.985 -11.276 -11.275 -11.261 -11.261 -11.238 -11.238
  1 A     1 B     2 A     2 B     3 B     3 A     4 B     4 A                  
-11.237 -11.237  -8.986  -8.986  -6.667  -6.667  -6.667  -6.667
  5 B     5 A     6 B     6 A     7 B     7 A     8 A     8 B                  
 -6.666  -6.666  -1.197  -1.166  -1.036  -1.000  -0.985  -0.948
  9 A     9 B    10 A    10 B    11 A    12 A    11 B    12 B                  
 -0.810  -0.779  -0.747  -0.717  -0.708  -0.645  -0.575  -0.572
 13 A    14 A    13 B    14 B    15 A    15 B    16 A    17 A                  
 -0.560  -0.554  -0.542  -0.512  -0.511  -0.488  -0.464  -0.375
 16 B    17 B    18 A    19 A    18 B    20 A    19 B    20 B                  
 -0.355  -0.347  -0.279
 21 B    21 A    22 A                                                          
 -- Virtual --                   
  0.073   0.140   0.150   0.153   0.160   0.174   0.176   0.182
 22 B    23 A    24 A    23 B    25 A    26 A    24 B    25 B                  
  0.200   0.216   0.218   0.240   0.252   0.289   0.308   0.353
 27 A    28 A    26 B    29 A    27 B    28 B    30 A    29 B                  
  0.354   0.367   0.371   0.372   0.389   0.399   0.419   0.431
 31 A    32 A    30 B    33 A    31 B    32 B    33 B    34 A                  
  0.447   0.451   0.463   0.465   0.480   0.486   0.517   0.518
 34 B    35 A    35 B    36 A    37 A    36 B    38 A    37 B                  
  0.528   0.536   0.539   0.544   0.550   0.558   0.567   0.569
 39 A    38 B    40 A    39 B    41 A    40 B    41 B    42 A                  
  0.579   0.589   0.598   0.599   0.608   0.611   0.618   0.623
 42 B    43 A    44 A    43 B    44 B    45 A    46 A    45 B                  
  0.635   0.640   0.654   0.666   0.668   0.699   0.730   0.743
 47 A    46 B    48 A    49 A    47 B    48 B    50 A    49 B                  
  0.746   0.770   0.776   0.788   0.810   0.819   0.837   0.851
 51 A    50 B    52 A    51 B    52 B    53 A    54 A    53 B                  
  0.862   0.883   0.885   0.906   0.911   0.934   0.941   0.946
 55 A    54 B    56 A    55 B    57 A    56 B    58 A    57 B                  
  0.971   0.979   0.996   1.015   1.052   1.068   1.073   1.082
 59 A    58 B    59 B    60 A    60 B    61 A    61 B    62 A                  
  1.087   1.095   1.107   1.108   1.131   1.158   1.165   1.172
 62 B    63 A    63 B    64 A    64 B    65 A    66 A    65 B                  
  1.196   1.211   1.212   1.225   1.247   1.259   1.261   1.271
 66 B    67 B    67 A    68 A    68 B    69 B    69 A    70 A                  
  1.287   1.308   1.317   1.331   1.371   1.393   1.414   1.428
 70 B    71 B    71 A    72 A    73 A    72 B    73 B    74 A                  
  1.447   1.462   1.475   1.489   1.499   1.510   1.511   1.534
 75 A    74 B    76 A    75 B    77 A    76 B    78 A    77 B                  
  1.551   1.558   1.563   1.590   1.607   1.615   1.636   1.639
 78 B    79 A    79 B    80 A    81 A    80 B    82 A    81 B                  
  1.662   1.663   1.725   1.734   1.741   1.761   1.807   1.810
 82 B    83 A    83 B    84 A    84 B    85 A    86 A    85 B                  
  1.841   1.859   1.861   1.893   1.898   1.928   1.942   1.960
 86 B    87 A    87 B    88 B    88 A    89 A    89 B    90 A                  
  1.960   1.980   2.060   2.065   2.085   2.124   2.125   2.144
 90 B    91 A    92 A    91 B    92 B    93 A    93 B    94 A                  
  2.167   2.198   2.201   2.203   2.227   2.244   2.252   2.272
 94 B    95 A    95 B    96 A    97 A    96 B    97 B    98 B                  
  2.278   2.291   2.314   2.404   2.424   2.438   2.445   2.471
 98 A    99 A    99 B   100 A   100 B   101 A   101 B   102 B                  
  2.483   2.505   2.512   2.524   2.552   2.561   2.585   2.597
102 A   103 A   103 B   104 A   105 A   104 B   105 B   106 A                  
  2.650   2.664   2.665   2.672   2.722   2.739   2.756   2.766
106 B   107 B   107 A   108 A   109 A   108 B   110 A   111 A                  
  2.771   2.779   2.785   2.790   2.825   2.850   2.888   2.899
109 B   110 B   111 B   112 A   112 B   113 A   113 B   114 B                  
  2.902   2.918   2.938   2.944   2.995   3.005   3.011   3.028
114 A   115 A   116 A   115 B   116 B   117 A   118 A   117 B                  
  3.037   3.070   3.092   3.092   3.148   3.150   3.174   3.177
118 B   119 A   120 A   119 B   120 B   121 A   122 A   121 B                  
  3.208   3.222   3.225   3.248   3.249   3.265   3.268   3.288
122 B   123 B   123 A   124 B   124 A   125 B   125 A   126 A                  
  3.308   3.310   3.318   3.323   3.334   3.355   3.377   3.391
126 B   127 A   128 A   127 B   129 A   128 B   130 A   129 B                  
  3.414   3.418   3.424   3.440   3.445   3.450   3.471   3.473
131 A   130 B   132 A   133 A   131 B   134 A   132 B   135 A                  
  3.491   3.499   3.511   3.512   3.516   3.524   3.525   3.543
133 B   134 B   136 A   135 B   137 A   136 B   138 A   137 B                  
  3.552   3.566   3.566   3.591   3.606   3.612   3.635   3.676
138 B   139 B   139 A   140 A   140 B   141 A   141 B   142 A                  
  3.677   3.696   3.707   3.725   3.730   3.755   3.762   3.779
142 B   143 B   143 A   144 B   144 A   145 A   145 B   146 A                  
  3.819   3.831   3.881   3.884   3.908   3.910   3.926   3.961
147 A   146 B   147 B   148 A   148 B   149 A   149 B   150 A                  
  3.961   3.988   3.992   4.009   4.012   4.014   4.043   4.044
150 B   151 B   151 A   152 A   153 A   152 B   154 A   153 B                  
  4.087   4.119   4.133   4.143   4.166   4.172   4.183   4.189
155 A   154 B   155 B   156 A   157 A   156 B   158 A   157 B                  
  4.199   4.204   4.208   4.248   4.269   4.291   4.300   4.316
159 A   160 A   158 B   159 B   161 A   160 B   162 A   161 B                  
  4.343   4.360   4.418   4.448   4.460   4.476   4.493   4.494
162 B   163 A   163 B   164 A   165 A   164 B   165 B   166 A                  
  4.514   4.594   4.626   4.630   4.647   4.655   4.689   4.695
167 A   166 B   168 A   167 B   169 A   168 B   170 A   169 B                  
  4.701   4.724   4.745   4.762   4.804   4.836   4.838   4.865
171 A   170 B   172 A   171 B   173 A   174 A   172 B   175 A                  
  4.889   4.977   5.007   5.013   5.058   5.060   5.070   5.087
173 B   174 B   176 A   175 B   177 A   178 A   176 B   179 A                  
  5.127   5.139   5.189   5.231   5.253   5.290   5.334   5.351
177 B   178 B   180 A   179 B   180 B   181 A   182 A   181 B                  
  5.387   5.417   5.444   5.451   5.584   5.611   5.630   5.686
183 A   182 B   183 B   184 A   185 A   184 B   185 B   186 A                  
  5.802   5.872   5.985   6.071   6.091   6.142   6.147   6.231
187 A   186 B   188 A   187 B   189 A   188 B   190 A   189 B                  
  6.445   6.528   6.601   6.671   6.848   9.367  10.919  11.735
190 B   191 A   191 B   192 A   192 B   193 A   193 B   194 A                  
 12.381  13.279  13.945  14.411  15.085
194 B   195 A   195 B   196 A   196 B                                          
 
 Beta MOs, Restricted
 -- Occupied --                  
-91.985 -91.985 -11.276 -11.275 -11.261 -11.261 -11.238 -11.238
  1 A     1 B     2 A     2 B     3 B     3 A     4 B     4 A                  
-11.237 -11.237  -8.986  -8.986  -6.667  -6.667  -6.667  -6.667
  5 B     5 A     6 B     6 A     7 B     7 A     8 A     8 B                  
 -6.666  -6.666  -1.197  -1.166  -1.036  -1.000  -0.985  -0.948
  9 A     9 B    10 A    10 B    11 A    12 A    11 B    12 B                  
 -0.810  -0.779  -0.747  -0.717  -0.708  -0.645  -0.575  -0.572
 13 A    14 A    13 B    14 B    15 A    15 B    16 A    17 A                  
 -0.560  -0.554  -0.542  -0.512  -0.511  -0.488  -0.464  -0.375
 16 B    17 B    18 A    19 A    18 B    20 A    19 B    20 B                  
 -0.355  -0.347  -0.279
 21 B    21 A    22 A                                                          
 -- Virtual --                   
  0.073   0.140   0.150   0.153   0.160   0.174   0.176   0.182
 22 B    23 A    24 A    23 B    25 A    26 A    24 B    25 B                  
  0.200   0.216   0.218   0.240   0.252   0.289   0.308   0.353
 27 A    28 A    26 B    29 A    27 B    28 B    30 A    29 B                  
  0.354   0.367   0.371   0.372   0.389   0.399   0.419   0.431
 31 A    32 A    30 B    33 A    31 B    32 B    33 B    34 A                  
  0.447   0.451   0.463   0.465   0.480   0.486   0.517   0.518
 34 B    35 A    35 B    36 A    37 A    36 B    38 A    37 B                  
  0.528   0.536   0.539   0.544   0.550   0.558   0.567   0.569
 39 A    38 B    40 A    39 B    41 A    40 B    41 B    42 A                  
  0.579   0.589   0.598   0.599   0.608   0.611   0.618   0.623
 42 B    43 A    44 A    43 B    44 B    45 A    46 A    45 B                  
  0.635   0.640   0.654   0.666   0.668   0.699   0.730   0.743
 47 A    46 B    48 A    49 A    47 B    48 B    50 A    49 B                  
  0.746   0.770   0.776   0.788   0.810   0.819   0.837   0.851
 51 A    50 B    52 A    51 B    52 B    53 A    54 A    53 B                  
  0.862   0.883   0.885   0.906   0.911   0.934   0.941   0.946
 55 A    54 B    56 A    55 B    57 A    56 B    58 A    57 B                  
  0.971   0.979   0.996   1.015   1.052   1.068   1.073   1.082
 59 A    58 B    59 B    60 A    60 B    61 A    61 B    62 A                  
  1.087   1.095   1.107   1.108   1.131   1.158   1.165   1.172
 62 B    63 A    63 B    64 A    64 B    65 A    66 A    65 B                  
  1.196   1.211   1.212   1.225   1.247   1.259   1.261   1.271
 66 B    67 B    67 A    68 A    68 B    69 B    69 A    70 A                  
  1.287   1.308   1.317   1.331   1.371   1.393   1.414   1.428
 70 B    71 B    71 A    72 A    73 A    72 B    73 B    74 A                  
  1.447   1.462   1.475   1.489   1.499   1.510   1.511   1.534
 75 A    74 B    76 A    75 B    77 A    76 B    78 A    77 B                  
  1.551   1.558   1.563   1.590   1.607   1.615   1.636   1.639
 78 B    79 A    79 B    80 A    81 A    80 B    82 A    81 B                  
  1.662   1.663   1.725   1.734   1.741   1.761   1.807   1.810
 82 B    83 A    83 B    84 A    84 B    85 A    86 A    85 B                  
  1.841   1.859   1.861   1.893   1.898   1.928   1.942   1.960
 86 B    87 A    87 B    88 B    88 A    89 A    89 B    90 A                  
  1.960   1.980   2.060   2.065   2.085   2.124   2.125   2.144
 90 B    91 A    92 A    91 B    92 B    93 A    93 B    94 A                  
  2.167   2.198   2.201   2.203   2.227   2.244   2.252   2.272
 94 B    95 A    95 B    96 A    97 A    96 B    97 B    98 B                  
  2.278   2.291   2.314   2.404   2.424   2.438   2.445   2.471
 98 A    99 A    99 B   100 A   100 B   101 A   101 B   102 B                  
  2.483   2.505   2.512   2.524   2.552   2.561   2.585   2.597
102 A   103 A   103 B   104 A   105 A   104 B   105 B   106 A                  
  2.650   2.664   2.665   2.672   2.722   2.739   2.756   2.766
106 B   107 B   107 A   108 A   109 A   108 B   110 A   111 A                  
  2.771   2.779   2.785   2.790   2.825   2.850   2.888   2.899
109 B   110 B   111 B   112 A   112 B   113 A   113 B   114 B                  
  2.902   2.918   2.938   2.944   2.995   3.005   3.011   3.028
114 A   115 A   116 A   115 B   116 B   117 A   118 A   117 B                  
  3.037   3.070   3.092   3.092   3.148   3.150   3.174   3.177
118 B   119 A   120 A   119 B   120 B   121 A   122 A   121 B                  
  3.208   3.222   3.225   3.248   3.249   3.265   3.268   3.288
122 B   123 B   123 A   124 B   124 A   125 B   125 A   126 A                  
  3.308   3.310   3.318   3.323   3.334   3.355   3.377   3.391
126 B   127 A   128 A   127 B   129 A   128 B   130 A   129 B                  
  3.414   3.418   3.424   3.440   3.445   3.450   3.471   3.473
131 A   130 B   132 A   133 A   131 B   134 A   132 B   135 A                  
  3.491   3.499   3.511   3.512   3.516   3.524   3.525   3.543
133 B   134 B   136 A   135 B   137 A   136 B   138 A   137 B                  
  3.552   3.566   3.566   3.591   3.606   3.612   3.635   3.676
138 B   139 B   139 A   140 A   140 B   141 A   141 B   142 A                  
  3.677   3.696   3.707   3.725   3.730   3.755   3.762   3.779
142 B   143 B   143 A   144 B   144 A   145 A   145 B   146 A                  
  3.819   3.831   3.881   3.884   3.908   3.910   3.926   3.961
147 A   146 B   147 B   148 A   148 B   149 A   149 B   150 A                  
  3.961   3.988   3.992   4.009   4.012   4.014   4.043   4.044
150 B   151 B   151 A   152 A   153 A   152 B   154 A   153 B                  
  4.087   4.119   4.133   4.143   4.166   4.172   4.183   4.189
155 A   154 B   155 B   156 A   157 A   156 B   158 A   157 B                  
  4.199   4.204   4.208   4.248   4.269   4.291   4.300   4.316
159 A   160 A   158 B   159 B   161 A   160 B   162 A   161 B                  
  4.343   4.360   4.418   4.448   4.460   4.476   4.493   4.494
162 B   163 A   163 B   164 A   165 A   164 B   165 B   166 A                  
  4.514   4.594   4.626   4.630   4.647   4.655   4.689   4.695
167 A   166 B   168 A   167 B   169 A   168 B   170 A   169 B                  
  4.701   4.724   4.745   4.762   4.804   4.836   4.838   4.865
171 A   170 B   172 A   171 B   173 A   174 A   172 B   175 A                  
  4.889   4.977   5.007   5.013   5.058   5.060   5.070   5.087
173 B   174 B   176 A   175 B   177 A   178 A   176 B   179 A                  
  5.127   5.139   5.189   5.231   5.253   5.290   5.334   5.351
177 B   178 B   180 A   179 B   180 B   181 A   182 A   181 B                  
  5.387   5.417   5.444   5.451   5.584   5.611   5.630   5.686
183 A   182 B   183 B   184 A   185 A   184 B   185 B   186 A                  
  5.802   5.872   5.985   6.071   6.091   6.142   6.147   6.231
187 A   186 B   188 A   187 B   189 A   188 B   190 A   189 B                  
  6.445   6.528   6.601   6.671   6.848   9.367  10.919  11.735
190 B   191 A   191 B   192 A   192 B   193 A   193 B   194 A                  
 12.381  13.279  13.945  14.411  15.085
194 B   195 A   195 B   196 A   196 B                                          
 --------------------------------------------------------------
 
          Ground-State Mulliken Net Atomic Charges

     Atom                 Charge (a.u.)
  ----------------------------------------
      1 S                     0.105088
      2 C                    -0.237016
      3 C                    -0.202608
      4 C                    -0.186209
      5 C                    -0.005723
      6 H                     0.166466
      7 C                    -0.005723
      8 S                     0.105088
      9 C                    -0.186209
     10 C                    -0.237016
     11 C                    -0.202608
     12 H                     0.173980
     13 H                     0.186022
     14 H                     0.173980
     15 H                     0.186022
     16 H                     0.166466
  ----------------------------------------
  Sum of atomic charges =    -0.000000

 -----------------------------------------------------------------
                    Cartesian Multipole Moments
 -----------------------------------------------------------------
    Charge (ESU x 10^10)
                 0.0000
    Dipole Moment (Debye)
         X      -0.0000      Y       0.0000      Z      -0.7199
       Tot       0.7199
    Quadrupole Moments (Debye-Ang)
        XX     -61.0062     XY      -0.3817     YY     -77.7607
        XZ       0.0000     YZ       0.0000     ZZ     -67.7729
    Octopole Moments (Debye-Ang^2)
       XXX      -0.0000    XXY      -0.0000    XYY      -0.0000
       YYY      -0.0000    XXZ       5.3922    XYZ       4.8104
       YYZ       3.0854    XZZ       0.0000    YZZ       0.0000
       ZZZ      -7.2800
    Hexadecapole Moments (Debye-Ang^3)
      XXXX   -1822.5304   XXXY      -2.7022   XXYY    -404.2172
      XYYY       2.4644   YYYY    -112.6672   XXXZ       0.0000
      XXYZ       0.0000   XYYZ       0.0000   YYYZ      -0.0000
      XXZZ    -395.6340   XYZZ      -5.2890   YYZZ    -117.3311
      XZZZ       0.0000   YZZZ       0.0000   ZZZZ    -529.8610
 -----------------------------------------------------------------
 DrvMan is completing analytic gradient of the MP2 energy
 MP2 relaxed dipole moment
            1
    1  -0.0000000
    2   0.0000000
    3  -0.2832256
	Magnitude:	 0.283 au	 0.720 Debye
 MP2 energy read as -1103.413348
 Full Analytical Gradient of MP2 Energy (in au.)
             1             2             3             4             5
    1    0.00003568    0.00020132    0.00018117    0.00008519    0.00003466
    2   -0.00011898   -0.00002274   -0.00011167    0.00046295   -0.00037107
    3    0.00025208    0.00009371    0.00023423    0.00041832   -0.00094960
             6             7             8             9            10
    1   -0.00009298   -0.00003466   -0.00003568   -0.00008519   -0.00020132
    2    0.00014541    0.00037107    0.00011898   -0.00046295    0.00002274
    3   -0.00004586   -0.00094961    0.00025208    0.00041832    0.00009371
            11            12            13            14            15
    1   -0.00018117    0.00000081    0.00007085   -0.00000081   -0.00007085
    2    0.00011167   -0.00001556   -0.00002476    0.00001556    0.00002476
    3    0.00023423    0.00004252   -0.00004539    0.00004252   -0.00004539
            16
    1    0.00009298
    2   -0.00014541
    3   -0.00004586
 Gradient time:  CPU 1.71 s  wall 0.11 s
 Geometry Optimization Parameters
   NAtoms,    NIC,     NZ,  NCons,   NDum,   NFix, NCnnct, MaxDiis
       16     111       0       1       0       0       0       0

 Cartesian Hessian Update
 Hessian Updated using BFGS Update


** CONSTRAINED OPTIMIZATION IN DELOCALIZED INTERNAL COORDINATES **
   Searching for a Minimum

   Optimization Cycle:   2

                       Coordinates (Angstroms)
     ATOM                X               Y               Z
      1  S         1.6240024527    0.2335783931    1.1241033718
      2  C         3.1130397940    0.0468573131    0.3116325255
      3  C         2.9253386309   -0.1856782391   -1.0280855637
      4  C         1.5684868315   -0.2238597763   -1.3857360248
      5  C         0.7191173333   -0.0163641480   -0.3188614261
      6  H         1.2076150503   -0.4161623015   -2.3801937289
      7  C        -0.7191173333    0.0163641480   -0.3188614261
      8  S        -1.6240024527   -0.2335783931    1.1241033718
      9  C        -1.5684868315    0.2238597763   -1.3857360248
     10  C        -3.1130397940   -0.0468573131    0.3116325255
     11  C        -2.9253386309    0.1856782391   -1.0280855637
     12  H        -3.7370735970    0.3299879988   -1.7168581646
     13  H         4.0362616265    0.1177362897    0.8512295127
     14  H         3.7370735970   -0.3299879988   -1.7168581646
     15  H        -4.0362616265   -0.1177362897    0.8512295127
     16  H        -1.2076150503    0.4161623015   -2.3801937289
   Point Group: c2    Number of degrees of freedom:    22


   Energy is  -1103.413348454

              Constraints and their Current Values
                                        Value     Constraint
   Dihedral:        4   5   7   9      -20.000      -20.000
 Hessian Updated using BFGS Update

 21 Hessian modes will be used to form the next step
  Hessian Eigenvalues:
     0.036456    0.045000    0.045001    0.045002    0.045007    0.045200
     0.157929    0.159985    0.160057    0.185961    0.222736    0.258009
     0.338856    0.341660    0.365463    0.366923    0.370092    0.414100
     0.440985    0.464403    0.497729

 Minimum Search - Taking Simple RFO Step
 Searching for Lamda that Minimizes Along All modes
 Value Taken    Lamda =  -0.00005360
 Step Taken.  Stepsize is  0.030623

                             Maximum     Tolerance    Cnvgd?
         Gradient           0.001853      0.000300      NO
         Displacement       0.022517      0.001200      NO
         Energy change     -0.000337      0.000001      NO


 New Cartesian Coordinates Obtained by Inverse Iteration

 Displacement from previous Coordinates is:  0.111883
 ----------------------------------------------------------------
             Standard Nuclear Orientation (Angstroms)
    I     Atom           X                Y                Z
 ----------------------------------------------------------------
    1      S       1.6336316337     0.2380230919     1.1294528984
    2      C       3.1158042681     0.0511132701     0.3046919105
    3      C       2.9183044336    -0.1870804973    -1.0327763807
    4      C       1.5592042068    -0.2296190388    -1.3787921378
    5      C       0.7186945625    -0.0185458295    -0.3050997755
    6      H       1.1911184207    -0.4268970017    -2.3694909617
    7      C      -0.7186945625     0.0185458295    -0.3050997755
    8      S      -1.6336316337    -0.2380230919     1.1294528984
    9      C      -1.5592042068     0.2296190388    -1.3787921378
   10      C      -3.1158042681    -0.0511132701     0.3046919105
   11      C      -2.9183044336     0.1870804973    -1.0327763807
   12      H      -3.7246159846     0.3326369270    -1.7277216552
   13      H       4.0428326804     0.1263143392     0.8369666038
   14      H       3.7246159846    -0.3326369270    -1.7277216552
   15      H      -4.0428326804    -0.1263143392     0.8369666038
   16      H      -1.1911184207     0.4268970017    -2.3694909617
 ----------------------------------------------------------------
 Molecular Point Group                 C2    NOp =  2
 Largest Abelian Subgroup              C2    NOp =  2
 Nuclear Repulsion Energy =   639.2633074932 hartrees
 There are       43 alpha and       43 beta electrons
 Applying Cartesian multipole field
    Component          Value
    ---------          -----
     (2,0,0)        1.00000E-11
     (0,2,0)        2.00000E-10
     (0,0,2)       -3.00000E-11
 Nucleus-field energy     =     0.0000000065 hartrees
 Requested basis set is cc-pVTZ
 There are 140 shells and 392 basis functions
 A cutoff of  1.0D-11 yielded   8038 shell pairs
 There are     62414 function pairs (     81360 Cartesian)
 Smallest overlap matrix eigenvalue = 6.06E-05
 Guess MOs from SCF MO coefficient file
 Reading MOs from coefficient file
 Reading MOs from coefficient file
 A restricted Hartree-Fock SCF calculation will be
 performed using Pulay DIIS extrapolation
 SCF converges when DIIS error is below 1.0E-08
 Geometry optimization detected.  Setting ReadMinima to 0
 Setting SaveMinima to 0
 using 16 threads for integral computing 
 ---------------------------------------
  Cycle       Energy         DIIS Error
 ---------------------------------------
    1   -1101.5959920590      1.82E-04
    2   -1101.5976363170      2.63E-05
    3   -1101.5976578821      1.14E-05
    4   -1101.5976613160      5.36E-06
    5   -1101.5976622864      1.13E-06
    6   -1101.5976623526      5.26E-07
    7   -1101.5976623679      1.36E-07
    8   -1101.5976623692      4.46E-08
    9   -1101.5976623696      2.32E-08
   10   -1101.5976623698      9.44E-09 Convergence criterion met
 ---------------------------------------
 SCF time:  CPU 686.33 s  wall 42.93 s
 SCF   energy in the final basis set = -1101.5976623698
 Total energy in the final basis set = -1101.5976623698
 
 Components of the MP2 correlation energy:
        aaaa  correlation energy =        -0.2325007406 au
        abab  correlation energy =        -1.3507140869 au
        bbbb  correlation energy =        -0.2325007406 au
        non-Brillouin singles    =        -0.0000000000 au

 Total  MP2   correlation energy =        -1.8157155681 au
        MP2         total energy =     -1103.4133779379 au

  Entering Z-vector solver.
   1         0           1      0.000267    0.000267
   2         0           1      0.000118    0.000118
   3         0           1      0.000048    0.000048
   4         0           1      0.000022    0.000022
   5         0           1      0.000007    0.000007
   6         0           1      0.000002    0.000002
   7         1           0      0.000000    0.000000    Roots Converged
 
 --------------------------------------------------------------
             Orbital Energies (a.u.) and Symmetries
 --------------------------------------------------------------
 
 Alpha MOs, Restricted
 -- Occupied --                  
-91.985 -91.985 -11.275 -11.275 -11.261 -11.261 -11.238 -11.238
  1 A     1 B     2 A     2 B     3 B     3 A     4 B     4 A                  
-11.237 -11.237  -8.987  -8.987  -6.668  -6.668  -6.667  -6.667
  5 B     5 A     6 B     6 A     7 B     7 A     8 A     8 B                  
 -6.666  -6.666  -1.197  -1.167  -1.036  -1.000  -0.985  -0.948
  9 A     9 B    10 A    10 B    11 A    12 A    11 B    12 B                  
 -0.810  -0.779  -0.747  -0.717  -0.708  -0.645  -0.575  -0.571
 13 A    14 A    13 B    14 B    15 A    15 B    16 A    17 A                  
 -0.560  -0.554  -0.542  -0.512  -0.511  -0.488  -0.465  -0.375
 16 B    17 B    18 A    19 A    18 B    20 A    19 B    20 B                  
 -0.355  -0.347  -0.279
 21 B    21 A    22 A                                                          
 -- Virtual --                   
  0.073   0.140   0.150   0.153   0.159   0.174   0.175   0.182
 22 B    23 A    24 A    23 B    25 A    26 A    24 B    25 B                  
  0.200   0.216   0.218   0.240   0.252   0.287   0.308   0.352
 27 A    28 A    26 B    29 A    27 B    28 B    30 A    29 B                  
  0.355   0.367   0.371   0.373   0.389   0.399   0.419   0.431
 31 A    32 A    30 B    33 A    31 B    32 B    33 B    34 A                  
  0.447   0.450   0.463   0.466   0.480   0.486   0.517   0.518
 34 B    35 A    35 B    36 A    37 A    36 B    38 A    37 B                  
  0.528   0.537   0.539   0.544   0.549   0.558   0.567   0.569
 39 A    38 B    40 A    39 B    41 A    40 B    41 B    42 A                  
  0.580   0.588   0.598   0.599   0.608   0.611   0.618   0.624
 42 B    43 A    44 A    43 B    44 B    45 A    46 A    45 B                  
  0.635   0.640   0.655   0.666   0.669   0.698   0.731   0.743
 47 A    46 B    48 A    49 A    47 B    48 B    50 A    49 B                  
  0.745   0.769   0.776   0.787   0.809   0.819   0.838   0.852
 51 A    50 B    52 A    51 B    52 B    53 A    54 A    53 B                  
  0.862   0.883   0.885   0.905   0.912   0.933   0.940   0.946
 55 A    54 B    56 A    55 B    57 A    56 B    58 A    57 B                  
  0.974   0.979   0.998   1.015   1.051   1.070   1.072   1.084
 59 A    58 B    59 B    60 A    60 B    61 A    61 B    62 A                  
  1.086   1.095   1.107   1.108   1.132   1.157   1.165   1.172
 62 B    63 A    63 B    64 A    64 B    65 A    66 A    65 B                  
  1.196   1.212   1.212   1.224   1.247   1.258   1.261   1.269
 66 B    67 B    67 A    68 A    68 B    69 B    69 A    70 A                  
  1.289   1.309   1.317   1.332   1.374   1.392   1.414   1.428
 70 B    71 B    71 A    72 A    73 A    72 B    73 B    74 A                  
  1.446   1.462   1.475   1.490   1.500   1.508   1.510   1.535
 75 A    74 B    76 A    75 B    77 A    76 B    78 A    77 B                  
  1.551   1.558   1.563   1.590   1.607   1.615   1.636   1.639
 78 B    79 A    79 B    80 A    81 A    80 B    82 A    81 B                  
  1.663   1.663   1.726   1.734   1.741   1.761   1.808   1.809
 83 A    82 B    83 B    84 A    84 B    85 A    85 B    86 A                  
  1.841   1.856   1.862   1.893   1.896   1.928   1.939   1.958
 86 B    87 A    87 B    88 B    88 A    89 A    89 B    90 B                  
  1.960   1.979   2.060   2.066   2.086   2.121   2.124   2.145
 90 A    91 A    92 A    91 B    92 B    93 B    93 A    94 A                  
  2.167   2.197   2.200   2.203   2.229   2.244   2.252   2.271
 94 B    95 A    95 B    96 A    97 A    96 B    97 B    98 B                  
  2.278   2.291   2.311   2.404   2.426   2.439   2.446   2.472
 98 A    99 A    99 B   100 A   100 B   101 A   101 B   102 B                  
  2.483   2.505   2.512   2.524   2.552   2.562   2.584   2.597
102 A   103 A   103 B   104 A   105 A   104 B   105 B   106 A                  
  2.650   2.664   2.664   2.673   2.723   2.738   2.756   2.766
106 B   107 A   107 B   108 A   109 A   108 B   110 A   111 A                  
  2.771   2.779   2.785   2.790   2.826   2.850   2.887   2.900
109 B   110 B   111 B   112 A   112 B   113 A   113 B   114 B                  
  2.902   2.918   2.938   2.946   2.995   3.004   3.011   3.027
114 A   115 A   116 A   115 B   116 B   117 A   118 A   117 B                  
  3.037   3.069   3.091   3.094   3.148   3.151   3.174   3.178
118 B   119 A   120 A   119 B   120 B   121 A   122 A   121 B                  
  3.207   3.223   3.225   3.247   3.251   3.265   3.268   3.287
122 B   123 B   123 A   124 B   124 A   125 B   125 A   126 A                  
  3.310   3.310   3.319   3.323   3.336   3.355   3.376   3.389
126 B   127 A   128 A   127 B   129 A   128 B   130 A   129 B                  
  3.414   3.417   3.425   3.439   3.445   3.451   3.470   3.473
131 A   130 B   132 A   133 A   131 B   134 A   132 B   135 A                  
  3.493   3.500   3.511   3.512   3.515   3.525   3.526   3.544
133 B   134 B   136 A   135 B   137 A   138 A   136 B   137 B                  
  3.551   3.565   3.566   3.589   3.606   3.613   3.635   3.676
138 B   139 A   139 B   140 A   140 B   141 A   141 B   142 A                  
  3.678   3.695   3.707   3.726   3.730   3.755   3.763   3.778
142 B   143 B   143 A   144 B   144 A   145 A   145 B   146 A                  
  3.818   3.830   3.881   3.885   3.908   3.909   3.926   3.964
147 A   146 B   147 B   148 A   148 B   149 A   149 B   150 A                  
  3.964   3.988   3.993   4.009   4.013   4.014   4.043   4.045
150 B   151 B   151 A   152 A   153 A   152 B   154 A   153 B                  
  4.088   4.120   4.133   4.143   4.165   4.171   4.184   4.189
155 A   154 B   155 B   156 A   157 A   156 B   158 A   157 B                  
  4.201   4.204   4.206   4.248   4.271   4.293   4.300   4.317
159 A   160 A   158 B   159 B   161 A   160 B   162 A   161 B                  
  4.346   4.363   4.418   4.450   4.462   4.476   4.495   4.496
162 B   163 A   163 B   164 A   165 A   164 B   165 B   166 A                  
  4.514   4.593   4.626   4.631   4.649   4.655   4.689   4.696
167 A   166 B   168 A   167 B   169 A   168 B   170 A   169 B                  
  4.702   4.725   4.747   4.761   4.806   4.836   4.841   4.864
171 A   170 B   172 A   171 B   173 A   174 A   172 B   175 A                  
  4.889   4.977   5.003   5.012   5.055   5.061   5.070   5.087
173 B   174 B   176 A   175 B   177 A   178 A   176 B   179 A                  
  5.125   5.140   5.191   5.230   5.254   5.291   5.334   5.349
177 B   178 B   180 A   179 B   180 B   181 A   182 A   181 B                  
  5.387   5.417   5.443   5.451   5.585   5.611   5.630   5.686
183 A   182 B   183 B   184 A   185 A   184 B   185 B   186 A                  
  5.801   5.875   5.989   6.069   6.093   6.142   6.148   6.231
187 A   186 B   188 A   187 B   189 A   188 B   190 A   189 B                  
  6.447   6.527   6.599   6.672   6.848   9.366  10.923  11.740
190 B   191 A   191 B   192 A   192 B   193 A   193 B   194 A                  
 12.387  13.275  13.941  14.414  15.079
194 B   195 A   195 B   196 A   196 B                                          
 
 Beta MOs, Restricted
 -- Occupied --                  
-91.985 -91.985 -11.275 -11.275 -11.261 -11.261 -11.238 -11.238
  1 A     1 B     2 A     2 B     3 B     3 A     4 B     4 A                  
-11.237 -11.237  -8.987  -8.987  -6.668  -6.668  -6.667  -6.667
  5 B     5 A     6 B     6 A     7 B     7 A     8 A     8 B                  
 -6.666  -6.666  -1.197  -1.167  -1.036  -1.000  -0.985  -0.948
  9 A     9 B    10 A    10 B    11 A    12 A    11 B    12 B                  
 -0.810  -0.779  -0.747  -0.717  -0.708  -0.645  -0.575  -0.571
 13 A    14 A    13 B    14 B    15 A    15 B    16 A    17 A                  
 -0.560  -0.554  -0.542  -0.512  -0.511  -0.488  -0.465  -0.375
 16 B    17 B    18 A    19 A    18 B    20 A    19 B    20 B                  
 -0.355  -0.347  -0.279
 21 B    21 A    22 A                                                          
 -- Virtual --                   
  0.073   0.140   0.150   0.153   0.159   0.174   0.175   0.182
 22 B    23 A    24 A    23 B    25 A    26 A    24 B    25 B                  
  0.200   0.216   0.218   0.240   0.252   0.287   0.308   0.352
 27 A    28 A    26 B    29 A    27 B    28 B    30 A    29 B                  
  0.355   0.367   0.371   0.373   0.389   0.399   0.419   0.431
 31 A    32 A    30 B    33 A    31 B    32 B    33 B    34 A                  
  0.447   0.450   0.463   0.466   0.480   0.486   0.517   0.518
 34 B    35 A    35 B    36 A    37 A    36 B    38 A    37 B                  
  0.528   0.537   0.539   0.544   0.549   0.558   0.567   0.569
 39 A    38 B    40 A    39 B    41 A    40 B    41 B    42 A                  
  0.580   0.588   0.598   0.599   0.608   0.611   0.618   0.624
 42 B    43 A    44 A    43 B    44 B    45 A    46 A    45 B                  
  0.635   0.640   0.655   0.666   0.669   0.698   0.731   0.743
 47 A    46 B    48 A    49 A    47 B    48 B    50 A    49 B                  
  0.745   0.769   0.776   0.787   0.809   0.819   0.838   0.852
 51 A    50 B    52 A    51 B    52 B    53 A    54 A    53 B                  
  0.862   0.883   0.885   0.905   0.912   0.933   0.940   0.946
 55 A    54 B    56 A    55 B    57 A    56 B    58 A    57 B                  
  0.974   0.979   0.998   1.015   1.051   1.070   1.072   1.084
 59 A    58 B    59 B    60 A    60 B    61 A    61 B    62 A                  
  1.086   1.095   1.107   1.108   1.132   1.157   1.165   1.172
 62 B    63 A    63 B    64 A    64 B    65 A    66 A    65 B                  
  1.196   1.212   1.212   1.224   1.247   1.258   1.261   1.269
 66 B    67 B    67 A    68 A    68 B    69 B    69 A    70 A                  
  1.289   1.309   1.317   1.332   1.374   1.392   1.414   1.428
 70 B    71 B    71 A    72 A    73 A    72 B    73 B    74 A                  
  1.446   1.462   1.475   1.490   1.500   1.508   1.510   1.535
 75 A    74 B    76 A    75 B    77 A    76 B    78 A    77 B                  
  1.551   1.558   1.563   1.590   1.607   1.615   1.636   1.639
 78 B    79 A    79 B    80 A    81 A    80 B    82 A    81 B                  
  1.663   1.663   1.726   1.734   1.741   1.761   1.808   1.809
 83 A    82 B    83 B    84 A    84 B    85 A    85 B    86 A                  
  1.841   1.856   1.862   1.893   1.896   1.928   1.939   1.958
 86 B    87 A    87 B    88 B    88 A    89 A    89 B    90 B                  
  1.960   1.979   2.060   2.066   2.086   2.121   2.124   2.145
 90 A    91 A    92 A    91 B    92 B    93 B    93 A    94 A                  
  2.167   2.197   2.200   2.203   2.229   2.244   2.252   2.271
 94 B    95 A    95 B    96 A    97 A    96 B    97 B    98 B                  
  2.278   2.291   2.311   2.404   2.426   2.439   2.446   2.472
 98 A    99 A    99 B   100 A   100 B   101 A   101 B   102 B                  
  2.483   2.505   2.512   2.524   2.552   2.562   2.584   2.597
102 A   103 A   103 B   104 A   105 A   104 B   105 B   106 A                  
  2.650   2.664   2.664   2.673   2.723   2.738   2.756   2.766
106 B   107 A   107 B   108 A   109 A   108 B   110 A   111 A                  
  2.771   2.779   2.785   2.790   2.826   2.850   2.887   2.900
109 B   110 B   111 B   112 A   112 B   113 A   113 B   114 B                  
  2.902   2.918   2.938   2.946   2.995   3.004   3.011   3.027
114 A   115 A   116 A   115 B   116 B   117 A   118 A   117 B                  
  3.037   3.069   3.091   3.094   3.148   3.151   3.174   3.178
118 B   119 A   120 A   119 B   120 B   121 A   122 A   121 B                  
  3.207   3.223   3.225   3.247   3.251   3.265   3.268   3.287
122 B   123 B   123 A   124 B   124 A   125 B   125 A   126 A                  
  3.310   3.310   3.319   3.323   3.336   3.355   3.376   3.389
126 B   127 A   128 A   127 B   129 A   128 B   130 A   129 B                  
  3.414   3.417   3.425   3.439   3.445   3.451   3.470   3.473
131 A   130 B   132 A   133 A   131 B   134 A   132 B   135 A                  
  3.493   3.500   3.511   3.512   3.515   3.525   3.526   3.544
133 B   134 B   136 A   135 B   137 A   138 A   136 B   137 B                  
  3.551   3.565   3.566   3.589   3.606   3.613   3.635   3.676
138 B   139 A   139 B   140 A   140 B   141 A   141 B   142 A                  
  3.678   3.695   3.707   3.726   3.730   3.755   3.763   3.778
142 B   143 B   143 A   144 B   144 A   145 A   145 B   146 A                  
  3.818   3.830   3.881   3.885   3.908   3.909   3.926   3.964
147 A   146 B   147 B   148 A   148 B   149 A   149 B   150 A                  
  3.964   3.988   3.993   4.009   4.013   4.014   4.043   4.045
150 B   151 B   151 A   152 A   153 A   152 B   154 A   153 B                  
  4.088   4.120   4.133   4.143   4.165   4.171   4.184   4.189
155 A   154 B   155 B   156 A   157 A   156 B   158 A   157 B                  
  4.201   4.204   4.206   4.248   4.271   4.293   4.300   4.317
159 A   160 A   158 B   159 B   161 A   160 B   162 A   161 B                  
  4.346   4.363   4.418   4.450   4.462   4.476   4.495   4.496
162 B   163 A   163 B   164 A   165 A   164 B   165 B   166 A                  
  4.514   4.593   4.626   4.631   4.649   4.655   4.689   4.696
167 A   166 B   168 A   167 B   169 A   168 B   170 A   169 B                  
  4.702   4.725   4.747   4.761   4.806   4.836   4.841   4.864
171 A   170 B   172 A   171 B   173 A   174 A   172 B   175 A                  
  4.889   4.977   5.003   5.012   5.055   5.061   5.070   5.087
173 B   174 B   176 A   175 B   177 A   178 A   176 B   179 A                  
  5.125   5.140   5.191   5.230   5.254   5.291   5.334   5.349
177 B   178 B   180 A   179 B   180 B   181 A   182 A   181 B                  
  5.387   5.417   5.443   5.451   5.585   5.611   5.630   5.686
183 A   182 B   183 B   184 A   185 A   184 B   185 B   186 A                  
  5.801   5.875   5.989   6.069   6.093   6.142   6.148   6.231
187 A   186 B   188 A   187 B   189 A   188 B   190 A   189 B                  
  6.447   6.527   6.599   6.672   6.848   9.366  10.923  11.740
190 B   191 A   191 B   192 A   192 B   193 A   193 B   194 A                  
 12.387  13.275  13.941  14.414  15.079
194 B   195 A   195 B   196 A   196 B                                          
 --------------------------------------------------------------
 
          Ground-State Mulliken Net Atomic Charges

     Atom                 Charge (a.u.)
  ----------------------------------------
      1 S                     0.105666
      2 C                    -0.237165
      3 C                    -0.202379
      4 C                    -0.186890
      5 C                    -0.005499
      6 H                     0.166492
      7 C                    -0.005499
      8 S                     0.105666
      9 C                    -0.186890
     10 C                    -0.237165
     11 C                    -0.202379
     12 H                     0.173954
     13 H                     0.185821
     14 H                     0.173954
     15 H                     0.185821
     16 H                     0.166492
  ----------------------------------------
  Sum of atomic charges =     0.000000

 -----------------------------------------------------------------
                    Cartesian Multipole Moments
 -----------------------------------------------------------------
    Charge (ESU x 10^10)
                -0.0000
    Dipole Moment (Debye)
         X      -0.0000      Y       0.0000      Z      -0.7245
       Tot       0.7245
    Quadrupole Moments (Debye-Ang)
        XX     -61.0472     XY      -0.3346     YY     -77.7395
        XZ       0.0000     YZ      -0.0000     ZZ     -67.7948
    Octopole Moments (Debye-Ang^2)
       XXX      -0.0000    XXY       0.0000    XYY      -0.0000
       YYY       0.0000    XXZ       5.0519    XYZ       4.9003
       YYZ       2.8432    XZZ      -0.0000    YZZ       0.0000
       ZZZ      -7.9285
    Hexadecapole Moments (Debye-Ang^3)
      XXXX   -1823.5987   XXXY      -2.4853   XXYY    -404.3144
      XYYY       1.5283   YYYY    -113.3540   XXXZ       0.0000
      XXYZ      -0.0000   XYYZ       0.0000   YYYZ       0.0000
      XXZZ    -396.1483   XYZZ      -5.6178   YYZZ    -117.3230
      XZZZ       0.0000   YZZZ      -0.0000   ZZZZ    -530.3942
 -----------------------------------------------------------------
 DrvMan is completing analytic gradient of the MP2 energy
 MP2 relaxed dipole moment
            1
    1  -0.0000000
    2   0.0000000
    3  -0.2850462
	Magnitude:	 0.285 au	 0.725 Debye
 MP2 energy read as -1103.413378
 Full Analytical Gradient of MP2 Energy (in au.)
             1             2             3             4             5
    1    0.00018675   -0.00016068   -0.00010301    0.00002037   -0.00004043
    2   -0.00010623   -0.00003739   -0.00007912    0.00037819   -0.00053676
    3    0.00041858    0.00000008   -0.00005287    0.00004009   -0.00023383
             6             7             8             9            10
    1    0.00006012    0.00004043   -0.00018675   -0.00002037    0.00016068
    2    0.00012645    0.00053676    0.00010623   -0.00037819    0.00003739
    3   -0.00006864   -0.00023383    0.00041858    0.00004009    0.00000008
            11            12            13            14            15
    1    0.00010301    0.00002235   -0.00002704   -0.00002235    0.00002704
    2    0.00007912   -0.00000954    0.00003732    0.00000954   -0.00003732
    3   -0.00005287   -0.00005910   -0.00004430   -0.00005910   -0.00004430
            16
    1   -0.00006012
    2   -0.00012645
    3   -0.00006864
 Gradient time:  CPU 1.41 s  wall 0.09 s
 Geometry Optimization Parameters
   NAtoms,    NIC,     NZ,  NCons,   NDum,   NFix, NCnnct, MaxDiis
       16     111       0       1       0       0       0       0

 Cartesian Hessian Update
 Hessian Updated using BFGS Update


** CONSTRAINED OPTIMIZATION IN DELOCALIZED INTERNAL COORDINATES **
   Searching for a Minimum

   Optimization Cycle:   3

                       Coordinates (Angstroms)
     ATOM                X               Y               Z
      1  S         1.6336316337    0.2380230919    1.1294528984
      2  C         3.1158042681    0.0511132701    0.3046919105
      3  C         2.9183044336   -0.1870804973   -1.0327763807
      4  C         1.5592042068   -0.2296190388   -1.3787921378
      5  C         0.7186945625   -0.0185458295   -0.3050997755
      6  H         1.1911184207   -0.4268970017   -2.3694909617
      7  C        -0.7186945625    0.0185458295   -0.3050997755
      8  S        -1.6336316337   -0.2380230919    1.1294528984
      9  C        -1.5592042068    0.2296190388   -1.3787921378
[...]
         Gradient           0.000030      0.000300     YES
         Displacement       0.000602      0.001200     YES
         Energy change     -0.000000      0.000001     YES

 Final energy is   -1103.41339138996     


 ******************************
 **  OPTIMIZATION CONVERGED  **
 ******************************

                       Coordinates (Angstroms)
     ATOM                X               Y               Z
      1  S         1.6338549861    0.2505825383    1.1260195674
      2  C         3.1162390212    0.0588420670    0.3027077551
      3  C         2.9182261303   -0.1910858826   -1.0325839579
      4  C         1.5587841040   -0.2391180721   -1.3775171240
      5  C         0.7186253198   -0.0229600491   -0.3044060708
      6  H         1.1894313579   -0.4480092788   -2.3653325289
      7  C        -0.7186253198    0.0229600491   -0.3044060708
      8  S        -1.6338549861   -0.2505825383    1.1260195674
      9  C        -1.5587841040    0.2391180721   -1.3775171240
     10  C        -3.1162390212   -0.0588420670    0.3027077551
     11  C        -2.9182261303    0.1910858826   -1.0325839579
     12  H        -3.7246676616    0.3422476764   -1.7261460237
     13  H         4.0432906562    0.1378950471    0.8344888846
     14  H         3.7246676616   -0.3422476764   -1.7261460237
     15  H        -4.0432906562   -0.1378950471    0.8344888846
     16  H        -1.1894313579    0.4480092788   -2.3653325289

Z-matrix Print:
$molecule
0 1
S 
C  1 1.706479
H  2 1.071665 1 120.249238
C  2 1.372835 1 111.372410 3 -179.964578 0
H  4 1.074349 2 123.042198 1 179.999035 0
C  4 1.403342 2 112.645461 1 0.615302 0
H  6 1.075098 4 124.422763 2 178.297500 0
C  6 1.379912 4 113.159730 2 -0.118798 0
C  8 1.437984 6 127.845990 4 -178.661736 0
C  9 1.379912 8 127.845990 6 20.000000 0
H  10 1.075098 9 122.397846 8 2.885459 0
C  10 1.403342 9 113.159730 8 -178.661736 0
H  12 1.074349 10 124.309237 9 -179.493383 0
C  12 1.372835 10 112.645461 9 -0.118798 0
H  14 1.071665 12 128.378341 10 -179.345666 0
S  14 1.706479 12 111.372410 10 0.615302 0
$end

 
 --------------------------------------------------------------
             Orbital Energies (a.u.) and Symmetries
 --------------------------------------------------------------
 
 Alpha MOs, Restricted
 -- Occupied --                  
-91.985 -91.985 -11.275 -11.274 -11.261 -11.261 -11.238 -11.238
  1 A     1 B     2 A     2 B     3 B     3 A     4 B     4 A                  
-11.237 -11.237  -8.986  -8.986  -6.667  -6.667  -6.667  -6.667
  5 B     5 A     6 B     6 A     7 B     7 A     8 A     8 B                  
 -6.666  -6.666  -1.197  -1.167  -1.036  -1.000  -0.985  -0.948
  9 A     9 B    10 A    10 B    11 A    12 A    11 B    12 B                  
 -0.810  -0.779  -0.747  -0.717  -0.708  -0.645  -0.575  -0.571
 13 A    14 A    13 B    14 B    15 A    15 B    16 A    17 A                  
 -0.561  -0.554  -0.542  -0.512  -0.511  -0.488  -0.465  -0.374
 16 B    17 B    18 A    19 A    18 B    20 A    19 B    20 B                  
 -0.354  -0.347  -0.279
 21 B    21 A    22 A                                                          
 -- Virtual --                   
  0.073   0.140   0.150   0.153   0.159   0.174   0.175   0.183
 22 B    23 A    24 A    23 B    25 A    26 A    24 B    25 B                  
  0.200   0.216   0.217   0.239   0.252   0.287   0.309   0.352
 27 A    28 A    26 B    29 A    27 B    28 B    30 A    29 B                  
  0.355   0.367   0.369   0.373   0.390   0.398   0.419   0.431
 31 A    32 A    30 B    33 A    31 B    32 B    33 B    34 A                  
  0.447   0.451   0.463   0.465   0.480   0.486   0.517   0.517
 34 B    35 A    35 B    36 A    37 A    36 B    38 A    37 B                  
  0.528   0.537   0.539   0.543   0.549   0.558   0.567   0.568
 39 A    38 B    40 A    39 B    41 A    40 B    41 B    42 A                  
  0.580   0.589   0.597   0.599   0.607   0.611   0.618   0.624
 42 B    43 A    44 A    43 B    44 B    45 A    46 A    45 B                  
  0.634   0.640   0.655   0.666   0.669   0.697   0.731   0.742
 47 A    46 B    48 A    49 A    47 B    48 B    50 A    49 B                  
  0.744   0.769   0.777   0.788   0.808   0.819   0.838   0.851
 51 A    50 B    52 A    51 B    52 B    53 A    54 A    53 B                  
  0.862   0.884   0.884   0.903   0.913   0.931   0.941   0.946
 55 A    54 B    56 A    55 B    57 A    56 B    58 A    57 B                  
  0.976   0.978   0.999   1.015   1.050   1.068   1.070   1.084
 59 A    58 B    59 B    60 A    60 B    61 B    61 A    62 A                  
  1.085   1.097   1.107   1.108   1.133   1.158   1.165   1.173
 62 B    63 A    63 B    64 A    64 B    65 A    66 A    65 B                  
  1.196   1.211   1.212   1.224   1.247   1.258   1.261   1.271
 66 B    67 A    67 B    68 A    68 B    69 B    69 A    70 A                  
  1.288   1.309   1.317   1.334   1.375   1.392   1.412   1.429
 70 B    71 B    71 A    72 A    73 A    72 B    73 B    74 A                  
  1.448   1.461   1.475   1.490   1.501   1.506   1.511   1.535
 75 A    74 B    76 A    75 B    77 A    76 B    78 A    77 B                  
  1.551   1.557   1.563   1.589   1.608   1.615   1.637   1.640
 78 B    79 A    79 B    80 A    81 A    80 B    82 A    81 B                  
  1.663   1.664   1.726   1.734   1.739   1.761   1.802   1.810
 82 B    83 A    83 B    84 A    84 B    85 A    85 B    86 A                  
  1.839   1.857   1.864   1.894   1.895   1.928   1.940   1.957
 86 B    87 A    87 B    88 B    88 A    89 A    89 B    90 B                  
  1.960   1.977   2.062   2.065   2.086   2.120   2.123   2.146
 90 A    91 A    92 A    91 B    92 B    93 B    93 A    94 A                  
  2.168   2.198   2.199   2.203   2.231   2.243   2.253   2.271
 94 B    95 A    95 B    96 A    97 A    96 B    97 B    98 B                  
  2.277   2.292   2.311   2.402   2.427   2.440   2.447   2.471
 98 A    99 A    99 B   100 A   100 B   101 A   101 B   102 B                  
  2.484   2.504   2.512   2.524   2.552   2.563   2.582   2.598
102 A   103 A   103 B   104 A   105 A   104 B   105 B   106 A                  
  2.648   2.663   2.664   2.674   2.725   2.736   2.758   2.765
106 B   107 A   107 B   108 A   109 A   108 B   110 A   111 A                  
  2.771   2.778   2.784   2.790   2.826   2.850   2.886   2.899
109 B   110 B   111 B   112 A   112 B   113 A   113 B   114 B                  
  2.902   2.918   2.940   2.948   2.994   3.004   3.012   3.025
114 A   115 A   116 A   115 B   116 B   117 A   118 A   117 B                  
  3.036   3.066   3.093   3.093   3.150   3.151   3.176   3.177
118 B   119 A   120 A   119 B   120 B   121 A   121 B   122 A                  
  3.206   3.222   3.225   3.245   3.252   3.263   3.268   3.287
122 B   123 B   123 A   124 B   124 A   125 B   125 A   126 A                  
  3.310   3.311   3.320   3.322   3.337   3.357   3.377   3.388
127 A   126 B   128 A   127 B   129 A   128 B   130 A   129 B                  
  3.415   3.416   3.424   3.439   3.446   3.450   3.469   3.473
131 A   130 B   132 A   133 A   131 B   134 A   132 B   135 A                  
  3.494   3.500   3.510   3.512   3.515   3.525   3.525   3.544
133 B   134 B   136 A   135 B   137 A   136 B   138 A   137 B                  
  3.551   3.565   3.567   3.589   3.609   3.615   3.634   3.676
138 B   139 A   139 B   140 A   140 B   141 A   141 B   142 A                  
  3.679   3.693   3.707   3.726   3.730   3.753   3.763   3.779
142 B   143 B   143 A   144 B   144 A   145 A   145 B   146 A                  
  3.818   3.830   3.879   3.885   3.908   3.911   3.925   3.962
147 A   146 B   147 B   148 A   148 B   149 A   149 B   150 B                  
  3.963   3.988   3.992   4.009   4.013   4.014   4.042   4.045
150 A   151 B   151 A   152 A   153 A   152 B   154 A   153 B                  
  4.089   4.121   4.132   4.142   4.166   4.170   4.184   4.189
155 A   154 B   155 B   156 A   157 A   156 B   158 A   157 B                  
  4.201   4.203   4.206   4.246   4.272   4.292   4.301   4.315
159 A   160 A   158 B   159 B   161 A   160 B   162 A   161 B                  
  4.348   4.363   4.417   4.450   4.462   4.474   4.496   4.496
162 B   163 A   163 B   164 A   165 A   164 B   165 B   166 A                  
  4.513   4.594   4.626   4.630   4.650   4.654   4.689   4.696
167 A   166 B   168 A   167 B   169 A   168 B   170 A   169 B                  
  4.701   4.723   4.749   4.762   4.807   4.835   4.839   4.864
171 A   170 B   172 A   171 B   173 A   174 A   172 B   175 A                  
  4.885   4.978   5.004   5.007   5.055   5.061   5.070   5.087
173 B   174 B   176 A   175 B   177 A   178 A   176 B   179 A                  
  5.123   5.138   5.192   5.229   5.254   5.290   5.334   5.348
177 B   178 B   180 A   179 B   180 B   181 A   182 A   181 B                  
  5.388   5.416   5.441   5.451   5.585   5.611   5.630   5.686
183 A   182 B   183 B   184 A   185 A   184 B   185 B   186 A                  
  5.802   5.874   5.990   6.066   6.094   6.140   6.149   6.229
187 A   186 B   188 A   187 B   189 A   188 B   190 A   189 B                  
  6.440   6.529   6.598   6.671   6.847   9.373  10.916  11.741
190 B   191 A   191 B   192 A   192 B   193 A   193 B   194 A                  
 12.374  13.273  13.930  14.413  15.073
194 B   195 A   195 B   196 A   196 B                                          
 
 Beta MOs, Restricted
 -- Occupied --                  
-91.985 -91.985 -11.275 -11.274 -11.261 -11.261 -11.238 -11.238
  1 A     1 B     2 A     2 B     3 B     3 A     4 B     4 A                  
-11.237 -11.237  -8.986  -8.986  -6.667  -6.667  -6.667  -6.667
  5 B     5 A     6 B     6 A     7 B     7 A     8 A     8 B                  
 -6.666  -6.666  -1.197  -1.167  -1.036  -1.000  -0.985  -0.948
  9 A     9 B    10 A    10 B    11 A    12 A    11 B    12 B                  
 -0.810  -0.779  -0.747  -0.717  -0.708  -0.645  -0.575  -0.571
 13 A    14 A    13 B    14 B    15 A    15 B    16 A    17 A                  
 -0.561  -0.554  -0.542  -0.512  -0.511  -0.488  -0.465  -0.374
 16 B    17 B    18 A    19 A    18 B    20 A    19 B    20 B                  
 -0.354  -0.347  -0.279
 21 B    21 A    22 A                                                          
 -- Virtual --                   
  0.073   0.140   0.150   0.153   0.159   0.174   0.175   0.183
 22 B    23 A    24 A    23 B    25 A    26 A    24 B    25 B                  
  0.200   0.216   0.217   0.239   0.252   0.287   0.309   0.352
 27 A    28 A    26 B    29 A    27 B    28 B    30 A    29 B                  
  0.355   0.367   0.369   0.373   0.390   0.398   0.419   0.431
 31 A    32 A    30 B    33 A    31 B    32 B    33 B    34 A                  
  0.447   0.451   0.463   0.465   0.480   0.486   0.517   0.517
 34 B    35 A    35 B    36 A    37 A    36 B    38 A    37 B                  
  0.528   0.537   0.539   0.543   0.549   0.558   0.567   0.568
 39 A    38 B    40 A    39 B    41 A    40 B    41 B    42 A                  
  0.580   0.589   0.597   0.599   0.607   0.611   0.618   0.624
 42 B    43 A    44 A    43 B    44 B    45 A    46 A    45 B                  
  0.634   0.640   0.655   0.666   0.669   0.697   0.731   0.742
 47 A    46 B    48 A    49 A    47 B    48 B    50 A    49 B                  
  0.744   0.769   0.777   0.788   0.808   0.819   0.838   0.851
 51 A    50 B    52 A    51 B    52 B    53 A    54 A    53 B                  
  0.862   0.884   0.884   0.903   0.913   0.931   0.941   0.946
 55 A    54 B    56 A    55 B    57 A    56 B    58 A    57 B                  
  0.976   0.978   0.999   1.015   1.050   1.068   1.070   1.084
 59 A    58 B    59 B    60 A    60 B    61 B    61 A    62 A                  
  1.085   1.097   1.107   1.108   1.133   1.158   1.165   1.173
 62 B    63 A    63 B    64 A    64 B    65 A    66 A    65 B                  
  1.196   1.211   1.212   1.224   1.247   1.258   1.261   1.271
 66 B    67 A    67 B    68 A    68 B    69 B    69 A    70 A                  
  1.288   1.309   1.317   1.334   1.375   1.392   1.412   1.429
 70 B    71 B    71 A    72 A    73 A    72 B    73 B    74 A                  
  1.448   1.461   1.475   1.490   1.501   1.506   1.511   1.535
 75 A    74 B    76 A    75 B    77 A    76 B    78 A    77 B                  
  1.551   1.557   1.563   1.589   1.608   1.615   1.637   1.640
 78 B    79 A    79 B    80 A    81 A    80 B    82 A    81 B                  
  1.663   1.664   1.726   1.734   1.739   1.761   1.802   1.810
 82 B    83 A    83 B    84 A    84 B    85 A    85 B    86 A                  
  1.839   1.857   1.864   1.894   1.895   1.928   1.940   1.957
 86 B    87 A    87 B    88 B    88 A    89 A    89 B    90 B                  
  1.960   1.977   2.062   2.065   2.086   2.120   2.123   2.146
 90 A    91 A    92 A    91 B    92 B    93 B    93 A    94 A                  
  2.168   2.198   2.199   2.203   2.231   2.243   2.253   2.271
 94 B    95 A    95 B    96 A    97 A    96 B    97 B    98 B                  
  2.277   2.292   2.311   2.402   2.427   2.440   2.447   2.471
 98 A    99 A    99 B   100 A   100 B   101 A   101 B   102 B                  
  2.484   2.504   2.512   2.524   2.552   2.563   2.582   2.598
102 A   103 A   103 B   104 A   105 A   104 B   105 B   106 A                  
  2.648   2.663   2.664   2.674   2.725   2.736   2.758   2.765
106 B   107 A   107 B   108 A   109 A   108 B   110 A   111 A                  
  2.771   2.778   2.784   2.790   2.826   2.850   2.886   2.899
109 B   110 B   111 B   112 A   112 B   113 A   113 B   114 B                  
  2.902   2.918   2.940   2.948   2.994   3.004   3.012   3.025
114 A   115 A   116 A   115 B   116 B   117 A   118 A   117 B                  
  3.036   3.066   3.093   3.093   3.150   3.151   3.176   3.177
118 B   119 A   120 A   119 B   120 B   121 A   121 B   122 A                  
  3.206   3.222   3.225   3.245   3.252   3.263   3.268   3.287
122 B   123 B   123 A   124 B   124 A   125 B   125 A   126 A                  
  3.310   3.311   3.320   3.322   3.337   3.357   3.377   3.388
127 A   126 B   128 A   127 B   129 A   128 B   130 A   129 B                  
  3.415   3.416   3.424   3.439   3.446   3.450   3.469   3.473
131 A   130 B   132 A   133 A   131 B   134 A   132 B   135 A                  
  3.494   3.500   3.510   3.512   3.515   3.525   3.525   3.544
133 B   134 B   136 A   135 B   137 A   136 B   138 A   137 B                  
  3.551   3.565   3.567   3.589   3.609   3.615   3.634   3.676
138 B   139 A   139 B   140 A   140 B   141 A   141 B   142 A                  
  3.679   3.693   3.707   3.726   3.730   3.753   3.763   3.779
142 B   143 B   143 A   144 B   144 A   145 A   145 B   146 A                  
  3.818   3.830   3.879   3.885   3.908   3.911   3.925   3.962
147 A   146 B   147 B   148 A   148 B   149 A   149 B   150 B                  
  3.963   3.988   3.992   4.009   4.013   4.014   4.042   4.045
150 A   151 B   151 A   152 A   153 A   152 B   154 A   153 B                  
  4.089   4.121   4.132   4.142   4.166   4.170   4.184   4.189
155 A   154 B   155 B   156 A   157 A   156 B   158 A   157 B                  
  4.201   4.203   4.206   4.246   4.272   4.292   4.301   4.315
159 A   160 A   158 B   159 B   161 A   160 B   162 A   161 B                  
  4.348   4.363   4.417   4.450   4.462   4.474   4.496   4.496
162 B   163 A   163 B   164 A   165 A   164 B   165 B   166 A                  
  4.513   4.594   4.626   4.630   4.650   4.654   4.689   4.696
167 A   166 B   168 A   167 B   169 A   168 B   170 A   169 B                  
  4.701   4.723   4.749   4.762   4.807   4.835   4.839   4.864
171 A   170 B   172 A   171 B   173 A   174 A   172 B   175 A                  
  4.885   4.978   5.004   5.007   5.055   5.061   5.070   5.087
173 B   174 B   176 A   175 B   177 A   178 A   176 B   179 A                  
  5.123   5.138   5.192   5.229   5.254   5.290   5.334   5.348
177 B   178 B   180 A   179 B   180 B   181 A   182 A   181 B                  
  5.388   5.416   5.441   5.451   5.585   5.611   5.630   5.686
183 A   182 B   183 B   184 A   185 A   184 B   185 B   186 A                  
  5.802   5.874   5.990   6.066   6.094   6.140   6.149   6.229
187 A   186 B   188 A   187 B   189 A   188 B   190 A   189 B                  
  6.440   6.529   6.598   6.671   6.847   9.373  10.916  11.741
190 B   191 A   191 B   192 A   192 B   193 A   193 B   194 A                  
 12.374  13.273  13.930  14.413  15.073
194 B   195 A   195 B   196 A   196 B                                          
 --------------------------------------------------------------
 
          Ground-State Mulliken Net Atomic Charges

     Atom                 Charge (a.u.)
  ----------------------------------------
      1 S                     0.106699
      2 C                    -0.237695
      3 C                    -0.201559
      4 C                    -0.188571
      5 C                    -0.005433
      6 H                     0.166784
      7 C                    -0.005433
      8 S                     0.106699
      9 C                    -0.188571
     10 C                    -0.237695
     11 C                    -0.201559
     12 H                     0.173991
     13 H                     0.185783
     14 H                     0.173991
     15 H                     0.185783
     16 H                     0.166784
  ----------------------------------------
  Sum of atomic charges =    -0.000000

 -----------------------------------------------------------------
                    Cartesian Multipole Moments
 -----------------------------------------------------------------
    Charge (ESU x 10^10)
                -0.0000
    Dipole Moment (Debye)
         X       0.0000      Y      -0.0000      Z      -0.7226
       Tot       0.7226
    Quadrupole Moments (Debye-Ang)
        XX     -61.0358     XY      -0.3259     YY     -77.6986
        XZ      -0.0000     YZ       0.0000     ZZ     -67.8461
    Octopole Moments (Debye-Ang^2)
       XXX      -0.0000    XXY       0.0000    XYY       0.0000
       YYY       0.0000    XXZ       5.1426    XYZ       5.1269
       YYZ       2.8751    XZZ       0.0000    YZZ      -0.0000
       ZZZ      -7.5940
    Hexadecapole Moments (Debye-Ang^3)
      XXXX   -1823.4318   XXXY      -3.3954   XXYY    -404.3282
      XYYY       0.1183   YYYY    -115.0501   XXXZ       0.0000
      XXYZ       0.0000   XYYZ       0.0000   YYYZ       0.0000
      XXZZ    -396.2370   XYZZ      -6.2127   YYZZ    -117.0372
      XZZZ      -0.0000   YZZZ       0.0000   ZZZZ    -529.1804
 -----------------------------------------------------------------
Archival summary:
1\1\nid01263\OPT\MP2\BasisUnspecified\286\MonMar616:57:372017MonMar616:57:372017\0\\#,OPT,MP2,BasisUnspecified,\\0,1\S\C,1,1.70648\H,2,1.07166,1,120.249\C,2,1.37284,1,111.372,3,-179.965,0\H,4,1.07435,2,123.042,1,179.999,0\C,4,1.40334,2,112.645,1,0.615302,0\H,6,1.0751,4,124.423,2,178.297,0\C,6,1.37991,4,113.16,2,-0.118798,0\C,8,1.43798,6,127.846,4,-178.662,0\C,9,1.37991,8,127.846,6,20,0\H,10,1.0751,9,122.398,8,2.88546,0\C,10,1.40334,9,113.16,8,-178.662,0\H,12,1.07435,10,124.309,9,-179.493,0\C,12,1.37284,10,112.645,9,-0.118798,0\H,14,1.07166,12,128.378,10,-179.346,0\S,14,1.70648,12,111.372,10,0.615302,0\\HF=-1101.59768\MP2=-1103.41339\\@

 Total job time:  10634.24s(wall), 55290.14s(cpu) 
 Mon Mar  6 16:57:37 2017

        *************************************************************
        *                                                           *
        *  Thank you very much for using Q-Chem.  Have a nice day.  *
        *                                                           *
        *************************************************************


0 sent ACK to 0 
now end server 0 ... 
