srun -N 1 --ntasks-per-node 1 --cpus-per-task 64 --cpu_bind=cores --nodelist nid01248 /global/project/projectdirs/jcesr/qchem/qc44/cnl_qc441/dist/exe/qcprog.cori.haswell.exe .pt_mp2_50.0.in.29144.qcin.1 /dev/shm/eg_qchem/qchem29144/
Process 0 of 1 is on nid01248 - thread support 0
initial socket setup ...start
initial socket setup ...done 
now start server 0 ... 
nid01248 10.128.4
Q-Chem Developer Version! Running on 10.128.4.*
                  Welcome to Q-Chem
     A Quantum Leap Into The Future Of Chemistry


 Q-Chem 4.4, Q-Chem, Inc., Pleasanton, CA (2016)

 Y. Shao,  Z. Gan,  E. Epifanovsky,  A. T. B. Gilbert,  M. Wormit,  
 J. Kussmann,  A. W. Lange,  A. Behn,  J. Deng,  X. Feng,  D. Ghosh,  
 M. Goldey,  P. R. Horn,  L. D. Jacobson,  I. Kaliman,  F.Rob,  
 R. Z. Khaliullin,  T. Kus,  A. Landau,  J. Liu,  E. I. Proynov,  Y. M. Rhee,  
 R. M. Richard,  M. A. Rohrdanz,  R. P. Steele,  E. J. Sundstrom,  
 H. L. Woodcock III,  P. M. Zimmerman,  D. Zuev,  B. Albrecht,  E. Alguire,  
 B. Austin,  S. A. Baeppler,  G. J. O. Beran,  Y. A. Bernard,  E. Berquist,  
 K. Brandhorst,  K. B. Bravaya,  S. T. Brown,  D. Casanova,  C.-M. Chang,  
 Y. Chen,  S. H. Chien,  K. D. Closser,  M. P. Coons,  D. L. Crittenden,  
 S. Dasgupta,  M. Diedenhofen,  R. A. DiStasio Jr.,  H. Do,  A. D. Dutoi,  
 R. G. Edgar,  P.-T. Fang,  S. Fatehi,  Q. Feng,  L. Fusti-Molnar,  
 A. Ghysels,  A. Golubeva-Zadorozhnaya,  J. Gomes,  A. Gunina,  
 M. W. D. Hanson-Heine,  P. H. P. Harbach,  A. W. Hauser,  E. G. Hohenstein,  
 Z. C. Holden,  K. Hui,  T.-C. Jagau,  H. Ji,  B. Kaduk,  K. Khistyaev,  
 Jaehoon Kim,  Jihan Kim,  R. A. King,  P. Klunzinger,  D. Kosenkov,  
 T. Kowalczyk,  C. M. Krauter,  A. Kunitsa,  K. U. Lao,  A. Laurent,  
 K. V. Lawler,  D. Lefrancois,  S. Lehtola,  S. V. Levchenko,  C. Y. Lin,  
 Y.-S. Lin,  F. Liu,  E. Livshits,  R. C. Lochan,  A. Luenser,  P. Manohar,  
 S. F. Manzer,  S.-P. Mao,  Y. Mao,  N. Mardirossian,  A. V. Marenich,  
 L. A. Martinez-Martinez,  S. A. Maurer,  N. J. Mayhall,  J.-M. Mewes,  
 A. F. Morrison,  K. Nanda,  C. M. Oana,  R. Olivares-Amaya,  D. P. O'Neill,  
 J. A. Parkhill,  T. M. Perrine,  R. Peverati,  P. A. Pieniazek,  F. Plasser,  
 A. Prociuk,  D. R. Rehn,  E. Rosta,  N. J. Russ,  N. Sergueev,  
 S. M. Sharada,  S. Sharma,  D. W. Small,  A. Sodt,  T. Stauch,  T. Stein,  
 D. Stuck,  Y.-C. Su,  A. J. W. Thom,  T. Tsuchimochi,  L. Vogt,  O. Vydrov,  
 T. Wang,  M. A. Watson,  J. Wenzel,  A. White,  C. F. Williams,  
 V. Vanovschi,  S. Yeganeh,  S. R. Yost,  Z.-Q. You,  I. Y. Zhang,  X. Zhang,  
 Y. Zhao,  B. R. Brooks,  G. K. L. Chan,  D. M. Chipman,  C. J. Cramer,  
 W. A. Goddard III,  M. S. Gordon,  W. J. Hehre,  A. Klamt,  
 H. F. Schaefer III,  M. W. Schmidt,  C. D. Sherrill,  D. G. Truhlar,  
 A. Warshel,  X. Xu,  A. Aspuru-Guzik,  R. Baer,  A. T. Bell,  N. A. Besley,  
 J.-D. Chai,  A. Dreuw,  B. D. Dunietz,  T. R. Furlani,  S. R. Gwaltney,  
 C.-P. Hsu,  Y. Jung,  J. Kong,  D. S. Lambrecht,  W. Liang,  C. Ochsenfeld,  
 V. A. Rassolov,  L. V. Slipchenko,  J. E. Subotnik,  T. Van Voorhis,  
 J. M. Herbert,  A. I. Krylov,  P. M. W. Gill,  M. Head-Gordon

 Contributors to earlier versions of Q-Chem not listed above: 
 R. D. Adamson,  J. Baker,  E. F. C. Byrd,  A. K. Chakraborty,  C.-L. Cheng,  
 H. Dachsel,  R. J. Doerksen,  G. Hawkins,  A. Heyden,  S. Hirata,  
 G. Kedziora,  F. J. Keil,  C. Kelley,  P. P. Korambath,  W. Kurlancheek,  
 A. M. Lee,  M. S. Lee,  D. Liotard,  I. Lotan,  P. E. Maslen,  N. Nair,  
 D. Neuhauser,  R. Olson,  B. Peters,  J. Ritchie,  N. E. Schultz,  
 N. Shenvi,  A. C. Simmonett,  K. S. Thanthiriwatte,  Q. Wu,  W. Zhang

 Please cite Q-Chem as follows:
 Y. Shao et al., Mol. Phys. 113, 184-215 (2015)
 DOI: 10.1080/00268976.2014.952696

 Q-Chem 4.4.1 for Intel X86 EM64T Linux

 Parts of Q-Chem use Armadillo 5.200.1 (Boston Tea Smuggler).
 http://arma.sourceforge.net/

 Q-Chem begins on Mon Mar  6 14:00:20 2017  

Host: nid01196
0

     Scratch files written to /dev/shm/eg_qchem/qchem29144//
 Parallel job on  1  processors

Checking the input file for inconsistencies... 	...done.

--------------------------------------------------------------
User input:
--------------------------------------------------------------
$molecule
 0  1
 S           1.80900300       -1.15938900        0.25896800
 C           3.16466000       -0.14246800        0.05606700
 C           2.78757500        1.14089100       -0.25226100
 C           1.39402000        1.28822000       -0.33563400
 C           0.70898100        0.11689900       -0.08798100
 H           0.89277600        2.20524100       -0.58940400
 C          -0.70898100       -0.11689900       -0.08798100
 S          -1.46619841       -0.91968728        1.23167268
 C          -1.64224714        0.21725333       -1.04712638
 C          -3.01066732       -0.79148254        0.51663255
 C          -2.94812801       -0.16715268       -0.70425673
 H          -3.81277032        0.01051474       -1.31662138
 H           4.15569300       -0.53353100        0.17259300
 H           3.49202900        1.93475000       -0.41867900
 H          -3.87374933       -1.17642980        1.02216202
 H          -1.37860544        0.74126705       -1.94850030
$end


$rem
         jobtype = opt
        exchange = hf
           basis = cc-pvtz
  max_scf_cycles = 100
      mem_static = 6200
       mem_total = 62000
          method = mp2
$end


$opt
CONSTRAINT
tors 4 5 7 9 50.0
ENDCONSTRAINT
$end

--------------------------------------------------------------
 Atom  15: ( -4.0378027430,  0.3129003958,  0.7920908659)
         ->( -4.0378027379,  0.3129003990,  0.7920908639)
 ----------------------------------------------------------------
             Standard Nuclear Orientation (Angstroms)
    I     Atom           X                Y                Z
 ----------------------------------------------------------------
    1      S       1.6289100989    -0.5284796969     1.0305749369
    2      C       3.1109909032    -0.1172074922     0.2907136655
    3      C       2.9149566636     0.4543341365    -0.9418366658
    4      C       1.5567235707     0.5428066074    -1.2853885785
    5      C       0.7173952025     0.0407867172    -0.3127081350
    6      H       1.1884673058     0.9353766608    -2.2164354900
    7      C      -0.7173952049    -0.0407867160    -0.3127081347
    8      S      -1.6289100965     0.5284796965     1.0305749396
    9      C      -1.5567235724    -0.5428066053    -1.2853885807
   10      C      -3.1109909051     0.1172074918     0.2907136640
   11      C      -2.9149566629    -0.4543341384    -0.9418366653
   12      H      -3.7217103739    -0.7849462648    -1.5695360938
   13      H       4.0378027379    -0.3129003990     0.7920908639
   14      H       3.7217103725     0.7849462638    -1.5695360964
   15      H      -4.0378027379     0.3129003990     0.7920908639
   16      H      -1.1884673060    -0.9353766570    -2.2164354888
 ----------------------------------------------------------------
 Molecular Point Group                 C2    NOp =  2
 Largest Abelian Subgroup              C2    NOp =  2
 Nuclear Repulsion Energy =   638.5441671686 hartrees
 There are       43 alpha and       43 beta electrons
 Requested basis set is cc-pVTZ
 There are 140 shells and 392 basis functions

 Total QAlloc Memory Limit  62000 MB
 Mega-Array Size      6061 MB
 MEM_STATIC part      6200 MB
 A cutoff of  1.0D-11 yielded   8043 shell pairs
 There are     62527 function pairs (     81545 Cartesian)
 
 -------------------------------------------------------
 OpenMP Integral Computing Module                       
 Release: version 1.0, May 2013, Q-Chem Inc. Pittsburgh 
 -------------------------------------------------------
 Integral Job Info:
 Integral job number is                      11
 Integral operator is                         1
 short-range coefficients                     0
 long-range coefficients              100000000
 Omega coefficients                           0
 if combine SR and LR in K                    0
 Integral screening is                        0
 Integral computing path is                   2
 max size of driver memory is            800000
 size of driver memory is                776718
 size of scratch memory is             26248924
 max col of scratch BK array              10000
 max len of scratch array in speh3          662
 max len of scratch index in speh4           32
 max int batch size is                      520
 min int batch size is                       52
 fixed nKL is                                52
 max L of basis functions is                  3
 order of int derivative is                   0
 number of shells is                        140
 number of basis is                         448
 number of cartesian basis is               448
 number of contracted shell pairs          8043
 number of primitive shell pairs          28543
 maxK2 (contraction) of shell pair          121
 max number of K2 of shell pair               1
 max number of CS2 of shell pair           1064
 max number of PS2 of shell pair           3080
 mem total for path MDJ                  225820
 -------------------------------------------------------
 Smallest overlap matrix eigenvalue = 8.48E-05

 Scale SEOQF with 1.000000e-01/1.000000e+00/1.000000e-01

 Standard Electronic Orientation quadrupole field applied
 Nucleus-field energy     =     0.0000000186 hartrees
 Guess from superposition of atomic densities
 Warning:  Energy on first SCF cycle will be non-variational
 A restricted Hartree-Fock SCF calculation will be
 performed using Pulay DIIS extrapolation
 SCF converges when DIIS error is below 1.0E-08
 using 16 threads for integral computing 
 ---------------------------------------
  Cycle       Energy         DIIS Error
 ---------------------------------------
    1   -1106.0721638341      2.98E-02
    2   -1091.3552584872      1.73E-02
    3   -1098.8312407882      6.32E-03
    4   -1101.5121361085      1.76E-03
    5   -1101.5669333597      1.16E-03
    6   -1101.5946352013      2.14E-04
    7   -1101.5967874289      9.16E-05
    8   -1101.5972672970      3.61E-05
    9   -1101.5973281227      1.07E-05
   10   -1101.5973365139      3.74E-06
   11   -1101.5973374012      1.27E-06
   12   -1101.5973375348      5.15E-07
   13   -1101.5973375549      1.91E-07
   14   -1101.5973375588      4.96E-08
   15   -1101.5973375605      1.66E-08
   16   -1101.5973375605      6.04E-09 Convergence criterion met
 ---------------------------------------
 SCF time:  CPU 648.63 s  wall 40.59 s
 SCF   energy in the final basis set = -1101.5973375605
 Total energy in the final basis set = -1101.5973375605
 
 Components of the MP2 correlation energy:
        aaaa  correlation energy =        -0.2323291068 au
        abab  correlation energy =        -1.3505665128 au
        bbbb  correlation energy =        -0.2323291068 au
        non-Brillouin singles    =        -0.0000000000 au

 Total  MP2   correlation energy =        -1.8152247263 au
        MP2         total energy =     -1103.4125622868 au

  Entering Z-vector solver.
   1         0           1      0.000267    0.000267
   2         0           1      0.000119    0.000119
   3         0           1      0.000049    0.000049
   4         0           1      0.000023    0.000023
   5         0           1      0.000007    0.000007
   6         0           1      0.000003    0.000003
   7         1           0      0.000000    0.000000    Roots Converged
 
 --------------------------------------------------------------
             Orbital Energies (a.u.) and Symmetries
 --------------------------------------------------------------
 Warning : Irrep of orbital(   1) could not be determined
 Warning : Irrep of orbital(   2) could not be determined
 
 Alpha MOs, Restricted
 -- Occupied --                  
-91.984 -91.984 -11.273 -11.273 -11.261 -11.261 -11.238 -11.238
  0 xxx   0 xxx   1 A     1 B     2 B     2 A     3 B     3 A                  
-11.237 -11.237  -8.986  -8.986  -6.667  -6.667  -6.666  -6.666
  4 B     4 A     5 B     5 A     6 B     6 A     7 A     7 B                  
 -6.665  -6.665  -1.196  -1.166  -1.035  -0.997  -0.986  -0.948
  8 B     8 A     9 A     9 B    10 A    11 A    10 B    11 B                  
 -0.809  -0.773  -0.753  -0.718  -0.705  -0.645  -0.572  -0.570
 12 A    13 A    12 B    13 B    14 A    14 B    15 A    16 A                  
 -0.564  -0.555  -0.539  -0.512  -0.510  -0.482  -0.470  -0.358
 15 B    16 B    17 A    18 A    17 B    19 A    18 B    19 B                  
 -0.352  -0.348  -0.291
 20 A    20 B    21 A                                                          
 -- Virtual --                   
  0.087   0.130   0.148   0.152   0.161   0.175   0.177   0.192
 21 B    22 A    23 A    22 B    24 A    23 B    25 A    24 B                  
  0.201   0.203   0.207   0.236   0.237   0.262   0.314   0.345
 26 A    27 A    25 B    26 B    28 A    27 B    29 A    28 B                  
  0.347   0.358   0.366   0.382   0.384   0.398   0.419   0.431
 29 B    30 A    31 A    32 A    30 B    31 B    32 B    33 A                  
  0.447   0.455   0.455   0.466   0.479   0.480   0.497   0.513
 34 A    35 A    33 B    34 B    36 A    35 B    36 B    37 A                  
  0.521   0.530   0.534   0.546   0.548   0.552   0.561   0.568
 38 A    37 B    39 A    38 B    39 B    40 A    41 A    40 B                  
  0.584   0.588   0.594   0.607   0.609   0.610   0.615   0.624
 41 B    42 A    42 B    43 A    43 B    44 A    45 A    46 A                  
  0.624   0.635   0.662   0.669   0.680   0.686   0.723   0.735
 44 B    45 B    47 A    46 B    48 A    47 B    49 A    48 B                  
  0.737   0.744   0.784   0.786   0.796   0.811   0.846   0.847
 50 A    49 B    50 B    51 A    51 B    52 A    53 A    52 B                  
  0.864   0.879   0.881   0.896   0.901   0.917   0.947   0.954
 54 A    53 B    54 B    55 A    55 B    56 A    56 B    57 A                  
  0.958   0.995   1.005   1.011   1.032   1.042   1.056   1.081
 57 B    58 B    58 A    59 A    59 B    60 A    60 B    61 A                  
  1.087   1.099   1.114   1.116   1.155   1.165   1.176   1.180
 61 B    62 A    62 B    63 A    63 B    64 B    64 A    65 A                  
  1.192   1.195   1.213   1.223   1.231   1.249   1.271   1.287
 66 A    65 B    66 B    67 A    67 B    68 A    68 B    69 B                  
  1.290   1.315   1.318   1.371   1.387   1.401   1.419   1.424
 69 A    70 A    70 B    71 A    71 B    72 B    72 A    73 A                  
  1.440   1.463   1.477   1.489   1.490   1.515   1.516   1.531
 73 B    74 B    74 A    75 A    75 B    76 A    76 B    77 A                  
  1.543   1.546   1.572   1.584   1.590   1.609   1.643   1.654
 77 B    78 A    78 B    79 A    79 B    80 A    80 B    81 A                  
  1.673   1.674   1.704   1.722   1.737   1.761   1.778   1.813
 82 A    81 B    82 B    83 A    83 B    84 B    84 A    85 B                  
  1.851   1.869   1.879   1.889   1.906   1.932   1.943   1.948
 85 A    86 A    86 B    87 B    87 A    88 B    88 A    89 A                  
  1.956   1.979   2.036   2.070   2.081   2.108   2.114   2.170
 89 B    90 A    90 B    91 B    91 A    92 B    92 A    93 B                  
  2.180   2.182   2.197   2.209   2.214   2.232   2.255   2.274
 93 A    94 B    94 A    95 A    95 B    96 A    96 B    97 A                  
  2.280   2.314   2.316   2.394   2.430   2.439   2.471   2.472
 97 B    98 A    98 B    99 A    99 B   100 A   100 B   101 A                  
  2.479   2.497   2.508   2.515   2.555   2.559   2.570   2.613
101 B   102 A   102 B   103 A   104 A   103 B   104 B   105 A                  
  2.619   2.630   2.662   2.687   2.720   2.751   2.755   2.757
105 B   106 B   106 A   107 A   107 B   108 A   108 B   109 A                  
  2.769   2.775   2.776   2.814   2.820   2.860   2.891   2.896
109 B   110 A   110 B   111 B   111 A   112 A   113 A   112 B                  
  2.914   2.921   2.963   2.975   2.990   3.007   3.015   3.018
113 B   114 A   114 B   115 A   115 B   116 A   117 A   116 B                  
  3.021   3.031   3.078   3.138   3.142   3.157   3.179   3.199
118 A   117 B   118 B   119 A   119 B   120 A   120 B   121 A                  
  3.206   3.222   3.235   3.243   3.258   3.263   3.282   3.290
121 B   122 B   123 B   122 A   123 A   124 B   124 A   125 A                  
  3.300   3.320   3.327   3.332   3.354   3.357   3.382   3.400
125 B   126 A   126 B   127 A   128 A   127 B   128 B   129 A                  
  3.412   3.415   3.423   3.433   3.439   3.461   3.473   3.476
129 B   130 A   131 A   130 B   132 A   133 A   134 A   131 B                  
  3.480   3.494   3.500   3.508   3.513   3.518   3.518   3.537
132 B   133 B   135 A   134 B   136 A   137 A   135 B   136 B                  
  3.546   3.579   3.594   3.596   3.621   3.629   3.655   3.660
137 B   138 A   138 B   139 A   139 B   140 A   140 B   141 A                  
  3.668   3.695   3.709   3.732   3.746   3.747   3.773   3.785
141 B   142 A   142 B   143 A   143 B   144 A   145 A   144 B                  
  3.798   3.829   3.873   3.896   3.914   3.923   3.930   3.942
146 A   145 B   146 B   147 A   147 B   148 A   148 B   149 A                  
  3.946   3.988   3.996   4.007   4.022   4.029   4.035   4.040
149 B   150 A   150 B   151 A   151 B   152 B   152 A   153 A                  
  4.091   4.117   4.128   4.135   4.172   4.175   4.183   4.186
153 B   154 A   154 B   155 A   155 B   156 A   156 B   157 A                  
  4.206   4.219   4.234   4.251   4.259   4.268   4.285   4.338
158 A   157 B   158 B   159 A   159 B   160 B   160 A   161 A                  
  4.346   4.375   4.406   4.436   4.474   4.479   4.498   4.507
161 B   162 A   162 B   163 A   163 B   164 A   164 B   165 A                  
  4.522   4.569   4.609   4.612   4.643   4.678   4.691   4.697
166 A   165 B   166 B   167 A   168 A   167 B   169 A   168 B                  
  4.698   4.726   4.758   4.772   4.785   4.808   4.845   4.851
170 A   169 B   170 B   171 B   171 A   172 A   172 B   173 A                  
  4.914   4.940   5.014   5.032   5.041   5.054   5.072   5.083
174 A   173 B   174 B   175 A   175 B   176 A   177 A   178 A                  
  5.091   5.108   5.202   5.213   5.252   5.292   5.329   5.375
176 B   177 B   178 B   179 A   179 B   180 A   180 B   181 A                  
  5.402   5.402   5.420   5.459   5.591   5.592   5.651   5.676
181 B   182 A   182 B   183 A   184 A   183 B   184 B   185 A                  
  5.833   5.841   6.007   6.007   6.121   6.122   6.176   6.193
186 A   185 B   186 B   187 A   188 A   187 B   189 A   188 B                  
  6.275   6.549   6.563   6.685   6.797   9.534  10.793  11.830
189 B   190 A   190 B   191 A   191 B   192 A   192 B   193 A                  
 12.278  13.419  13.689  14.523  14.823
193 B   194 A   194 B   195 A   195 B                                          
 
 Beta MOs, Restricted
 -- Occupied --                  
-91.984 -91.984 -11.273 -11.273 -11.261 -11.261 -11.238 -11.238
  0 xxx   0 xxx   1 A     1 B     2 B     2 A     3 B     3 A                  
-11.237 -11.237  -8.986  -8.986  -6.667  -6.667  -6.666  -6.666
  4 B     4 A     5 B     5 A     6 B     6 A     7 A     7 B                  
 -6.665  -6.665  -1.196  -1.166  -1.035  -0.997  -0.986  -0.948
  8 B     8 A     9 A     9 B    10 A    11 A    10 B    11 B                  
 -0.809  -0.773  -0.753  -0.718  -0.705  -0.645  -0.572  -0.570
 12 A    13 A    12 B    13 B    14 A    14 B    15 A    16 A                  
 -0.564  -0.555  -0.539  -0.512  -0.510  -0.482  -0.470  -0.358
 15 B    16 B    17 A    18 A    17 B    19 A    18 B    19 B                  
 -0.352  -0.348  -0.291
 20 A    20 B    21 A                                                          
 -- Virtual --                   
  0.087   0.130   0.148   0.152   0.161   0.175   0.177   0.192
 21 B    22 A    23 A    22 B    24 A    23 B    25 A    24 B                  
  0.201   0.203   0.207   0.236   0.237   0.262   0.314   0.345
 26 A    27 A    25 B    26 B    28 A    27 B    29 A    28 B                  
  0.347   0.358   0.366   0.382   0.384   0.398   0.419   0.431
 29 B    30 A    31 A    32 A    30 B    31 B    32 B    33 A                  
  0.447   0.455   0.455   0.466   0.479   0.480   0.497   0.513
 34 A    35 A    33 B    34 B    36 A    35 B    36 B    37 A                  
  0.521   0.530   0.534   0.546   0.548   0.552   0.561   0.568
 38 A    37 B    39 A    38 B    39 B    40 A    41 A    40 B                  
  0.584   0.588   0.594   0.607   0.609   0.610   0.615   0.624
 41 B    42 A    42 B    43 A    43 B    44 A    45 A    46 A                  
  0.624   0.635   0.662   0.669   0.680   0.686   0.723   0.735
 44 B    45 B    47 A    46 B    48 A    47 B    49 A    48 B                  
  0.737   0.744   0.784   0.786   0.796   0.811   0.846   0.847
 50 A    49 B    50 B    51 A    51 B    52 A    53 A    52 B                  
  0.864   0.879   0.881   0.896   0.901   0.917   0.947   0.954
 54 A    53 B    54 B    55 A    55 B    56 A    56 B    57 A                  
  0.958   0.995   1.005   1.011   1.032   1.042   1.056   1.081
 57 B    58 B    58 A    59 A    59 B    60 A    60 B    61 A                  
  1.087   1.099   1.114   1.116   1.155   1.165   1.176   1.180
 61 B    62 A    62 B    63 A    63 B    64 B    64 A    65 A                  
  1.192   1.195   1.213   1.223   1.231   1.249   1.271   1.287
 66 A    65 B    66 B    67 A    67 B    68 A    68 B    69 B                  
  1.290   1.315   1.318   1.371   1.387   1.401   1.419   1.424
 69 A    70 A    70 B    71 A    71 B    72 B    72 A    73 A                  
  1.440   1.463   1.477   1.489   1.490   1.515   1.516   1.531
 73 B    74 B    74 A    75 A    75 B    76 A    76 B    77 A                  
  1.543   1.546   1.572   1.584   1.590   1.609   1.643   1.654
 77 B    78 A    78 B    79 A    79 B    80 A    80 B    81 A                  
  1.673   1.674   1.704   1.722   1.737   1.761   1.778   1.813
 82 A    81 B    82 B    83 A    83 B    84 B    84 A    85 B                  
  1.851   1.869   1.879   1.889   1.906   1.932   1.943   1.948
 85 A    86 A    86 B    87 B    87 A    88 B    88 A    89 A                  
  1.956   1.979   2.036   2.070   2.081   2.108   2.114   2.170
 89 B    90 A    90 B    91 B    91 A    92 B    92 A    93 B                  
  2.180   2.182   2.197   2.209   2.214   2.232   2.255   2.274
 93 A    94 B    94 A    95 A    95 B    96 A    96 B    97 A                  
  2.280   2.314   2.316   2.394   2.430   2.439   2.471   2.472
 97 B    98 A    98 B    99 A    99 B   100 A   100 B   101 A                  
  2.479   2.497   2.508   2.515   2.555   2.559   2.570   2.613
101 B   102 A   102 B   103 A   104 A   103 B   104 B   105 A                  
  2.619   2.630   2.662   2.687   2.720   2.751   2.755   2.757
105 B   106 B   106 A   107 A   107 B   108 A   108 B   109 A                  
  2.769   2.775   2.776   2.814   2.820   2.860   2.891   2.896
109 B   110 A   110 B   111 B   111 A   112 A   113 A   112 B                  
  2.914   2.921   2.963   2.975   2.990   3.007   3.015   3.018
113 B   114 A   114 B   115 A   115 B   116 A   117 A   116 B                  
  3.021   3.031   3.078   3.138   3.142   3.157   3.179   3.199
118 A   117 B   118 B   119 A   119 B   120 A   120 B   121 A                  
  3.206   3.222   3.235   3.243   3.258   3.263   3.282   3.290
121 B   122 B   123 B   122 A   123 A   124 B   124 A   125 A                  
  3.300   3.320   3.327   3.332   3.354   3.357   3.382   3.400
125 B   126 A   126 B   127 A   128 A   127 B   128 B   129 A                  
  3.412   3.415   3.423   3.433   3.439   3.461   3.473   3.476
129 B   130 A   131 A   130 B   132 A   133 A   134 A   131 B                  
  3.480   3.494   3.500   3.508   3.513   3.518   3.518   3.537
132 B   133 B   135 A   134 B   136 A   137 A   135 B   136 B                  
  3.546   3.579   3.594   3.596   3.621   3.629   3.655   3.660
137 B   138 A   138 B   139 A   139 B   140 A   140 B   141 A                  
  3.668   3.695   3.709   3.732   3.746   3.747   3.773   3.785
141 B   142 A   142 B   143 A   143 B   144 A   145 A   144 B                  
  3.798   3.829   3.873   3.896   3.914   3.923   3.930   3.942
146 A   145 B   146 B   147 A   147 B   148 A   148 B   149 A                  
  3.946   3.988   3.996   4.007   4.022   4.029   4.035   4.040
149 B   150 A   150 B   151 A   151 B   152 B   152 A   153 A                  
  4.091   4.117   4.128   4.135   4.172   4.175   4.183   4.186
153 B   154 A   154 B   155 A   155 B   156 A   156 B   157 A                  
  4.206   4.219   4.234   4.251   4.259   4.268   4.285   4.338
158 A   157 B   158 B   159 A   159 B   160 B   160 A   161 A                  
  4.346   4.375   4.406   4.436   4.474   4.479   4.498   4.507
161 B   162 A   162 B   163 A   163 B   164 A   164 B   165 A                  
  4.522   4.569   4.609   4.612   4.643   4.678   4.691   4.697
166 A   165 B   166 B   167 A   168 A   167 B   169 A   168 B                  
  4.698   4.726   4.758   4.772   4.785   4.808   4.845   4.851
170 A   169 B   170 B   171 B   171 A   172 A   172 B   173 A                  
  4.914   4.940   5.014   5.032   5.041   5.054   5.072   5.083
174 A   173 B   174 B   175 A   175 B   176 A   177 A   178 A                  
  5.091   5.108   5.202   5.213   5.252   5.292   5.329   5.375
176 B   177 B   178 B   179 A   179 B   180 A   180 B   181 A                  
  5.402   5.402   5.420   5.459   5.591   5.592   5.651   5.676
181 B   182 A   182 B   183 A   184 A   183 B   184 B   185 A                  
  5.833   5.841   6.007   6.007   6.121   6.122   6.176   6.193
186 A   185 B   186 B   187 A   188 A   187 B   189 A   188 B                  
  6.275   6.549   6.563   6.685   6.797   9.534  10.793  11.830
189 B   190 A   190 B   191 A   191 B   192 A   192 B   193 A                  
 12.278  13.419  13.689  14.523  14.823
193 B   194 A   194 B   195 A   195 B                                          
 --------------------------------------------------------------
 
          Ground-State Mulliken Net Atomic Charges

     Atom                 Charge (a.u.)
  ----------------------------------------
      1 S                     0.119770
      2 C                    -0.238860
      3 C                    -0.191194
      4 C                    -0.199117
      5 C                    -0.022383
      6 H                     0.173645
      7 C                    -0.022382
      8 S                     0.119770
      9 C                    -0.199119
     10 C                    -0.238861
     11 C                    -0.191194
     12 H                     0.174016
     13 H                     0.184122
     14 H                     0.174017
     15 H                     0.184122
     16 H                     0.173646
  ----------------------------------------
  Sum of atomic charges =     0.000000

 -----------------------------------------------------------------
                    Cartesian Multipole Moments
 -----------------------------------------------------------------
    Charge (ESU x 10^10)
                 0.0000
    Dipole Moment (Debye)
         X       0.0000      Y       0.0000      Z      -0.6753
       Tot       0.6753
    Quadrupole Moments (Debye-Ang)
        XX     -61.1902     XY       0.5328     YY     -76.2347
        XZ      -0.0000     YZ      -0.0000     ZZ     -69.1935
    Octopole Moments (Debye-Ang^2)
       XXX      -0.0000    XXY       0.0000    XYY       0.0000
       YYY       0.0000    XXZ       5.8333    XYZ     -10.3817
       YYZ       0.7911    XZZ       0.0000    YZZ       0.0000
       ZZZ      -3.5670
    Hexadecapole Moments (Debye-Ang^3)
      XXXX   -1820.8907   XXXY      -2.6063   XXYY    -401.4372
      XYYY      -6.9221   YYYY    -188.3512   XXXZ      -0.0000
      XXYZ       0.0000   XYYZ      -0.0000   YYYZ      -0.0000
      XXZZ    -396.9294   XYZZ       8.2667   YYZZ    -108.7448
      XZZZ      -0.0000   YZZZ      -0.0000   ZZZZ    -473.4793
 -----------------------------------------------------------------
 DrvMan is completing analytic gradient of the MP2 energy
 MP2 relaxed dipole moment
            1
    1   0.0000000
    2   0.0000000
    3  -0.2656847
	Magnitude:	 0.266 au	 0.675 Debye
 MP2 energy read as -1103.412562
 Full Analytical Gradient of MP2 Energy (in au.)
             1             2             3             4             5
    1   -0.00127261    0.00050474   -0.00012296    0.00098761   -0.00390596
    2    0.00048888   -0.00097853    0.00198163    0.00280988   -0.00190487
    3    0.00097576   -0.00172715    0.00089464    0.00165466   -0.00055018
             6             7             8             9            10
    1    0.00048412    0.00390596    0.00127261   -0.00098760   -0.00050475
    2   -0.00149739    0.00190487   -0.00048888   -0.00280988    0.00097853
    3   -0.00099687   -0.00055018    0.00097577    0.00165466   -0.00172715
            11            12            13            14            15
    1    0.00012297    0.00001269   -0.00011283   -0.00001269    0.00011283
    2   -0.00198163    0.00008404   -0.00074948   -0.00008404    0.00074948
    3    0.00089465   -0.00001377   -0.00023711   -0.00001377   -0.00023711
            16
    1   -0.00048412
    2    0.00149740
    3   -0.00099686
 Gradient time:  CPU 1.53 s  wall 0.10 s
 Geometry Optimization Parameters
   NAtoms,    NIC,     NZ,  NCons,   NDum,   NFix, NCnnct, MaxDiis
       16     111       0       1       0       0       0       0


** CONSTRAINED OPTIMIZATION IN DELOCALIZED INTERNAL COORDINATES **
   Searching for a Minimum

   Optimization Cycle:   1

                       Coordinates (Angstroms)
     ATOM                X               Y               Z
      1  S         1.6289100977   -0.5284796967    1.0305749382
      2  C         3.1109909042   -0.1172074920    0.2907136648
      3  C         2.9149566632    0.4543341374   -0.9418366656
      4  C         1.5567235716    0.5428066063   -1.2853885796
      5  C         0.7173952037    0.0407867166   -0.3127081349
      6  H         1.1884673059    0.9353766589   -2.2164354894
      7  C        -0.7173952037   -0.0407867166   -0.3127081349
      8  S        -1.6289100977    0.5284796967    1.0305749382
      9  C        -1.5567235716   -0.5428066063   -1.2853885796
     10  C        -3.1109909042    0.1172074920    0.2907136648
     11  C        -2.9149566632   -0.4543341374   -0.9418366656
     12  H        -3.7217103732   -0.7849462643   -1.5695360951
     13  H         4.0378027379   -0.3129003990    0.7920908639
     14  H         3.7217103732    0.7849462643   -1.5695360951
     15  H        -4.0378027379    0.3129003990    0.7920908639
     16  H        -1.1884673059   -0.9353766589   -2.2164354894
   Point Group: c2    Number of degrees of freedom:    22


   Energy is  -1103.412562287

              Constraints and their Current Values
                                        Value     Constraint
   Dihedral:        4   5   7   9       50.000       50.000

 Attempting to Generate Delocalized Internal Coordinates

 21 Hessian modes will be used to form the next step
  Hessian Eigenvalues:
     0.045000    0.045000    0.045000    0.045002    0.045003    0.045012
     0.159945    0.159993    0.160000    0.221308    0.238060    0.249999
     0.326324    0.340049    0.365509    0.366895    0.370094    0.399848
     0.435412    0.463135    0.495504

 Minimum Search - Taking Simple RFO Step
 Searching for Lamda that Minimizes Along All modes
 Value Taken    Lamda =  -0.00045931
 Step Taken.  Stepsize is  0.089687

                             Maximum     Tolerance    Cnvgd?
         Gradient           0.003614      0.000300      NO
         Displacement       0.072016      0.001200      NO
         Energy change     *********      0.000001      NO


 New Cartesian Coordinates Obtained by Inverse Iteration

 Displacement from previous Coordinates is:  0.107534
 ----------------------------------------------------------------
             Standard Nuclear Orientation (Angstroms)
    I     Atom           X                Y                Z
 ----------------------------------------------------------------
    1      S       1.6374156175    -0.5356609299     1.0309708679
    2      C       3.1153630289    -0.1119671024     0.2925079891
    3      C       2.9146050308     0.4395232774    -0.9489696724
    4      C       1.5545752037     0.5301355421    -1.2868115122
    5      C       0.7200236640     0.0340477159    -0.3086702208
    6      H       1.1789782553     0.9335900813    -2.2099882839
    7      C      -0.7200236640    -0.0340477159    -0.3086702208
    8      S      -1.6374156175     0.5356609299     1.0309708679
    9      C      -1.5545752037    -0.5301355421    -1.2868115122
   10      C      -3.1153630289     0.1119671024     0.2925079891
   11      C      -2.9146050308    -0.4395232774    -0.9489696724
   12      H      -3.7186461230    -0.7729406721    -1.5787299878
   13      H       4.0439776339    -0.2904890297     0.7971653224
   14      H       3.7186461230     0.7729406721    -1.5787299878
   15      H      -4.0439776339     0.2904890297     0.7971653224
   16      H      -1.1789782553    -0.9335900813    -2.2099882839
 ----------------------------------------------------------------
 Molecular Point Group                 C2    NOp =  2
 Largest Abelian Subgroup              C2    NOp =  2
 Nuclear Repulsion Energy =   638.0797589217 hartrees
 There are       43 alpha and       43 beta electrons
 Applying Cartesian multipole field
    Component          Value
    ---------          -----
     (2,0,0)        1.00000E-11
     (0,2,0)        2.00000E-10
     (0,0,2)       -3.00000E-11
 Nucleus-field energy     =     0.0000000185 hartrees
 Requested basis set is cc-pVTZ
 There are 140 shells and 392 basis functions
 A cutoff of  1.0D-11 yielded   8039 shell pairs
 There are     62487 function pairs (     81497 Cartesian)
 Smallest overlap matrix eigenvalue = 8.82E-05
 Guess MOs from SCF MO coefficient file
 Reading MOs from coefficient file
 Reading MOs from coefficient file
 A restricted Hartree-Fock SCF calculation will be
 performed using Pulay DIIS extrapolation
 SCF converges when DIIS error is below 1.0E-08
 Geometry optimization detected.  Setting ReadMinima to 0
 Setting SaveMinima to 0
 using 16 threads for integral computing 
 ---------------------------------------
  Cycle       Energy         DIIS Error
 ---------------------------------------
    1   -1101.5965474810      2.57E-04
    2   -1101.5979652741      3.13E-05
    3   -1101.5980043239      1.32E-05
    4   -1101.5980102129      8.24E-06
    5   -1101.5980124227      2.11E-06
    6   -1101.5980126711      9.43E-07
    7   -1101.5980127261      3.81E-07
    8   -1101.5980127336      1.24E-07
    9   -1101.5980127343      4.26E-08
   10   -1101.5980127343      1.68E-08
   11   -1101.5980127345      6.58E-09 Convergence criterion met
 ---------------------------------------
 SCF time:  CPU 712.34 s  wall 44.56 s
 SCF   energy in the final basis set = -1101.5980127345
 Total energy in the final basis set = -1101.5980127345
 
 Components of the MP2 correlation energy:
        aaaa  correlation energy =        -0.2322634722 au
        abab  correlation energy =        -1.3503758600 au
        bbbb  correlation energy =        -0.2322634722 au
        non-Brillouin singles    =        -0.0000000000 au

 Total  MP2   correlation energy =        -1.8149028045 au
        MP2         total energy =     -1103.4129155390 au

  Entering Z-vector solver.
   1         0           1      0.000267    0.000267
   2         0           1      0.000119    0.000119
   3         0           1      0.000049    0.000049
   4         0           1      0.000023    0.000023
   5         0           1      0.000007    0.000007
   6         0           1      0.000003    0.000003
   7         1           0      0.000000    0.000000    Roots Converged
 
 --------------------------------------------------------------
             Orbital Energies (a.u.) and Symmetries
 --------------------------------------------------------------
 
 Alpha MOs, Restricted
 -- Occupied --                  
-91.984 -91.984 -11.274 -11.273 -11.261 -11.261 -11.238 -11.238
  1 B     1 A     2 A     2 B     3 B     3 A     4 B     4 A                  
-11.237 -11.237  -8.986  -8.986  -6.667  -6.667  -6.666  -6.666
  5 B     5 A     6 B     6 A     7 B     7 A     8 A     8 B                  
 -6.666  -6.666  -1.196  -1.166  -1.034  -0.997  -0.986  -0.948
  9 B     9 A    10 A    10 B    11 A    12 A    11 B    12 B                  
 -0.808  -0.773  -0.753  -0.718  -0.705  -0.645  -0.572  -0.569
 13 A    14 A    13 B    14 B    15 A    15 B    16 A    17 A                  
 -0.564  -0.554  -0.539  -0.512  -0.511  -0.482  -0.470  -0.357
 16 B    17 B    18 A    19 A    18 B    20 A    19 B    20 B                  
 -0.352  -0.348  -0.292
 21 A    21 B    22 A                                                          
 -- Virtual --                   
  0.086   0.131   0.148   0.152   0.161   0.175   0.177   0.191
 22 B    23 A    24 A    23 B    25 A    24 B    26 A    25 B                  
  0.202   0.202   0.206   0.236   0.237   0.261   0.314   0.344
 27 A    28 A    26 B    27 B    29 A    28 B    30 A    29 B                  
  0.347   0.358   0.365   0.382   0.383   0.398   0.419   0.430
 30 B    31 A    32 A    33 A    31 B    32 B    33 B    34 A                  
  0.447   0.455   0.456   0.466   0.478   0.480   0.497   0.515
 35 A    34 B    36 A    35 B    37 A    36 B    37 B    38 A                  
  0.522   0.530   0.533   0.545   0.550   0.552   0.561   0.567
 39 A    38 B    40 A    39 B    40 B    41 A    42 A    41 B                  
  0.584   0.588   0.596   0.607   0.609   0.611   0.615   0.623
 42 B    43 A    43 B    44 A    44 B    45 A    46 A    45 B                  
  0.624   0.635   0.662   0.670   0.679   0.686   0.723   0.735
 47 A    46 B    48 A    47 B    49 A    48 B    50 A    49 B                  
  0.738   0.743   0.783   0.786   0.797   0.811   0.846   0.847
 51 A    50 B    51 B    52 A    52 B    53 A    54 A    53 B                  
  0.864   0.879   0.881   0.893   0.901   0.920   0.948   0.953
 55 A    54 B    55 B    56 A    56 B    57 A    57 B    58 A                  
  0.959   0.993   1.004   1.013   1.032   1.042   1.053   1.081
 58 B    59 B    59 A    60 A    60 B    61 A    61 B    62 A                  
  1.088   1.099   1.113   1.116   1.151   1.164   1.176   1.181
 62 B    63 A    63 B    64 A    64 B    65 B    65 A    66 A                  
  1.193   1.194   1.211   1.223   1.231   1.246   1.269   1.286
 67 A    66 B    67 B    68 A    68 B    69 A    69 B    70 B                  
  1.293   1.317   1.318   1.373   1.386   1.402   1.418   1.424
 70 A    71 B    71 A    72 A    72 B    73 B    73 A    74 A                  
  1.441   1.463   1.478   1.488   1.490   1.514   1.517   1.530
 74 B    75 B    75 A    76 A    76 B    77 A    77 B    78 A                  
  1.544   1.548   1.572   1.583   1.591   1.610   1.643   1.653
 78 B    79 A    79 B    80 A    80 B    81 A    81 B    82 A                  
  1.672   1.674   1.704   1.723   1.738   1.762   1.777   1.813
 83 A    82 B    83 B    84 A    84 B    85 B    85 A    86 B                  
  1.852   1.870   1.880   1.888   1.905   1.928   1.943   1.947
 86 A    87 A    87 B    88 B    88 A    89 B    89 A    90 A                  
  1.956   1.977   2.036   2.068   2.081   2.106   2.114   2.170
 90 B    91 A    91 B    92 B    92 A    93 B    93 A    94 B                  
  2.182   2.182   2.198   2.210   2.216   2.233   2.257   2.274
 94 A    95 B    95 A    96 A    96 B    97 A    97 B    98 A                  
  2.280   2.313   2.314   2.396   2.431   2.438   2.470   2.474
 98 B    99 B    99 A   100 A   100 B   101 A   101 B   102 A                  
  2.477   2.496   2.508   2.516   2.555   2.557   2.571   2.613
102 B   103 A   103 B   104 A   105 A   104 B   105 B   106 A                  
  2.619   2.632   2.660   2.690   2.721   2.751   2.756   2.756
106 B   107 B   107 A   108 A   108 B   109 A   110 A   109 B                  
  2.770   2.776   2.776   2.811   2.818   2.862   2.890   2.898
110 B   111 A   111 B   112 B   112 A   113 A   114 A   113 B                  
  2.910   2.919   2.964   2.975   2.990   3.005   3.014   3.016
114 B   115 A   115 B   116 A   116 B   117 A   118 A   117 B                  
  3.021   3.031   3.081   3.138   3.140   3.157   3.179   3.199
119 A   118 B   119 B   120 A   120 B   121 A   121 B   122 A                  
  3.205   3.222   3.234   3.244   3.254   3.264   3.283   3.290
122 B   123 B   124 B   123 A   124 A   125 B   125 A   126 A                  
  3.302   3.318   3.327   3.330   3.355   3.355   3.381   3.398
126 B   127 A   127 B   128 A   128 B   129 A   129 B   130 A                  
  3.413   3.414   3.425   3.433   3.438   3.461   3.474   3.478
131 A   130 B   132 A   131 B   133 A   134 A   135 A   132 B                  
  3.484   3.491   3.499   3.507   3.514   3.515   3.518   3.536
133 B   134 B   136 A   135 B   137 A   138 A   136 B   137 B                  
  3.546   3.581   3.595   3.597   3.619   3.632   3.654   3.662
138 B   139 A   139 B   140 A   140 B   141 A   141 B   142 A                  
  3.668   3.693   3.708   3.735   3.741   3.746   3.773   3.786
142 B   143 A   143 B   144 A   145 A   144 B   146 A   145 B                  
  3.799   3.830   3.870   3.895   3.913   3.922   3.929   3.942
147 A   146 B   147 B   148 A   148 B   149 A   149 B   150 A                  
  3.945   3.989   3.999   4.007   4.019   4.031   4.034   4.039
150 B   151 A   151 B   152 A   152 B   153 B   153 A   154 A                  
  4.091   4.118   4.124   4.135   4.171   4.176   4.184   4.186
154 B   155 A   155 B   156 A   156 B   157 A   157 B   158 A                  
  4.206   4.218   4.232   4.251   4.261   4.268   4.285   4.340
159 A   158 B   159 B   160 A   160 B   161 B   161 A   162 A                  
  4.346   4.377   4.406   4.436   4.474   4.476   4.499   4.504
162 B   163 A   163 B   164 A   164 B   165 A   165 B   166 A                  
  4.524   4.569   4.611   4.611   4.642   4.679   4.693   4.695
167 A   166 B   168 A   167 B   169 A   168 B   170 A   169 B                  
  4.695   4.727   4.755   4.774   4.786   4.808   4.844   4.850
171 A   170 B   171 B   172 B   172 A   173 A   173 B   174 A                  
  4.915   4.940   5.009   5.027   5.040   5.050   5.073   5.081
175 A   174 B   175 B   176 A   176 B   177 A   178 A   179 A                  
  5.091   5.107   5.198   5.214   5.253   5.289   5.327   5.373
177 B   178 B   179 B   180 A   180 B   181 A   181 B   182 A                  
  5.398   5.402   5.418   5.461   5.591   5.591   5.649   5.675
182 B   183 A   183 B   184 A   185 A   184 B   185 B   186 A                  
  5.832   5.843   6.004   6.008   6.120   6.120   6.175   6.195
187 A   186 B   187 B   188 A   188 B   189 A   190 A   189 B                  
  6.277   6.550   6.565   6.684   6.791   9.528  10.771  11.828
190 B   191 A   191 B   192 A   192 B   193 A   193 B   194 A                  
 12.233  13.422  13.678  14.520  14.821
194 B   195 A   195 B   196 A   196 B                                          
 
 Beta MOs, Restricted
 -- Occupied --                  
-91.984 -91.984 -11.274 -11.273 -11.261 -11.261 -11.238 -11.238
  1 B     1 A     2 A     2 B     3 B     3 A     4 B     4 A                  
-11.237 -11.237  -8.986  -8.986  -6.667  -6.667  -6.666  -6.666
  5 B     5 A     6 B     6 A     7 B     7 A     8 A     8 B                  
 -6.666  -6.666  -1.196  -1.166  -1.034  -0.997  -0.986  -0.948
  9 B     9 A    10 A    10 B    11 A    12 A    11 B    12 B                  
 -0.808  -0.773  -0.753  -0.718  -0.705  -0.645  -0.572  -0.569
 13 A    14 A    13 B    14 B    15 A    15 B    16 A    17 A                  
 -0.564  -0.554  -0.539  -0.512  -0.511  -0.482  -0.470  -0.357
 16 B    17 B    18 A    19 A    18 B    20 A    19 B    20 B                  
 -0.352  -0.348  -0.292
 21 A    21 B    22 A                                                          
 -- Virtual --                   
  0.086   0.131   0.148   0.152   0.161   0.175   0.177   0.191
 22 B    23 A    24 A    23 B    25 A    24 B    26 A    25 B                  
  0.202   0.202   0.206   0.236   0.237   0.261   0.314   0.344
 27 A    28 A    26 B    27 B    29 A    28 B    30 A    29 B                  
  0.347   0.358   0.365   0.382   0.383   0.398   0.419   0.430
 30 B    31 A    32 A    33 A    31 B    32 B    33 B    34 A                  
  0.447   0.455   0.456   0.466   0.478   0.480   0.497   0.515
 35 A    34 B    36 A    35 B    37 A    36 B    37 B    38 A                  
  0.522   0.530   0.533   0.545   0.550   0.552   0.561   0.567
 39 A    38 B    40 A    39 B    40 B    41 A    42 A    41 B                  
  0.584   0.588   0.596   0.607   0.609   0.611   0.615   0.623
 42 B    43 A    43 B    44 A    44 B    45 A    46 A    45 B                  
  0.624   0.635   0.662   0.670   0.679   0.686   0.723   0.735
 47 A    46 B    48 A    47 B    49 A    48 B    50 A    49 B                  
  0.738   0.743   0.783   0.786   0.797   0.811   0.846   0.847
 51 A    50 B    51 B    52 A    52 B    53 A    54 A    53 B                  
  0.864   0.879   0.881   0.893   0.901   0.920   0.948   0.953
 55 A    54 B    55 B    56 A    56 B    57 A    57 B    58 A                  
  0.959   0.993   1.004   1.013   1.032   1.042   1.053   1.081
 58 B    59 B    59 A    60 A    60 B    61 A    61 B    62 A                  
  1.088   1.099   1.113   1.116   1.151   1.164   1.176   1.181
 62 B    63 A    63 B    64 A    64 B    65 B    65 A    66 A                  
  1.193   1.194   1.211   1.223   1.231   1.246   1.269   1.286
 67 A    66 B    67 B    68 A    68 B    69 A    69 B    70 B                  
  1.293   1.317   1.318   1.373   1.386   1.402   1.418   1.424
 70 A    71 B    71 A    72 A    72 B    73 B    73 A    74 A                  
  1.441   1.463   1.478   1.488   1.490   1.514   1.517   1.530
 74 B    75 B    75 A    76 A    76 B    77 A    77 B    78 A                  
  1.544   1.548   1.572   1.583   1.591   1.610   1.643   1.653
 78 B    79 A    79 B    80 A    80 B    81 A    81 B    82 A                  
  1.672   1.674   1.704   1.723   1.738   1.762   1.777   1.813
 83 A    82 B    83 B    84 A    84 B    85 B    85 A    86 B                  
  1.852   1.870   1.880   1.888   1.905   1.928   1.943   1.947
 86 A    87 A    87 B    88 B    88 A    89 B    89 A    90 A                  
  1.956   1.977   2.036   2.068   2.081   2.106   2.114   2.170
 90 B    91 A    91 B    92 B    92 A    93 B    93 A    94 B                  
  2.182   2.182   2.198   2.210   2.216   2.233   2.257   2.274
 94 A    95 B    95 A    96 A    96 B    97 A    97 B    98 A                  
  2.280   2.313   2.314   2.396   2.431   2.438   2.470   2.474
 98 B    99 B    99 A   100 A   100 B   101 A   101 B   102 A                  
  2.477   2.496   2.508   2.516   2.555   2.557   2.571   2.613
102 B   103 A   103 B   104 A   105 A   104 B   105 B   106 A                  
  2.619   2.632   2.660   2.690   2.721   2.751   2.756   2.756
106 B   107 B   107 A   108 A   108 B   109 A   110 A   109 B                  
  2.770   2.776   2.776   2.811   2.818   2.862   2.890   2.898
110 B   111 A   111 B   112 B   112 A   113 A   114 A   113 B                  
  2.910   2.919   2.964   2.975   2.990   3.005   3.014   3.016
114 B   115 A   115 B   116 A   116 B   117 A   118 A   117 B                  
  3.021   3.031   3.081   3.138   3.140   3.157   3.179   3.199
119 A   118 B   119 B   120 A   120 B   121 A   121 B   122 A                  
  3.205   3.222   3.234   3.244   3.254   3.264   3.283   3.290
122 B   123 B   124 B   123 A   124 A   125 B   125 A   126 A                  
  3.302   3.318   3.327   3.330   3.355   3.355   3.381   3.398
126 B   127 A   127 B   128 A   128 B   129 A   129 B   130 A                  
  3.413   3.414   3.425   3.433   3.438   3.461   3.474   3.478
131 A   130 B   132 A   131 B   133 A   134 A   135 A   132 B                  
  3.484   3.491   3.499   3.507   3.514   3.515   3.518   3.536
133 B   134 B   136 A   135 B   137 A   138 A   136 B   137 B                  
  3.546   3.581   3.595   3.597   3.619   3.632   3.654   3.662
138 B   139 A   139 B   140 A   140 B   141 A   141 B   142 A                  
  3.668   3.693   3.708   3.735   3.741   3.746   3.773   3.786
142 B   143 A   143 B   144 A   145 A   144 B   146 A   145 B                  
  3.799   3.830   3.870   3.895   3.913   3.922   3.929   3.942
147 A   146 B   147 B   148 A   148 B   149 A   149 B   150 A                  
  3.945   3.989   3.999   4.007   4.019   4.031   4.034   4.039
150 B   151 A   151 B   152 A   152 B   153 B   153 A   154 A                  
  4.091   4.118   4.124   4.135   4.171   4.176   4.184   4.186
154 B   155 A   155 B   156 A   156 B   157 A   157 B   158 A                  
  4.206   4.218   4.232   4.251   4.261   4.268   4.285   4.340
159 A   158 B   159 B   160 A   160 B   161 B   161 A   162 A                  
  4.346   4.377   4.406   4.436   4.474   4.476   4.499   4.504
162 B   163 A   163 B   164 A   164 B   165 A   165 B   166 A                  
  4.524   4.569   4.611   4.611   4.642   4.679   4.693   4.695
167 A   166 B   168 A   167 B   169 A   168 B   170 A   169 B                  
  4.695   4.727   4.755   4.774   4.786   4.808   4.844   4.850
171 A   170 B   171 B   172 B   172 A   173 A   173 B   174 A                  
  4.915   4.940   5.009   5.027   5.040   5.050   5.073   5.081
175 A   174 B   175 B   176 A   176 B   177 A   178 A   179 A                  
  5.091   5.107   5.198   5.214   5.253   5.289   5.327   5.373
177 B   178 B   179 B   180 A   180 B   181 A   181 B   182 A                  
  5.398   5.402   5.418   5.461   5.591   5.591   5.649   5.675
182 B   183 A   183 B   184 A   185 A   184 B   185 B   186 A                  
  5.832   5.843   6.004   6.008   6.120   6.120   6.175   6.195
187 A   186 B   187 B   188 A   188 B   189 A   190 A   189 B                  
  6.277   6.550   6.565   6.684   6.791   9.528  10.771  11.828
190 B   191 A   191 B   192 A   192 B   193 A   193 B   194 A                  
 12.233  13.422  13.678  14.520  14.821
194 B   195 A   195 B   196 A   196 B                                          
 --------------------------------------------------------------
 
          Ground-State Mulliken Net Atomic Charges

     Atom                 Charge (a.u.)
  ----------------------------------------
      1 S                     0.119607
      2 C                    -0.238107
      3 C                    -0.192425
      4 C                    -0.196910
      5 C                    -0.025568
      6 H                     0.174734
      7 C                    -0.025568
      8 S                     0.119607
      9 C                    -0.196910
     10 C                    -0.238108
     11 C                    -0.192425
     12 H                     0.174133
     13 H                     0.184537
     14 H                     0.174133
     15 H                     0.184537
     16 H                     0.174734
  ----------------------------------------
  Sum of atomic charges =    -0.000000

 -----------------------------------------------------------------
                    Cartesian Multipole Moments
 -----------------------------------------------------------------
    Charge (ESU x 10^10)
                -0.0000
    Dipole Moment (Debye)
         X      -0.0000      Y       0.0000      Z      -0.6582
       Tot       0.6582
    Quadrupole Moments (Debye-Ang)
        XX     -61.1876     XY       0.6636     YY     -76.2255
        XZ      -0.0000     YZ       0.0000     ZZ     -69.2326
    Octopole Moments (Debye-Ang^2)
       XXX       0.0000    XXY       0.0000    XYY      -0.0000
       YYY       0.0000    XXZ       6.2506    XYZ     -10.2098
       YYZ       0.8082    XZZ      -0.0000    YZZ       0.0000
       ZZZ      -3.4100
    Hexadecapole Moments (Debye-Ang^3)
      XXXX   -1825.5583   XXXY       2.5711   XXYY    -403.0144
      XYYY      -3.8716   YYYY    -187.1324   XXXZ      -0.0000
      XXYZ       0.0000   XYYZ      -0.0000   YYYZ       0.0000
      XXZZ    -397.6062   XYZZ       9.3025   YYZZ    -108.7923
      XZZZ      -0.0000   YZZZ       0.0000   ZZZZ    -475.3350
 -----------------------------------------------------------------
 DrvMan is completing analytic gradient of the MP2 energy
 MP2 relaxed dipole moment
            1
    1  -0.0000000
    2   0.0000000
    3  -0.2589686
	Magnitude:	 0.259 au	 0.658 Debye
 MP2 energy read as -1103.412916
 Full Analytical Gradient of MP2 Energy (in au.)
             1             2             3             4             5
    1    0.00006059    0.00044305   -0.00011098   -0.00008635   -0.00036407
    2   -0.00069704    0.00022245   -0.00012741    0.00243838   -0.00177149
    3   -0.00001431   -0.00003880    0.00019994    0.00150265   -0.00116227
             6             7             8             9            10
    1    0.00014705    0.00036407   -0.00006059    0.00008635   -0.00044305
    2   -0.00093913    0.00177149    0.00069704   -0.00243838   -0.00022245
    3   -0.00052110   -0.00116227   -0.00001431    0.00150265   -0.00003880
            11            12            13            14            15
    1    0.00011098    0.00003077   -0.00000017   -0.00003077    0.00000017
    2    0.00012741   -0.00000314   -0.00016537    0.00000314    0.00016537
    3    0.00019994    0.00000247    0.00003142    0.00000247    0.00003142
            16
    1   -0.00014705
    2    0.00093913
    3   -0.00052110
 Gradient time:  CPU 1.54 s  wall 0.10 s
 Geometry Optimization Parameters
   NAtoms,    NIC,     NZ,  NCons,   NDum,   NFix, NCnnct, MaxDiis
       16     111       0       1       0       0       0       0

 Cartesian Hessian Update
 Hessian Updated using BFGS Update


** CONSTRAINED OPTIMIZATION IN DELOCALIZED INTERNAL COORDINATES **
   Searching for a Minimum

   Optimization Cycle:   2

                       Coordinates (Angstroms)
     ATOM                X               Y               Z
      1  S         1.6374156175   -0.5356609299    1.0309708679
      2  C         3.1153630289   -0.1119671024    0.2925079891
      3  C         2.9146050308    0.4395232774   -0.9489696724
      4  C         1.5545752037    0.5301355421   -1.2868115122
      5  C         0.7200236640    0.0340477159   -0.3086702208
      6  H         1.1789782553    0.9335900813   -2.2099882839
      7  C        -0.7200236640   -0.0340477159   -0.3086702208
      8  S        -1.6374156175    0.5356609299    1.0309708679
      9  C        -1.5545752037   -0.5301355421   -1.2868115122
     10  C        -3.1153630289    0.1119671024    0.2925079891
     11  C        -2.9146050308   -0.4395232774   -0.9489696724
     12  H        -3.7186461230   -0.7729406721   -1.5787299878
     13  H         4.0439776339   -0.2904890297    0.7971653224
     14  H         3.7186461230    0.7729406721   -1.5787299878
     15  H        -4.0439776339    0.2904890297    0.7971653224
     16  H        -1.1789782553   -0.9335900813   -2.2099882839
   Point Group: c2    Number of degrees of freedom:    22


   Energy is  -1103.412915539

              Constraints and their Current Values
                                        Value     Constraint
   Dihedral:        4   5   7   9       50.000       50.000
 Hessian Updated using BFGS Update

 21 Hessian modes will be used to form the next step
  Hessian Eigenvalues:
     0.030185    0.045000    0.045000    0.045001    0.045006    0.055978
     0.158964    0.159994    0.160053    0.223381    0.230006    0.241554
     0.327818    0.340236    0.365480    0.366891    0.370129    0.407028
     0.436560    0.466417    0.496376

 Minimum Search - Taking Simple RFO Step
 Searching for Lamda that Minimizes Along All modes
 Value Taken    Lamda =  -0.00009593
 Step Taken.  Stepsize is  0.051332

                             Maximum     Tolerance    Cnvgd?
         Gradient           0.001463      0.000300      NO
         Displacement       0.034021      0.001200      NO
         Energy change     -0.000353      0.000001      NO


 New Cartesian Coordinates Obtained by Inverse Iteration

 Displacement from previous Coordinates is:  0.059909
 ----------------------------------------------------------------
             Standard Nuclear Orientation (Angstroms)
    I     Atom           X                Y                Z
 ----------------------------------------------------------------
    1      S       1.6410042744    -0.5334385454     1.0354260293
    2      C       3.1158357399    -0.1130619119     0.2896623254
    3      C       2.9121291596     0.4333640472    -0.9538033967
    4      C       1.5509633339     0.5244265769    -1.2862423602
    5      C       0.7205356883     0.0305549258    -0.3035331518
    6      H       1.1697234404     0.9388871282    -2.2020693219
    7      C      -0.7205356883    -0.0305549258    -0.3035331518
    8      S      -1.6410042744     0.5334385454     1.0354260293
    9      C      -1.5509633339    -0.5244265769    -1.2862423602
   10      C      -3.1158357399     0.1130619119     0.2896623254
   11      C      -2.9121291596    -0.4333640472    -0.9538033967
   12      H      -3.7142005476    -0.7686914474    -1.5851422902
   13      H       4.0461883277    -0.2852981666     0.7931766684
   14      H       3.7142005476     0.7686914474    -1.5851422902
   15      H      -4.0461883277     0.2852981666     0.7931766684
   16      H      -1.1697234404    -0.9388871282    -2.2020693219
 ----------------------------------------------------------------
 Molecular Point Group                 C2    NOp =  2
 Largest Abelian Subgroup              C2    NOp =  2
 Nuclear Repulsion Energy =   638.0467294822 hartrees
 There are       43 alpha and       43 beta electrons
 Applying Cartesian multipole field
    Component          Value
    ---------          -----
     (2,0,0)        1.00000E-11
     (0,2,0)        2.00000E-10
     (0,0,2)       -3.00000E-11
 Nucleus-field energy     =     0.0000000183 hartrees
 Requested basis set is cc-pVTZ
 There are 140 shells and 392 basis functions
 A cutoff of  1.0D-11 yielded   8037 shell pairs
 There are     62485 function pairs (     81495 Cartesian)
 Smallest overlap matrix eigenvalue = 8.88E-05
 Guess MOs from SCF MO coefficient file
 Reading MOs from coefficient file
 Reading MOs from coefficient file
 A restricted Hartree-Fock SCF calculation will be
 performed using Pulay DIIS extrapolation
 SCF converges when DIIS error is below 1.0E-08
 Geometry optimization detected.  Setting ReadMinima to 0
 Setting SaveMinima to 0
 using 16 threads for integral computing 
 ---------------------------------------
  Cycle       Energy         DIIS Error
 ---------------------------------------
    1   -1101.5973622500      1.18E-04
    2   -1101.5980947266      1.70E-05
    3   -1101.5981048019      7.94E-06
    4   -1101.5981065081      3.71E-06
    5   -1101.5981070184      1.14E-06
    6   -1101.5981070631      4.45E-07
    7   -1101.5981070724      1.72E-07
    8   -1101.5981070730      5.70E-08
    9   -1101.5981070730      1.96E-08
   10   -1101.5981070733      6.44E-09 Convergence criterion met
 ---------------------------------------
 SCF time:  CPU 651.18 s  wall 40.73 s
 SCF   energy in the final basis set = -1101.5981070733
 Total energy in the final basis set = -1101.5981070733
 
 Components of the MP2 correlation energy:
        aaaa  correlation energy =        -0.2322640312 au
        abab  correlation energy =        -1.3503409603 au
        bbbb  correlation energy =        -0.2322640312 au
        non-Brillouin singles    =        -0.0000000000 au

 Total  MP2   correlation energy =        -1.8148690226 au
        MP2         total energy =     -1103.4129760959 au

  Entering Z-vector solver.
   1         0           1      0.000267    0.000267
   2         0           1      0.000119    0.000119
   3         0           1      0.000049    0.000049
   4         0           1      0.000023    0.000023
   5         0           1      0.000007    0.000007
   6         0           1      0.000003    0.000003
   7         1           0      0.000000    0.000000    Roots Converged
 
 --------------------------------------------------------------
             Orbital Energies (a.u.) and Symmetries
 --------------------------------------------------------------
 
 Alpha MOs, Restricted
 -- Occupied --                  
-91.984 -91.984 -11.273 -11.273 -11.261 -11.261 -11.238 -11.238
  1 B     1 A     2 A     2 B     3 B     3 A     4 B     4 A                  
-11.237 -11.237  -8.986  -8.986  -6.667  -6.667  -6.666  -6.666
  5 B     5 A     6 B     6 A     7 B     7 A     8 A     8 B                  
 -6.666  -6.666  -1.196  -1.166  -1.034  -0.997  -0.987  -0.948
  9 B     9 A    10 A    10 B    11 A    12 A    11 B    12 B                  
 -0.808  -0.773  -0.753  -0.718  -0.705  -0.645  -0.572  -0.569
 13 A    14 A    13 B    14 B    15 A    15 B    16 A    17 A                  
 -0.564  -0.554  -0.539  -0.512  -0.512  -0.482  -0.471  -0.358
 16 B    17 B    18 A    19 A    18 B    20 A    19 B    20 B                  
 -0.352  -0.348  -0.292
 21 A    21 B    22 A                                                          
 -- Virtual --                   
  0.086   0.132   0.148   0.152   0.161   0.175   0.178   0.191
 22 B    23 A    24 A    23 B    25 A    24 B    26 A    25 B                  
  0.202   0.202   0.207   0.236   0.237   0.261   0.314   0.344
 27 A    28 A    26 B    27 B    29 A    28 B    30 A    29 B                  
  0.346   0.358   0.366   0.382   0.383   0.398   0.419   0.430
 30 B    31 A    32 A    33 A    31 B    32 B    33 B    34 A                  
  0.447   0.455   0.456   0.465   0.477   0.481   0.497   0.514
 35 A    34 B    36 A    35 B    37 A    36 B    37 B    38 A                  
  0.522   0.530   0.533   0.544   0.551   0.552   0.560   0.567
 39 A    38 B    40 A    39 B    40 B    41 A    42 A    41 B                  
  0.584   0.588   0.596   0.607   0.609   0.612   0.616   0.622
 42 B    43 A    43 B    44 A    44 B    45 A    46 A    45 B                  
  0.624   0.635   0.662   0.670   0.679   0.686   0.723   0.735
 47 A    46 B    48 A    47 B    49 A    48 B    50 A    49 B                  
  0.738   0.743   0.782   0.786   0.798   0.810   0.846   0.847
 51 A    50 B    51 B    52 A    52 B    53 A    54 A    53 B                  
  0.863   0.880   0.881   0.892   0.902   0.922   0.949   0.953
 55 A    54 B    55 B    56 A    56 B    57 A    57 B    58 A                  
  0.958   0.993   1.003   1.015   1.032   1.042   1.053   1.081
 58 B    59 B    59 A    60 A    60 B    61 A    61 B    62 A                  
  1.089   1.100   1.113   1.115   1.149   1.165   1.174   1.182
 62 B    63 A    63 B    64 A    64 B    65 B    65 A    66 A                  
  1.193   1.194   1.211   1.223   1.231   1.245   1.268   1.286
 67 A    66 B    67 B    68 A    68 B    69 A    69 B    70 B                  
  1.295   1.317   1.320   1.373   1.386   1.403   1.417   1.424
 70 A    71 B    71 A    72 A    72 B    73 B    73 A    74 A                  
  1.442   1.463   1.478   1.488   1.491   1.514   1.518   1.530
 74 B    75 B    75 A    76 A    76 B    77 A    77 B    78 A                  
  1.544   1.548   1.571   1.582   1.592   1.610   1.642   1.652
 78 B    79 A    79 B    80 A    80 B    81 A    81 B    82 A                  
  1.673   1.674   1.705   1.722   1.737   1.763   1.776   1.813
 83 A    82 B    83 B    84 A    84 B    85 B    85 A    86 B                  
  1.852   1.868   1.880   1.888   1.904   1.927   1.944   1.947
 86 A    87 A    87 B    88 B    88 A    89 B    89 A    90 A                  
  1.956   1.976   2.036   2.067   2.080   2.105   2.114   2.170
 90 B    91 A    91 B    92 B    92 A    93 B    93 A    94 B                  
  2.183   2.183   2.199   2.209   2.217   2.233   2.258   2.274
 95 B    94 A    95 A    96 A    96 B    97 A    97 B    98 A                  
  2.281   2.311   2.314   2.396   2.432   2.438   2.470   2.477
 98 B    99 B    99 A   100 A   100 B   101 A   101 B   102 A                  
  2.477   2.496   2.508   2.517   2.555   2.558   2.571   2.613
102 B   103 A   103 B   104 A   105 A   104 B   105 B   106 A                  
  2.619   2.632   2.660   2.692   2.721   2.751   2.755   2.756
106 B   107 B   107 A   108 A   108 B   109 A   110 A   109 B                  
  2.770   2.775   2.777   2.810   2.818   2.864   2.890   2.899
110 B   111 B   111 A   112 B   112 A   113 A   114 A   113 B                  
  2.908   2.920   2.965   2.975   2.991   3.004   3.013   3.014
114 B   115 A   115 B   116 A   116 B   117 A   117 B   118 A                  
  3.021   3.032   3.083   3.138   3.139   3.158   3.180   3.199
119 A   118 B   119 B   120 A   120 B   121 A   121 B   122 A                  
  3.205   3.222   3.235   3.243   3.252   3.264   3.284   3.290
122 B   123 B   124 B   123 A   124 A   125 B   125 A   126 A                  
  3.303   3.318   3.327   3.328   3.354   3.359   3.381   3.398
126 B   127 A   127 B   128 A   128 B   129 A   129 B   130 A                  
  3.411   3.415   3.425   3.434   3.439   3.461   3.474   3.479
131 A   130 B   132 A   131 B   133 A   134 A   135 A   132 B                  
  3.486   3.489   3.498   3.507   3.514   3.516   3.519   3.536
133 B   134 B   136 A   135 B   137 A   138 A   136 B   137 B                  
  3.546   3.582   3.596   3.597   3.618   3.634   3.654   3.662
138 B   139 A   139 B   140 A   140 B   141 A   141 B   142 A                  
  3.668   3.692   3.709   3.737   3.740   3.746   3.772   3.788
142 B   143 A   143 B   144 A   145 A   144 B   146 A   145 B                  
  3.799   3.829   3.869   3.895   3.911   3.921   3.928   3.943
147 A   146 B   147 B   148 A   148 B   149 A   149 B   150 B                  
  3.944   3.989   4.001   4.007   4.019   4.033   4.033   4.040
150 A   151 A   151 B   152 A   152 B   153 A   153 B   154 A                  
  4.092   4.119   4.122   4.136   4.172   4.177   4.186   4.186
154 B   155 A   155 B   156 A   156 B   157 A   157 B   158 A                  
  4.206   4.219   4.230   4.251   4.262   4.269   4.286   4.342
159 A   158 B   159 B   160 A   160 B   161 B   161 A   162 A                  
  4.347   4.379   4.405   4.437   4.474   4.476   4.501   4.502
162 B   163 A   163 B   164 A   164 B   165 A   165 B   166 A                  
  4.524   4.570   4.610   4.613   4.642   4.680   4.693   4.695
167 A   166 B   168 A   167 B   169 A   168 B   170 A   169 B                  
  4.695   4.725   4.756   4.778   4.787   4.809   4.843   4.850
171 A   170 B   171 B   172 B   172 A   173 A   173 B   174 A                  
  4.916   4.940   5.008   5.022   5.039   5.048   5.074   5.081
175 A   174 B   175 B   176 A   176 B   177 A   178 A   179 A                  
  5.091   5.108   5.197   5.215   5.254   5.288   5.325   5.372
177 B   178 B   179 B   180 A   180 B   181 A   181 B   182 A                  
  5.397   5.403   5.418   5.461   5.590   5.591   5.648   5.675
182 B   183 A   183 B   184 A   185 A   184 B   185 B   186 A                  
  5.831   5.845   6.005   6.010   6.120   6.120   6.176   6.196
187 A   186 B   187 B   188 A   188 B   189 A   190 A   189 B                  
  6.282   6.550   6.566   6.683   6.788   9.526  10.771  11.826
190 B   191 A   191 B   192 A   192 B   193 A   193 B   194 A                  
 12.227  13.421  13.675  14.520  14.821
194 B   195 A   195 B   196 A   196 B                                          
 
 Beta MOs, Restricted
 -- Occupied --                  
-91.984 -91.984 -11.273 -11.273 -11.261 -11.261 -11.238 -11.238
  1 B     1 A     2 A     2 B     3 B     3 A     4 B     4 A                  
-11.237 -11.237  -8.986  -8.986  -6.667  -6.667  -6.666  -6.666
  5 B     5 A     6 B     6 A     7 B     7 A     8 A     8 B                  
 -6.666  -6.666  -1.196  -1.166  -1.034  -0.997  -0.987  -0.948
  9 B     9 A    10 A    10 B    11 A    12 A    11 B    12 B                  
 -0.808  -0.773  -0.753  -0.718  -0.705  -0.645  -0.572  -0.569
 13 A    14 A    13 B    14 B    15 A    15 B    16 A    17 A                  
 -0.564  -0.554  -0.539  -0.512  -0.512  -0.482  -0.471  -0.358
 16 B    17 B    18 A    19 A    18 B    20 A    19 B    20 B                  
 -0.352  -0.348  -0.292
 21 A    21 B    22 A                                                          
 -- Virtual --                   
  0.086   0.132   0.148   0.152   0.161   0.175   0.178   0.191
 22 B    23 A    24 A    23 B    25 A    24 B    26 A    25 B                  
  0.202   0.202   0.207   0.236   0.237   0.261   0.314   0.344
 27 A    28 A    26 B    27 B    29 A    28 B    30 A    29 B                  
  0.346   0.358   0.366   0.382   0.383   0.398   0.419   0.430
 30 B    31 A    32 A    33 A    31 B    32 B    33 B    34 A                  
  0.447   0.455   0.456   0.465   0.477   0.481   0.497   0.514
 35 A    34 B    36 A    35 B    37 A    36 B    37 B    38 A                  
  0.522   0.530   0.533   0.544   0.551   0.552   0.560   0.567
 39 A    38 B    40 A    39 B    40 B    41 A    42 A    41 B                  
  0.584   0.588   0.596   0.607   0.609   0.612   0.616   0.622
 42 B    43 A    43 B    44 A    44 B    45 A    46 A    45 B                  
  0.624   0.635   0.662   0.670   0.679   0.686   0.723   0.735
 47 A    46 B    48 A    47 B    49 A    48 B    50 A    49 B                  
  0.738   0.743   0.782   0.786   0.798   0.810   0.846   0.847
 51 A    50 B    51 B    52 A    52 B    53 A    54 A    53 B                  
  0.863   0.880   0.881   0.892   0.902   0.922   0.949   0.953
 55 A    54 B    55 B    56 A    56 B    57 A    57 B    58 A                  
  0.958   0.993   1.003   1.015   1.032   1.042   1.053   1.081
 58 B    59 B    59 A    60 A    60 B    61 A    61 B    62 A                  
  1.089   1.100   1.113   1.115   1.149   1.165   1.174   1.182
 62 B    63 A    63 B    64 A    64 B    65 B    65 A    66 A                  
  1.193   1.194   1.211   1.223   1.231   1.245   1.268   1.286
 67 A    66 B    67 B    68 A    68 B    69 A    69 B    70 B                  
  1.295   1.317   1.320   1.373   1.386   1.403   1.417   1.424
 70 A    71 B    71 A    72 A    72 B    73 B    73 A    74 A                  
  1.442   1.463   1.478   1.488   1.491   1.514   1.518   1.530
 74 B    75 B    75 A    76 A    76 B    77 A    77 B    78 A                  
  1.544   1.548   1.571   1.582   1.592   1.610   1.642   1.652
 78 B    79 A    79 B    80 A    80 B    81 A    81 B    82 A                  
  1.673   1.674   1.705   1.722   1.737   1.763   1.776   1.813
 83 A    82 B    83 B    84 A    84 B    85 B    85 A    86 B                  
  1.852   1.868   1.880   1.888   1.904   1.927   1.944   1.947
 86 A    87 A    87 B    88 B    88 A    89 B    89 A    90 A                  
  1.956   1.976   2.036   2.067   2.080   2.105   2.114   2.170
 90 B    91 A    91 B    92 B    92 A    93 B    93 A    94 B                  
  2.183   2.183   2.199   2.209   2.217   2.233   2.258   2.274
 95 B    94 A    95 A    96 A    96 B    97 A    97 B    98 A                  
  2.281   2.311   2.314   2.396   2.432   2.438   2.470   2.477
 98 B    99 B    99 A   100 A   100 B   101 A   101 B   102 A                  
  2.477   2.496   2.508   2.517   2.555   2.558   2.571   2.613
102 B   103 A   103 B   104 A   105 A   104 B   105 B   106 A                  
  2.619   2.632   2.660   2.692   2.721   2.751   2.755   2.756
106 B   107 B   107 A   108 A   108 B   109 A   110 A   109 B                  
  2.770   2.775   2.777   2.810   2.818   2.864   2.890   2.899
110 B   111 B   111 A   112 B   112 A   113 A   114 A   113 B                  
  2.908   2.920   2.965   2.975   2.991   3.004   3.013   3.014
114 B   115 A   115 B   116 A   116 B   117 A   117 B   118 A                  
  3.021   3.032   3.083   3.138   3.139   3.158   3.180   3.199
119 A   118 B   119 B   120 A   120 B   121 A   121 B   122 A                  
  3.205   3.222   3.235   3.243   3.252   3.264   3.284   3.290
122 B   123 B   124 B   123 A   124 A   125 B   125 A   126 A                  
  3.303   3.318   3.327   3.328   3.354   3.359   3.381   3.398
126 B   127 A   127 B   128 A   128 B   129 A   129 B   130 A                  
  3.411   3.415   3.425   3.434   3.439   3.461   3.474   3.479
131 A   130 B   132 A   131 B   133 A   134 A   135 A   132 B                  
  3.486   3.489   3.498   3.507   3.514   3.516   3.519   3.536
133 B   134 B   136 A   135 B   137 A   138 A   136 B   137 B                  
  3.546   3.582   3.596   3.597   3.618   3.634   3.654   3.662
138 B   139 A   139 B   140 A   140 B   141 A   141 B   142 A                  
  3.668   3.692   3.709   3.737   3.740   3.746   3.772   3.788
142 B   143 A   143 B   144 A   145 A   144 B   146 A   145 B                  
  3.799   3.829   3.869   3.895   3.911   3.921   3.928   3.943
147 A   146 B   147 B   148 A   148 B   149 A   149 B   150 B                  
  3.944   3.989   4.001   4.007   4.019   4.033   4.033   4.040
150 A   151 A   151 B   152 A   152 B   153 A   153 B   154 A                  
  4.092   4.119   4.122   4.136   4.172   4.177   4.186   4.186
154 B   155 A   155 B   156 A   156 B   157 A   157 B   158 A                  
  4.206   4.219   4.230   4.251   4.262   4.269   4.286   4.342
159 A   158 B   159 B   160 A   160 B   161 B   161 A   162 A                  
  4.347   4.379   4.405   4.437   4.474   4.476   4.501   4.502
162 B   163 A   163 B   164 A   164 B   165 A   165 B   166 A                  
  4.524   4.570   4.610   4.613   4.642   4.680   4.693   4.695
167 A   166 B   168 A   167 B   169 A   168 B   170 A   169 B                  
  4.695   4.725   4.756   4.778   4.787   4.809   4.843   4.850
171 A   170 B   171 B   172 B   172 A   173 A   173 B   174 A                  
  4.916   4.940   5.008   5.022   5.039   5.048   5.074   5.081
175 A   174 B   175 B   176 A   176 B   177 A   178 A   179 A                  
  5.091   5.108   5.197   5.215   5.254   5.288   5.325   5.372
177 B   178 B   179 B   180 A   180 B   181 A   181 B   182 A                  
  5.397   5.403   5.418   5.461   5.590   5.591   5.648   5.675
182 B   183 A   183 B   184 A   185 A   184 B   185 B   186 A                  
  5.831   5.845   6.005   6.010   6.120   6.120   6.176   6.196
187 A   186 B   187 B   188 A   188 B   189 A   190 A   189 B                  
  6.282   6.550   6.566   6.683   6.788   9.526  10.771  11.826
190 B   191 A   191 B   192 A   192 B   193 A   193 B   194 A                  
 12.227  13.421  13.675  14.520  14.821
194 B   195 A   195 B   196 A   196 B                                          
 --------------------------------------------------------------
 
          Ground-State Mulliken Net Atomic Charges

     Atom                 Charge (a.u.)
  ----------------------------------------
      1 S                     0.119362
      2 C                    -0.237832
      3 C                    -0.192991
      4 C                    -0.196947
      5 C                    -0.025371
      6 H                     0.175137
      7 C                    -0.025371
      8 S                     0.119362
      9 C                    -0.196947
     10 C                    -0.237832
     11 C                    -0.192991
     12 H                     0.174154
     13 H                     0.184488
     14 H                     0.174154
     15 H                     0.184488
     16 H                     0.175137
  ----------------------------------------
  Sum of atomic charges =    -0.000000

 -----------------------------------------------------------------
                    Cartesian Multipole Moments
 -----------------------------------------------------------------
    Charge (ESU x 10^10)
                 0.0000
    Dipole Moment (Debye)
         X       0.0000      Y      -0.0000      Z      -0.6419
       Tot       0.6419
    Quadrupole Moments (Debye-Ang)
        XX     -61.2210     XY       0.7361     YY     -76.2014
        XZ      -0.0000     YZ       0.0000     ZZ     -69.2605
    Octopole Moments (Debye-Ang^2)
       XXX       0.0000    XXY       0.0000    XYY       0.0000
       YYY      -0.0000    XXZ       6.1868    XYZ     -10.1689
       YYZ       0.6394    XZZ       0.0000    YZZ      -0.0000
       ZZZ      -3.4534
    Hexadecapole Moments (Debye-Ang^3)
      XXXX   -1826.0205   XXXY       4.4192   XXYY    -403.0437
      XYYY      -2.5798   YYYY    -185.8595   XXXZ      -0.0000
      XXYZ      -0.0000   XYYZ      -0.0000   YYYZ       0.0000
      XXZZ    -397.8486   XYZZ       9.8024   YYZZ    -108.7651
      XZZZ      -0.0000   YZZZ      -0.0000   ZZZZ    -477.2808
 -----------------------------------------------------------------
 DrvMan is completing analytic gradient of the MP2 energy
 MP2 relaxed dipole moment
            1
    1   0.0000000
    2  -0.0000000
    3  -0.2525234
	Magnitude:	 0.253 au	 0.642 Debye
 MP2 energy read as -1103.412976
 Full Analytical Gradient of MP2 Energy (in au.)
             1             2             3             4             5
    1    0.00013844   -0.00011347   -0.00004556   -0.00013652    0.00071029
    2   -0.00043973    0.00007819   -0.00043871    0.00193884   -0.00244382
    3    0.00007662    0.00014005   -0.00022437    0.00111199   -0.00096515
             6             7             8             9            10
    1    0.00004735   -0.00071029   -0.00013844    0.00013652    0.00011347
    2   -0.00036334    0.00244382    0.00043973   -0.00193884   -0.00007819
    3   -0.00017275   -0.00096515    0.00007662    0.00111199    0.00014005
            11            12            13            14            15
    1    0.00004556    0.00001953   -0.00002342   -0.00001953    0.00002342
    2    0.00043871   -0.00016337    0.00005941    0.00016337   -0.00005941
    3   -0.00022437    0.00000945    0.00002416    0.00000945    0.00002416
            16
    1   -0.00004735
    2    0.00036334
    3   -0.00017275
 Gradient time:  CPU 1.50 s  wall 0.10 s
 Geometry Optimization Parameters
   NAtoms,    NIC,     NZ,  NCons,   NDum,   NFix, NCnnct, MaxDiis
       16     111       0       1       0       0       0       0

 Cartesian Hessian Update
 Hessian Updated using BFGS Update


** CONSTRAINED OPTIMIZATION IN DELOCALIZED INTERNAL COORDINATES **
   Searching for a Minimum

   Optimization Cycle:   3

                       Coordinates (Angstroms)
     ATOM                X               Y               Z
      1  S         1.6410042744   -0.5334385454    1.0354260293
      2  C         3.1158357399   -0.1130619119    0.2896623254
      3  C         2.9121291596    0.4333640472   -0.9538033967
      4  C         1.5509633339    0.5244265769   -1.2862423602
      5  C         0.7205356883    0.0305549258   -0.3035331518
      6  H         1.1697234404    0.9388871282   -2.2020693219
      7  C        -0.7205356883   -0.0305549258   -0.3035331518
      8  S        -1.6410042744    0.5334385454    1.0354260293
      9  C        -1.5509633339   -0.5244265769   -1.2862423602
[...]
         Gradient           0.000058      0.000300     YES
         Displacement       0.001919      0.001200      NO
         Energy change     -0.000001      0.000001     YES

 Final energy is   -1103.41299026601     


 ******************************
 **  OPTIMIZATION CONVERGED  **
 ******************************

                       Coordinates (Angstroms)
     ATOM                X               Y               Z
      1  S         1.6420344790   -0.5279655301    1.0385661144
      2  C         3.1163706240   -0.1112688927    0.2892383980
      3  C         2.9110831684    0.4325158308   -0.9550275897
      4  C         1.5495576746    0.5206436839   -1.2868534181
      5  C         0.7201604241    0.0283317946   -0.3018228437
      6  H         1.1662298704    0.9406961531   -2.1992586976
      7  C        -0.7201604241   -0.0283317946   -0.3018228437
      8  S        -1.6420344790    0.5279655301    1.0385661144
      9  C        -1.5495576746   -0.5206436839   -1.2868534181
     10  C        -3.1163706240    0.1112688927    0.2892383980
     11  C        -2.9110831684   -0.4325158308   -0.9550275897
     12  H        -3.7128403379   -0.7636149734   -1.5889190873
     13  H         4.0473135491   -0.2839064169    0.7915516263
     14  H         3.7128403379    0.7636149734   -1.5889190873
     15  H        -4.0473135491    0.2839064169    0.7915516263
     16  H        -1.1662298704   -0.9406961531   -2.1992586976

Z-matrix Print:
$molecule
0 1
S 
C  1 1.705519
H  2 1.071810 1 120.369556
C  2 1.373333 1 111.443692 3 -179.974074 0
H  4 1.074365 2 123.027432 1 -179.798931 0
C  4 1.404146 2 112.575755 1 -0.647598 0
H  6 1.075113 4 124.806027 2 -178.136467 0
C  6 1.378607 4 113.084813 2 0.768953 0
C  8 1.441435 6 127.965951 4 -179.471318 0
C  9 1.378607 8 127.965951 6 -50.000000 0
H  10 1.075113 9 122.099837 8 -0.532255 0
C  10 1.404146 9 113.084813 8 -179.471318 0
H  12 1.074365 10 124.390916 9 179.906702 0
C  12 1.373333 10 112.575755 9 0.768953 0
H  14 1.071810 12 128.186746 10 179.380860 0
S  14 1.705519 12 111.443692 10 -0.647598 0
$end

 
 --------------------------------------------------------------
             Orbital Energies (a.u.) and Symmetries
 --------------------------------------------------------------
 
 Alpha MOs, Restricted
 -- Occupied --                  
-91.984 -91.984 -11.273 -11.273 -11.261 -11.261 -11.238 -11.238
  1 B     1 A     2 A     2 B     3 B     3 A     4 B     4 A                  
-11.237 -11.237  -8.986  -8.986  -6.667  -6.667  -6.666  -6.666
  5 B     5 A     6 B     6 A     7 B     7 A     8 A     8 B                  
 -6.666  -6.666  -1.196  -1.166  -1.034  -0.997  -0.987  -0.948
  9 B     9 A    10 A    10 B    11 A    12 A    11 B    12 B                  
 -0.808  -0.773  -0.753  -0.718  -0.705  -0.645  -0.572  -0.569
 13 A    14 A    13 B    14 B    15 A    15 B    16 A    17 A                  
 -0.564  -0.553  -0.539  -0.512  -0.512  -0.483  -0.470  -0.358
 16 B    17 B    18 A    19 A    18 B    20 A    19 B    20 B                  
 -0.352  -0.348  -0.291
 21 A    21 B    22 A                                                          
 -- Virtual --                   
  0.086   0.132   0.148   0.152   0.161   0.175   0.178   0.191
 22 B    23 A    24 A    23 B    25 A    24 B    26 A    25 B                  
  0.202   0.202   0.207   0.236   0.236   0.261   0.314   0.344
 27 A    28 A    26 B    27 B    29 A    28 B    30 A    29 B                  
  0.346   0.358   0.365   0.382   0.383   0.398   0.418   0.430
 30 B    31 A    32 A    33 A    31 B    32 B    33 B    34 A                  
  0.447   0.455   0.456   0.465   0.478   0.481   0.497   0.514
 35 A    34 B    36 A    35 B    37 A    36 B    37 B    38 A                  
  0.522   0.531   0.534   0.545   0.551   0.552   0.560   0.567
 39 A    38 B    40 A    39 B    40 B    41 A    42 A    41 B                  
  0.584   0.589   0.595   0.606   0.609   0.612   0.616   0.621
 42 B    43 A    43 B    44 A    44 B    45 A    46 A    45 B                  
  0.624   0.636   0.662   0.670   0.680   0.686   0.723   0.736
 47 A    46 B    48 A    47 B    49 A    48 B    50 A    49 B                  
  0.738   0.743   0.782   0.786   0.799   0.810   0.846   0.847
 51 A    50 B    51 B    52 A    52 B    53 A    54 A    53 B                  
  0.862   0.880   0.882   0.891   0.902   0.922   0.949   0.952
 55 A    54 B    55 B    56 A    56 B    57 A    57 B    58 A                  
  0.958   0.992   1.004   1.016   1.032   1.041   1.054   1.081
 58 B    59 B    59 A    60 A    60 B    61 A    61 B    62 A                  
  1.089   1.100   1.113   1.115   1.148   1.165   1.173   1.182
 62 B    63 A    63 B    64 A    64 B    65 B    65 A    66 A                  
  1.193   1.194   1.211   1.223   1.231   1.245   1.268   1.286
 67 A    66 B    67 B    68 A    68 B    69 A    69 B    70 B                  
  1.295   1.317   1.321   1.372   1.386   1.403   1.416   1.424
 70 A    71 B    71 A    72 A    72 B    73 B    73 A    74 A                  
  1.442   1.463   1.478   1.488   1.491   1.514   1.519   1.530
 74 B    75 B    75 A    76 A    76 B    77 A    77 B    78 A                  
  1.544   1.548   1.570   1.582   1.593   1.610   1.642   1.651
 78 B    79 A    79 B    80 A    80 B    81 A    81 B    82 A                  
  1.673   1.674   1.705   1.721   1.737   1.765   1.776   1.813
 83 A    82 B    83 B    84 A    84 B    85 B    85 A    86 B                  
  1.852   1.867   1.880   1.887   1.902   1.926   1.944   1.949
 86 A    87 A    87 B    88 B    88 A    89 B    89 A    90 A                  
  1.956   1.976   2.036   2.068   2.080   2.103   2.115   2.170
 90 B    91 A    91 B    92 B    92 A    93 B    93 A    94 B                  
  2.183   2.184   2.199   2.209   2.218   2.234   2.259   2.273
 95 B    94 A    95 A    96 A    96 B    97 A    97 B    98 A                  
  2.280   2.311   2.314   2.397   2.432   2.438   2.469   2.476
 98 B    99 B    99 A   100 A   100 B   101 A   101 B   102 B                  
  2.478   2.495   2.508   2.518   2.555   2.558   2.570   2.612
102 A   103 A   103 B   104 A   105 A   104 B   105 B   106 A                  
  2.619   2.632   2.661   2.693   2.722   2.750   2.755   2.755
106 B   107 B   107 A   108 A   108 B   109 A   110 A   109 B                  
  2.771   2.776   2.777   2.811   2.817   2.864   2.889   2.900
110 B   111 B   111 A   112 B   112 A   113 A   114 A   113 B                  
  2.907   2.920   2.966   2.975   2.991   3.003   3.011   3.015
114 B   115 A   115 B   116 A   116 B   117 A   117 B   118 A                  
  3.021   3.033   3.084   3.138   3.139   3.158   3.180   3.199
119 A   118 B   119 B   120 A   120 B   121 A   121 B   122 A                  
  3.206   3.223   3.236   3.242   3.251   3.263   3.283   3.290
122 B   123 B   124 B   123 A   124 A   125 B   125 A   126 A                  
  3.303   3.317   3.327   3.327   3.353   3.362   3.381   3.397
126 B   127 A   127 B   128 A   128 B   129 A   129 B   130 A                  
  3.412   3.415   3.424   3.435   3.439   3.461   3.474   3.478
131 A   130 B   132 A   131 B   133 A   134 A   135 A   132 B                  
  3.487   3.488   3.498   3.507   3.514   3.517   3.520   3.536
133 B   134 B   136 A   135 B   137 A   138 A   136 B   137 B                  
  3.545   3.582   3.597   3.597   3.618   3.636   3.653   3.661
138 B   139 A   139 B   140 A   140 B   141 A   141 B   142 A                  
  3.668   3.692   3.710   3.737   3.740   3.746   3.773   3.789
142 B   143 A   143 B   144 A   145 A   144 B   146 A   145 B                  
  3.798   3.829   3.869   3.895   3.911   3.921   3.928   3.942
147 A   146 B   147 B   148 A   148 B   149 A   149 B   150 B                  
  3.946   3.988   4.001   4.006   4.019   4.033   4.033   4.041
150 A   151 A   151 B   152 A   152 B   153 A   153 B   154 A                  
  4.092   4.118   4.122   4.136   4.173   4.178   4.185   4.185
154 B   155 A   155 B   156 A   156 B   157 A   158 A   157 B                  
  4.206   4.219   4.230   4.251   4.262   4.270   4.288   4.343
159 A   158 B   159 B   160 A   160 B   161 B   161 A   162 A                  
  4.347   4.380   4.406   4.438   4.473   4.476   4.501   4.501
162 B   163 A   163 B   164 A   164 B   165 A   166 A   165 B                  
  4.524   4.571   4.609   4.613   4.641   4.678   4.693   4.695
167 A   166 B   168 A   167 B   169 A   168 B   170 A   171 A                  
  4.695   4.726   4.756   4.781   4.788   4.808   4.842   4.849
169 B   170 B   171 B   172 B   172 A   173 A   173 B   174 A                  
  4.918   4.941   5.008   5.020   5.040   5.047   5.074   5.081
175 A   174 B   175 B   176 A   176 B   177 A   178 A   179 A                  
  5.091   5.109   5.197   5.215   5.254   5.288   5.325   5.372
177 B   178 B   179 B   180 A   180 B   181 A   181 B   182 A                  
  5.396   5.403   5.418   5.461   5.590   5.592   5.646   5.676
182 B   183 A   183 B   184 A   185 A   184 B   185 B   186 A                  
  5.830   5.846   6.005   6.010   6.120   6.120   6.176   6.197
187 A   186 B   187 B   188 A   188 B   189 A   190 A   189 B                  
  6.286   6.550   6.567   6.683   6.787   9.524  10.779  11.821
190 B   191 A   191 B   192 A   192 B   193 A   193 B   194 A                  
 12.234  13.417  13.675  14.517  14.819
194 B   195 A   195 B   196 A   196 B                                          
 
 Beta MOs, Restricted
 -- Occupied --                  
-91.984 -91.984 -11.273 -11.273 -11.261 -11.261 -11.238 -11.238
  1 B     1 A     2 A     2 B     3 B     3 A     4 B     4 A                  
-11.237 -11.237  -8.986  -8.986  -6.667  -6.667  -6.666  -6.666
  5 B     5 A     6 B     6 A     7 B     7 A     8 A     8 B                  
 -6.666  -6.666  -1.196  -1.166  -1.034  -0.997  -0.987  -0.948
  9 B     9 A    10 A    10 B    11 A    12 A    11 B    12 B                  
 -0.808  -0.773  -0.753  -0.718  -0.705  -0.645  -0.572  -0.569
 13 A    14 A    13 B    14 B    15 A    15 B    16 A    17 A                  
 -0.564  -0.553  -0.539  -0.512  -0.512  -0.483  -0.470  -0.358
 16 B    17 B    18 A    19 A    18 B    20 A    19 B    20 B                  
 -0.352  -0.348  -0.291
 21 A    21 B    22 A                                                          
 -- Virtual --                   
  0.086   0.132   0.148   0.152   0.161   0.175   0.178   0.191
 22 B    23 A    24 A    23 B    25 A    24 B    26 A    25 B                  
  0.202   0.202   0.207   0.236   0.236   0.261   0.314   0.344
 27 A    28 A    26 B    27 B    29 A    28 B    30 A    29 B                  
  0.346   0.358   0.365   0.382   0.383   0.398   0.418   0.430
 30 B    31 A    32 A    33 A    31 B    32 B    33 B    34 A                  
  0.447   0.455   0.456   0.465   0.478   0.481   0.497   0.514
 35 A    34 B    36 A    35 B    37 A    36 B    37 B    38 A                  
  0.522   0.531   0.534   0.545   0.551   0.552   0.560   0.567
 39 A    38 B    40 A    39 B    40 B    41 A    42 A    41 B                  
  0.584   0.589   0.595   0.606   0.609   0.612   0.616   0.621
 42 B    43 A    43 B    44 A    44 B    45 A    46 A    45 B                  
  0.624   0.636   0.662   0.670   0.680   0.686   0.723   0.736
 47 A    46 B    48 A    47 B    49 A    48 B    50 A    49 B                  
  0.738   0.743   0.782   0.786   0.799   0.810   0.846   0.847
 51 A    50 B    51 B    52 A    52 B    53 A    54 A    53 B                  
  0.862   0.880   0.882   0.891   0.902   0.922   0.949   0.952
 55 A    54 B    55 B    56 A    56 B    57 A    57 B    58 A                  
  0.958   0.992   1.004   1.016   1.032   1.041   1.054   1.081
 58 B    59 B    59 A    60 A    60 B    61 A    61 B    62 A                  
  1.089   1.100   1.113   1.115   1.148   1.165   1.173   1.182
 62 B    63 A    63 B    64 A    64 B    65 B    65 A    66 A                  
  1.193   1.194   1.211   1.223   1.231   1.245   1.268   1.286
 67 A    66 B    67 B    68 A    68 B    69 A    69 B    70 B                  
  1.295   1.317   1.321   1.372   1.386   1.403   1.416   1.424
 70 A    71 B    71 A    72 A    72 B    73 B    73 A    74 A                  
  1.442   1.463   1.478   1.488   1.491   1.514   1.519   1.530
 74 B    75 B    75 A    76 A    76 B    77 A    77 B    78 A                  
  1.544   1.548   1.570   1.582   1.593   1.610   1.642   1.651
 78 B    79 A    79 B    80 A    80 B    81 A    81 B    82 A                  
  1.673   1.674   1.705   1.721   1.737   1.765   1.776   1.813
 83 A    82 B    83 B    84 A    84 B    85 B    85 A    86 B                  
  1.852   1.867   1.880   1.887   1.902   1.926   1.944   1.949
 86 A    87 A    87 B    88 B    88 A    89 B    89 A    90 A                  
  1.956   1.976   2.036   2.068   2.080   2.103   2.115   2.170
 90 B    91 A    91 B    92 B    92 A    93 B    93 A    94 B                  
  2.183   2.184   2.199   2.209   2.218   2.234   2.259   2.273
 95 B    94 A    95 A    96 A    96 B    97 A    97 B    98 A                  
  2.280   2.311   2.314   2.397   2.432   2.438   2.469   2.476
 98 B    99 B    99 A   100 A   100 B   101 A   101 B   102 B                  
  2.478   2.495   2.508   2.518   2.555   2.558   2.570   2.612
102 A   103 A   103 B   104 A   105 A   104 B   105 B   106 A                  
  2.619   2.632   2.661   2.693   2.722   2.750   2.755   2.755
106 B   107 B   107 A   108 A   108 B   109 A   110 A   109 B                  
  2.771   2.776   2.777   2.811   2.817   2.864   2.889   2.900
110 B   111 B   111 A   112 B   112 A   113 A   114 A   113 B                  
  2.907   2.920   2.966   2.975   2.991   3.003   3.011   3.015
114 B   115 A   115 B   116 A   116 B   117 A   117 B   118 A                  
  3.021   3.033   3.084   3.138   3.139   3.158   3.180   3.199
119 A   118 B   119 B   120 A   120 B   121 A   121 B   122 A                  
  3.206   3.223   3.236   3.242   3.251   3.263   3.283   3.290
122 B   123 B   124 B   123 A   124 A   125 B   125 A   126 A                  
  3.303   3.317   3.327   3.327   3.353   3.362   3.381   3.397
126 B   127 A   127 B   128 A   128 B   129 A   129 B   130 A                  
  3.412   3.415   3.424   3.435   3.439   3.461   3.474   3.478
131 A   130 B   132 A   131 B   133 A   134 A   135 A   132 B                  
  3.487   3.488   3.498   3.507   3.514   3.517   3.520   3.536
133 B   134 B   136 A   135 B   137 A   138 A   136 B   137 B                  
  3.545   3.582   3.597   3.597   3.618   3.636   3.653   3.661
138 B   139 A   139 B   140 A   140 B   141 A   141 B   142 A                  
  3.668   3.692   3.710   3.737   3.740   3.746   3.773   3.789
142 B   143 A   143 B   144 A   145 A   144 B   146 A   145 B                  
  3.798   3.829   3.869   3.895   3.911   3.921   3.928   3.942
147 A   146 B   147 B   148 A   148 B   149 A   149 B   150 B                  
  3.946   3.988   4.001   4.006   4.019   4.033   4.033   4.041
150 A   151 A   151 B   152 A   152 B   153 A   153 B   154 A                  
  4.092   4.118   4.122   4.136   4.173   4.178   4.185   4.185
154 B   155 A   155 B   156 A   156 B   157 A   158 A   157 B                  
  4.206   4.219   4.230   4.251   4.262   4.270   4.288   4.343
159 A   158 B   159 B   160 A   160 B   161 B   161 A   162 A                  
  4.347   4.380   4.406   4.438   4.473   4.476   4.501   4.501
162 B   163 A   163 B   164 A   164 B   165 A   166 A   165 B                  
  4.524   4.571   4.609   4.613   4.641   4.678   4.693   4.695
167 A   166 B   168 A   167 B   169 A   168 B   170 A   171 A                  
  4.695   4.726   4.756   4.781   4.788   4.808   4.842   4.849
169 B   170 B   171 B   172 B   172 A   173 A   173 B   174 A                  
  4.918   4.941   5.008   5.020   5.040   5.047   5.074   5.081
175 A   174 B   175 B   176 A   176 B   177 A   178 A   179 A                  
  5.091   5.109   5.197   5.215   5.254   5.288   5.325   5.372
177 B   178 B   179 B   180 A   180 B   181 A   181 B   182 A                  
  5.396   5.403   5.418   5.461   5.590   5.592   5.646   5.676
182 B   183 A   183 B   184 A   185 A   184 B   185 B   186 A                  
  5.830   5.846   6.005   6.010   6.120   6.120   6.176   6.197
187 A   186 B   187 B   188 A   188 B   189 A   190 A   189 B                  
  6.286   6.550   6.567   6.683   6.787   9.524  10.779  11.821
190 B   191 A   191 B   192 A   192 B   193 A   193 B   194 A                  
 12.234  13.417  13.675  14.517  14.819
194 B   195 A   195 B   196 A   196 B                                          
 --------------------------------------------------------------
 
          Ground-State Mulliken Net Atomic Charges

     Atom                 Charge (a.u.)
  ----------------------------------------
      1 S                     0.118901
      2 C                    -0.237566
      3 C                    -0.193461
      4 C                    -0.196967
      5 C                    -0.024810
      6 H                     0.175200
      7 C                    -0.024810
      8 S                     0.118901
      9 C                    -0.196967
     10 C                    -0.237566
     11 C                    -0.193461
     12 H                     0.174194
     13 H                     0.184509
     14 H                     0.174194
     15 H                     0.184509
     16 H                     0.175200
  ----------------------------------------
  Sum of atomic charges =     0.000000

 -----------------------------------------------------------------
                    Cartesian Multipole Moments
 -----------------------------------------------------------------
    Charge (ESU x 10^10)
                 0.0000
    Dipole Moment (Debye)
         X       0.0000      Y      -0.0000      Z      -0.6376
       Tot       0.6376
    Quadrupole Moments (Debye-Ang)
        XX     -61.2084     XY       0.7282     YY     -76.2075
        XZ       0.0000     YZ      -0.0000     ZZ     -69.2733
    Octopole Moments (Debye-Ang^2)
       XXX       0.0000    XXY      -0.0000    XYY      -0.0000
       YYY      -0.0000    XXZ       6.0677    XYZ     -10.1141
       YYZ       0.5310    XZZ      -0.0000    YZZ      -0.0000
       ZZZ      -3.5730
    Hexadecapole Moments (Debye-Ang^3)
      XXXX   -1825.4469   XXXY       3.6081   XXYY    -403.0716
      XYYY      -2.9649   YYYY    -184.5260   XXXZ       0.0000
      XXYZ       0.0000   XYYZ       0.0000   YYYZ       0.0000
      XXZZ    -397.8980   XYZZ       9.6933   YYZZ    -108.7730
      XZZZ       0.0000   YZZZ       0.0000   ZZZZ    -478.6449
 -----------------------------------------------------------------
Archival summary:
1\1\nid01248\OPT\MP2\BasisUnspecified\286\MonMar616:23:042017MonMar616:23:042017\0\\#,OPT,MP2,BasisUnspecified,\\0,1\S\C,1,1.70552\H,2,1.07181,1,120.37\C,2,1.37333,1,111.444,3,-179.974,0\H,4,1.07436,2,123.027,1,-179.799,0\C,4,1.40415,2,112.576,1,-0.647598,0\H,6,1.07511,4,124.806,2,-178.136,0\C,6,1.37861,4,113.085,2,0.768953,0\C,8,1.44144,6,127.966,4,-179.471,0\C,9,1.37861,8,127.966,6,-50,0\H,10,1.07511,9,122.1,8,-0.532255,0\C,10,1.40415,9,113.085,8,-179.471,0\H,12,1.07436,10,124.391,9,179.907,0\C,12,1.37333,10,112.576,9,0.768953,0\H,14,1.07181,12,128.187,10,179.381,0\S,14,1.70552,12,111.444,10,-0.647598,0\\HF=-1101.59808\MP2=-1103.41299\\@

 Total job time:  8563.92s(wall), 45743.27s(cpu) 
 Mon Mar  6 16:23:04 2017

        *************************************************************
        *                                                           *
        *  Thank you very much for using Q-Chem.  Have a nice day.  *
        *                                                           *
        *************************************************************


0 sent ACK to 0 
now end server 0 ... 
