srun -N 1 --ntasks-per-node 1 --cpus-per-task 64 --cpu_bind=cores --nodelist nid01251 /global/project/projectdirs/jcesr/qchem/qc44/cnl_qc441/dist/exe/qcprog.cori.haswell.exe .pt_mp2_60.0.in.29581.qcin.1 /dev/shm/eg_qchem/qchem29581/
Process 0 of 1 is on nid01251 - thread support 0
initial socket setup ...start
initial socket setup ...done 
now start server 0 ... 
nid01251 10.128.4
Q-Chem Developer Version! Running on 10.128.4.*
                  Welcome to Q-Chem
     A Quantum Leap Into The Future Of Chemistry


 Q-Chem 4.4, Q-Chem, Inc., Pleasanton, CA (2016)

 Y. Shao,  Z. Gan,  E. Epifanovsky,  A. T. B. Gilbert,  M. Wormit,  
 J. Kussmann,  A. W. Lange,  A. Behn,  J. Deng,  X. Feng,  D. Ghosh,  
 M. Goldey,  P. R. Horn,  L. D. Jacobson,  I. Kaliman,  F.Rob,  
 R. Z. Khaliullin,  T. Kus,  A. Landau,  J. Liu,  E. I. Proynov,  Y. M. Rhee,  
 R. M. Richard,  M. A. Rohrdanz,  R. P. Steele,  E. J. Sundstrom,  
 H. L. Woodcock III,  P. M. Zimmerman,  D. Zuev,  B. Albrecht,  E. Alguire,  
 B. Austin,  S. A. Baeppler,  G. J. O. Beran,  Y. A. Bernard,  E. Berquist,  
 K. Brandhorst,  K. B. Bravaya,  S. T. Brown,  D. Casanova,  C.-M. Chang,  
 Y. Chen,  S. H. Chien,  K. D. Closser,  M. P. Coons,  D. L. Crittenden,  
 S. Dasgupta,  M. Diedenhofen,  R. A. DiStasio Jr.,  H. Do,  A. D. Dutoi,  
 R. G. Edgar,  P.-T. Fang,  S. Fatehi,  Q. Feng,  L. Fusti-Molnar,  
 A. Ghysels,  A. Golubeva-Zadorozhnaya,  J. Gomes,  A. Gunina,  
 M. W. D. Hanson-Heine,  P. H. P. Harbach,  A. W. Hauser,  E. G. Hohenstein,  
 Z. C. Holden,  K. Hui,  T.-C. Jagau,  H. Ji,  B. Kaduk,  K. Khistyaev,  
 Jaehoon Kim,  Jihan Kim,  R. A. King,  P. Klunzinger,  D. Kosenkov,  
 T. Kowalczyk,  C. M. Krauter,  A. Kunitsa,  K. U. Lao,  A. Laurent,  
 K. V. Lawler,  D. Lefrancois,  S. Lehtola,  S. V. Levchenko,  C. Y. Lin,  
 Y.-S. Lin,  F. Liu,  E. Livshits,  R. C. Lochan,  A. Luenser,  P. Manohar,  
 S. F. Manzer,  S.-P. Mao,  Y. Mao,  N. Mardirossian,  A. V. Marenich,  
 L. A. Martinez-Martinez,  S. A. Maurer,  N. J. Mayhall,  J.-M. Mewes,  
 A. F. Morrison,  K. Nanda,  C. M. Oana,  R. Olivares-Amaya,  D. P. O'Neill,  
 J. A. Parkhill,  T. M. Perrine,  R. Peverati,  P. A. Pieniazek,  F. Plasser,  
 A. Prociuk,  D. R. Rehn,  E. Rosta,  N. J. Russ,  N. Sergueev,  
 S. M. Sharada,  S. Sharma,  D. W. Small,  A. Sodt,  T. Stauch,  T. Stein,  
 D. Stuck,  Y.-C. Su,  A. J. W. Thom,  T. Tsuchimochi,  L. Vogt,  O. Vydrov,  
 T. Wang,  M. A. Watson,  J. Wenzel,  A. White,  C. F. Williams,  
 V. Vanovschi,  S. Yeganeh,  S. R. Yost,  Z.-Q. You,  I. Y. Zhang,  X. Zhang,  
 Y. Zhao,  B. R. Brooks,  G. K. L. Chan,  D. M. Chipman,  C. J. Cramer,  
 W. A. Goddard III,  M. S. Gordon,  W. J. Hehre,  A. Klamt,  
 H. F. Schaefer III,  M. W. Schmidt,  C. D. Sherrill,  D. G. Truhlar,  
 A. Warshel,  X. Xu,  A. Aspuru-Guzik,  R. Baer,  A. T. Bell,  N. A. Besley,  
 J.-D. Chai,  A. Dreuw,  B. D. Dunietz,  T. R. Furlani,  S. R. Gwaltney,  
 C.-P. Hsu,  Y. Jung,  J. Kong,  D. S. Lambrecht,  W. Liang,  C. Ochsenfeld,  
 V. A. Rassolov,  L. V. Slipchenko,  J. E. Subotnik,  T. Van Voorhis,  
 J. M. Herbert,  A. I. Krylov,  P. M. W. Gill,  M. Head-Gordon

 Contributors to earlier versions of Q-Chem not listed above: 
 R. D. Adamson,  J. Baker,  E. F. C. Byrd,  A. K. Chakraborty,  C.-L. Cheng,  
 H. Dachsel,  R. J. Doerksen,  G. Hawkins,  A. Heyden,  S. Hirata,  
 G. Kedziora,  F. J. Keil,  C. Kelley,  P. P. Korambath,  W. Kurlancheek,  
 A. M. Lee,  M. S. Lee,  D. Liotard,  I. Lotan,  P. E. Maslen,  N. Nair,  
 D. Neuhauser,  R. Olson,  B. Peters,  J. Ritchie,  N. E. Schultz,  
 N. Shenvi,  A. C. Simmonett,  K. S. Thanthiriwatte,  Q. Wu,  W. Zhang

 Please cite Q-Chem as follows:
 Y. Shao et al., Mol. Phys. 113, 184-215 (2015)
 DOI: 10.1080/00268976.2014.952696

 Q-Chem 4.4.1 for Intel X86 EM64T Linux

 Parts of Q-Chem use Armadillo 5.200.1 (Boston Tea Smuggler).
 http://arma.sourceforge.net/

 Q-Chem begins on Mon Mar  6 14:00:20 2017  

Host: nid01196
0

     Scratch files written to /dev/shm/eg_qchem/qchem29581//
 Parallel job on  1  processors

Checking the input file for inconsistencies... 	...done.

--------------------------------------------------------------
User input:
--------------------------------------------------------------
$molecule
 0  1
 S           1.80900300       -1.15938900        0.25896800
 C           3.16466000       -0.14246800        0.05606700
 C           2.78757500        1.14089100       -0.25226100
 C           1.39402000        1.28822000       -0.33563400
 C           0.70898100        0.11689900       -0.08798100
 H           0.89277600        2.20524100       -0.58940400
 C          -0.70898100       -0.11689900       -0.08798100
 S          -1.50513216       -0.68355790        1.32777819
 C          -1.61396094        0.04570027       -1.11617170
 C          -3.02846737       -0.68352700        0.55800361
 C          -2.92994030       -0.27745939       -0.74954030
 H          -3.77650224       -0.20944763       -1.40746870
 H           4.15569300       -0.53353100        0.17259300
 H           3.49202900        1.93475000       -0.41867900
 H          -3.90642240       -0.97827079        1.09742556
 H          -1.32368335        0.40816995       -2.08618558
$end


$rem
         jobtype = opt
        exchange = hf
           basis = cc-pvtz
  max_scf_cycles = 100
      mem_static = 6200
       mem_total = 62000
          method = mp2
$end


$opt
CONSTRAINT
tors 4 5 7 9 60.0
ENDCONSTRAINT
$end

--------------------------------------------------------------
 Atom  16: ( -1.1667064218, -1.1110463548, -2.1196474482)
         ->( -1.1667064237, -1.1110463524, -2.1196474534)
 ----------------------------------------------------------------
             Standard Nuclear Orientation (Angstroms)
    I     Atom           X                Y                Z
 ----------------------------------------------------------------
    1      S       1.6426114348    -0.6244143333     0.9854503923
    2      C       3.1156250923    -0.1332600057     0.2768593754
    3      C       2.9059559107     0.5409867578    -0.9002980958
    4      C       1.5448106991     0.6432890692    -1.2281248481
    5      C       0.7168862976     0.0489231075    -0.2986768324
    6      H       1.1667064237     1.1110463524    -2.1196474534
    7      C      -0.7168862983    -0.0489231060    -0.2986768318
    8      S      -1.6426114310     0.6244143332     0.9854503948
    9      C      -1.5448107031    -0.6432890694    -1.2281248462
   10      C      -3.1156250958     0.1332600060     0.2768593723
   11      C      -2.9059559130    -0.5409867585    -0.9002980931
   12      H      -3.7052556865    -0.9342317900    -1.5008317846
   13      H       4.0475084047    -0.3610804536     0.7547153383
   14      H       3.7052556843     0.9342317918    -1.5008317882
   15      H      -4.0475084017     0.3610804513     0.7547153396
   16      H      -1.1667064237    -1.1110463524    -2.1196474534
 ----------------------------------------------------------------
 Molecular Point Group                 C2    NOp =  2
 Largest Abelian Subgroup              C2    NOp =  2
 Nuclear Repulsion Energy =   637.8425752778 hartrees
 There are       43 alpha and       43 beta electrons
 Requested basis set is cc-pVTZ
 There are 140 shells and 392 basis functions

 Total QAlloc Memory Limit  62000 MB
 Mega-Array Size      6061 MB
 MEM_STATIC part      6200 MB
 A cutoff of  1.0D-11 yielded   8031 shell pairs
 There are     62479 function pairs (     81489 Cartesian)
 
 -------------------------------------------------------
 OpenMP Integral Computing Module                       
 Release: version 1.0, May 2013, Q-Chem Inc. Pittsburgh 
 -------------------------------------------------------
 Integral Job Info:
 Integral job number is                      11
 Integral operator is                         1
 short-range coefficients                     0
 long-range coefficients              100000000
 Omega coefficients                           0
 if combine SR and LR in K                    0
 Integral screening is                        0
 Integral computing path is                   2
 max size of driver memory is            800000
 size of driver memory is                776718
 size of scratch memory is             26248924
 max col of scratch BK array              10000
 max len of scratch array in speh3          662
 max len of scratch index in speh4           32
 max int batch size is                      520
 min int batch size is                       52
 fixed nKL is                                52
 max L of basis functions is                  3
 order of int derivative is                   0
 number of shells is                        140
 number of basis is                         448
 number of cartesian basis is               448
 number of contracted shell pairs          8031
 number of primitive shell pairs          28537
 maxK2 (contraction) of shell pair          121
 max number of K2 of shell pair               1
 max number of CS2 of shell pair           1062
 max number of PS2 of shell pair           3080
 mem total for path MDJ                  225820
 -------------------------------------------------------
 Smallest overlap matrix eigenvalue = 9.01E-05

 Scale SEOQF with 1.000000e-01/1.000000e+00/1.000000e-01

 Standard Electronic Orientation quadrupole field applied
 Nucleus-field energy     =     0.0000000246 hartrees
 Guess from superposition of atomic densities
 Warning:  Energy on first SCF cycle will be non-variational
 A restricted Hartree-Fock SCF calculation will be
 performed using Pulay DIIS extrapolation
 SCF converges when DIIS error is below 1.0E-08
 using 16 threads for integral computing 
 ---------------------------------------
  Cycle       Energy         DIIS Error
 ---------------------------------------
    1   -1106.0751187188      2.98E-02
    2   -1089.7475515212      1.85E-02
    3   -1100.7562056408      5.97E-03
    4   -1101.4118675282      3.01E-03
    5   -1101.5804569773      8.35E-04
    6   -1101.5949347478      2.38E-04
    7   -1101.5965268771      5.95E-05
    8   -1101.5967077559      3.00E-05
    9   -1101.5967617967      1.42E-05
   10   -1101.5967790617      6.42E-06
   11   -1101.5967817957      2.11E-06
   12   -1101.5967821765      7.39E-07
   13   -1101.5967822165      2.23E-07
   14   -1101.5967822204      8.39E-08
   15   -1101.5967822211      3.48E-08
   16   -1101.5967822217      1.12E-08
   17   -1101.5967822224      4.14E-09 Convergence criterion met
 ---------------------------------------
 SCF time:  CPU 671.02 s  wall 42.00 s
 SCF   energy in the final basis set = -1101.5967822224
 Total energy in the final basis set = -1101.5967822224
 
 Components of the MP2 correlation energy:
        aaaa  correlation energy =        -0.2322536161 au
        abab  correlation energy =        -1.3505789748 au
        bbbb  correlation energy =        -0.2322536161 au
        non-Brillouin singles    =        -0.0000000000 au

 Total  MP2   correlation energy =        -1.8150862070 au
        MP2         total energy =     -1103.4118684294 au

  Entering Z-vector solver.
   1         0           1      0.000267    0.000267
   2         0           1      0.000119    0.000119
   3         0           1      0.000049    0.000049
   4         0           1      0.000023    0.000023
   5         0           1      0.000007    0.000007
   6         0           1      0.000003    0.000003
   7         1           0      0.000000    0.000000    Roots Converged
 
 --------------------------------------------------------------
             Orbital Energies (a.u.) and Symmetries
 --------------------------------------------------------------
 Warning : Irrep of orbital(   1) could not be determined
 Warning : Irrep of orbital(   2) could not be determined
 
 Alpha MOs, Restricted
 -- Occupied --                  
-91.984 -91.984 -11.273 -11.272 -11.261 -11.261 -11.238 -11.238
  0 xxx   0 xxx   1 A     1 B     2 B     2 A     3 B     3 A                  
-11.237 -11.237  -8.985  -8.985  -6.666  -6.666  -6.666  -6.666
  4 A     4 B     5 B     5 A     6 B     6 A     7 A     7 B                  
 -6.665  -6.665  -1.195  -1.166  -1.035  -0.995  -0.987  -0.948
  8 B     8 A     9 A     9 B    10 A    11 A    10 B    11 B                  
 -0.808  -0.771  -0.755  -0.718  -0.705  -0.645  -0.571  -0.569
 12 A    13 A    12 B    13 B    14 A    14 B    15 A    16 A                  
 -0.565  -0.555  -0.538  -0.512  -0.511  -0.480  -0.472  -0.353
 15 B    16 B    17 A    18 A    17 B    19 A    18 B    20 A                  
 -0.349  -0.346  -0.298
 19 B    20 B    21 A                                                          
 -- Virtual --                   
  0.092   0.125   0.149   0.152   0.161   0.174   0.179   0.196
 21 B    22 A    23 A    22 B    24 A    23 B    25 A    24 B                  
  0.196   0.202   0.203   0.229   0.239   0.255   0.315   0.339
 26 A    27 A    25 B    26 B    28 A    27 B    29 A    28 B                  
  0.345   0.358   0.366   0.381   0.386   0.398   0.418   0.429
 29 B    30 A    31 A    30 B    32 A    31 B    32 B    33 A                  
  0.444   0.453   0.456   0.466   0.475   0.480   0.492   0.505
 34 A    35 A    33 B    34 B    36 A    35 B    36 B    37 A                  
  0.518   0.525   0.533   0.544   0.548   0.553   0.567   0.570
 38 A    37 B    39 A    38 B    39 B    40 A    41 A    40 B                  
  0.586   0.588   0.597   0.600   0.611   0.612   0.617   0.623
 41 B    42 A    42 B    43 A    44 A    43 B    45 A    44 B                  
  0.626   0.636   0.663   0.665   0.679   0.685   0.715   0.733
 46 A    45 B    47 A    46 B    47 B    48 A    49 A    48 B                  
  0.741   0.750   0.784   0.789   0.796   0.810   0.846   0.851
 50 A    49 B    50 B    51 A    51 B    52 A    52 B    53 A                  
  0.867   0.874   0.882   0.896   0.897   0.919   0.939   0.949
 54 A    53 B    54 B    55 A    55 B    56 A    56 B    57 B                  
  0.955   0.995   0.997   1.014   1.025   1.034   1.056   1.076
 57 A    58 B    58 A    59 A    60 A    59 B    60 B    61 A                  
  1.092   1.100   1.115   1.122   1.156   1.164   1.179   1.183
 61 B    62 A    62 B    63 A    63 B    64 B    64 A    65 A                  
  1.190   1.198   1.223   1.223   1.228   1.243   1.280   1.288
 66 A    65 B    66 B    67 A    67 B    68 A    68 B    69 A                  
  1.296   1.313   1.318   1.373   1.387   1.403   1.413   1.427
 69 B    70 A    70 B    71 A    71 B    72 B    72 A    73 B                  
  1.432   1.461   1.472   1.489   1.489   1.514   1.518   1.543
 73 A    74 B    74 A    75 B    75 A    76 B    76 A    77 B                  
  1.545   1.557   1.573   1.584   1.587   1.611   1.638   1.654
 77 A    78 A    78 B    79 A    79 B    80 A    80 B    81 A                  
  1.668   1.679   1.702   1.731   1.737   1.753   1.783   1.811
 82 A    81 B    82 B    83 A    83 B    84 B    84 A    85 B                  
  1.845   1.879   1.879   1.893   1.920   1.925   1.931   1.952
 85 A    86 B    86 A    87 B    87 A    88 B    88 A    89 A                  
  1.963   1.992   2.027   2.058   2.080   2.112   2.117   2.165
 89 B    90 A    90 B    91 B    91 A    92 B    92 A    93 B                  
  2.185   2.185   2.188   2.202   2.216   2.230   2.255   2.270
 93 A    94 B    94 A    95 A    95 B    96 A    96 B    97 A                  
  2.285   2.312   2.313   2.395   2.429   2.433   2.468   2.475
 97 B    98 A    98 B    99 A    99 B   100 A   101 A   100 B                  
  2.493   2.498   2.509   2.522   2.557   2.557   2.571   2.612
101 B   102 A   102 B   103 A   103 B   104 A   104 B   105 A                  
  2.615   2.631   2.663   2.687   2.719   2.750   2.756   2.758
105 B   106 B   106 A   107 A   107 B   108 A   108 B   109 A                  
  2.760   2.776   2.783   2.812   2.822   2.868   2.883   2.897
109 B   110 B   110 A   111 B   111 A   112 A   113 A   112 B                  
  2.915   2.922   2.947   2.972   2.996   3.013   3.017   3.025
113 B   114 A   114 B   115 A   115 B   116 A   117 A   118 A                  
  3.028   3.033   3.077   3.141   3.148   3.159   3.184   3.201
116 B   117 B   118 B   119 B   119 A   120 A   120 B   121 A                  
  3.204   3.224   3.239   3.242   3.255   3.270   3.283   3.288
121 B   122 B   123 B   122 A   123 A   124 B   124 A   125 A                  
  3.297   3.325   3.331   3.342   3.360   3.363   3.383   3.385
125 B   126 A   126 B   127 A   127 B   128 A   128 B   129 B                  
  3.402   3.411   3.428   3.432   3.440   3.460   3.477   3.478
129 A   130 A   130 B   131 A   132 A   133 A   134 A   131 B                  
  3.482   3.490   3.499   3.508   3.515   3.520   3.522   3.536
132 B   133 B   135 A   134 B   136 A   137 A   135 B   136 B                  
  3.554   3.583   3.597   3.598   3.612   3.628   3.657   3.661
137 B   138 A   139 A   138 B   139 B   140 A   140 B   141 A                  
  3.676   3.699   3.715   3.729   3.748   3.757   3.767   3.785
141 B   142 A   142 B   143 A   144 A   143 B   145 A   144 B                  
  3.790   3.829   3.875   3.892   3.908   3.918   3.934   3.940
146 A   145 B   146 B   147 A   147 B   148 A   148 B   149 A                  
  3.956   3.982   3.994   4.009   4.023   4.033   4.035   4.039
149 B   150 A   150 B   151 A   151 B   152 B   152 A   153 A                  
  4.087   4.118   4.129   4.132   4.170   4.179   4.183   4.183
153 B   154 B   154 A   155 A   155 B   156 A   157 A   156 B                  
  4.209   4.218   4.243   4.255   4.259   4.272   4.290   4.337
158 A   157 B   158 B   159 B   159 A   160 B   160 A   161 A                  
  4.342   4.378   4.405   4.433   4.471   4.484   4.499   4.511
161 B   162 A   162 B   163 A   163 B   164 A   164 B   165 A                  
  4.534   4.557   4.600   4.606   4.643   4.686   4.693   4.696
166 A   165 B   166 B   167 A   168 A   167 B   169 A   170 A                  
  4.697   4.728   4.758   4.769   4.792   4.807   4.846   4.855
168 B   169 B   170 B   171 B   171 A   172 A   172 B   173 A                  
  4.925   4.928   5.008   5.018   5.042   5.066   5.074   5.085
173 B   174 A   174 B   175 A   175 B   176 A   177 A   178 A                  
  5.098   5.105   5.198   5.220   5.249   5.296   5.321   5.382
176 B   177 B   178 B   179 A   179 B   180 A   180 B   181 A                  
  5.397   5.408   5.417   5.465   5.586   5.594   5.656   5.673
181 B   182 A   182 B   183 A   183 B   184 A   184 B   185 A                  
  5.832   5.843   5.987   6.012   6.117   6.129   6.183   6.188
185 B   186 A   186 B   187 A   187 B   188 A   189 A   188 B                  
  6.237   6.551   6.559   6.690   6.783   9.540  10.757  11.848
189 B   190 A   190 B   191 A   191 B   192 A   192 B   193 A                  
 12.264  13.465  13.633  14.547  14.754
193 B   194 A   194 B   195 A   195 B                                          
 
 Beta MOs, Restricted
 -- Occupied --                  
-91.984 -91.984 -11.273 -11.272 -11.261 -11.261 -11.238 -11.238
  0 xxx   0 xxx   1 A     1 B     2 B     2 A     3 B     3 A                  
-11.237 -11.237  -8.985  -8.985  -6.666  -6.666  -6.666  -6.666
  4 A     4 B     5 B     5 A     6 B     6 A     7 A     7 B                  
 -6.665  -6.665  -1.195  -1.166  -1.035  -0.995  -0.987  -0.948
  8 B     8 A     9 A     9 B    10 A    11 A    10 B    11 B                  
 -0.808  -0.771  -0.755  -0.718  -0.705  -0.645  -0.571  -0.569
 12 A    13 A    12 B    13 B    14 A    14 B    15 A    16 A                  
 -0.565  -0.555  -0.538  -0.512  -0.511  -0.480  -0.472  -0.353
 15 B    16 B    17 A    18 A    17 B    19 A    18 B    20 A                  
 -0.349  -0.346  -0.298
 19 B    20 B    21 A                                                          
 -- Virtual --                   
  0.092   0.125   0.149   0.152   0.161   0.174   0.179   0.196
 21 B    22 A    23 A    22 B    24 A    23 B    25 A    24 B                  
  0.196   0.202   0.203   0.229   0.239   0.255   0.315   0.339
 26 A    27 A    25 B    26 B    28 A    27 B    29 A    28 B                  
  0.345   0.358   0.366   0.381   0.386   0.398   0.418   0.429
 29 B    30 A    31 A    30 B    32 A    31 B    32 B    33 A                  
  0.444   0.453   0.456   0.466   0.475   0.480   0.492   0.505
 34 A    35 A    33 B    34 B    36 A    35 B    36 B    37 A                  
  0.518   0.525   0.533   0.544   0.548   0.553   0.567   0.570
 38 A    37 B    39 A    38 B    39 B    40 A    41 A    40 B                  
  0.586   0.588   0.597   0.600   0.611   0.612   0.617   0.623
 41 B    42 A    42 B    43 A    44 A    43 B    45 A    44 B                  
  0.626   0.636   0.663   0.665   0.679   0.685   0.715   0.733
 46 A    45 B    47 A    46 B    47 B    48 A    49 A    48 B                  
  0.741   0.750   0.784   0.789   0.796   0.810   0.846   0.851
 50 A    49 B    50 B    51 A    51 B    52 A    52 B    53 A                  
  0.867   0.874   0.882   0.896   0.897   0.919   0.939   0.949
 54 A    53 B    54 B    55 A    55 B    56 A    56 B    57 B                  
  0.955   0.995   0.997   1.014   1.025   1.034   1.056   1.076
 57 A    58 B    58 A    59 A    60 A    59 B    60 B    61 A                  
  1.092   1.100   1.115   1.122   1.156   1.164   1.179   1.183
 61 B    62 A    62 B    63 A    63 B    64 B    64 A    65 A                  
  1.190   1.198   1.223   1.223   1.228   1.243   1.280   1.288
 66 A    65 B    66 B    67 A    67 B    68 A    68 B    69 A                  
  1.296   1.313   1.318   1.373   1.387   1.403   1.413   1.427
 69 B    70 A    70 B    71 A    71 B    72 B    72 A    73 B                  
  1.432   1.461   1.472   1.489   1.489   1.514   1.518   1.543
 73 A    74 B    74 A    75 B    75 A    76 B    76 A    77 B                  
  1.545   1.557   1.573   1.584   1.587   1.611   1.638   1.654
 77 A    78 A    78 B    79 A    79 B    80 A    80 B    81 A                  
  1.668   1.679   1.702   1.731   1.737   1.753   1.783   1.811
 82 A    81 B    82 B    83 A    83 B    84 B    84 A    85 B                  
  1.845   1.879   1.879   1.893   1.920   1.925   1.931   1.952
 85 A    86 B    86 A    87 B    87 A    88 B    88 A    89 A                  
  1.963   1.992   2.027   2.058   2.080   2.112   2.117   2.165
 89 B    90 A    90 B    91 B    91 A    92 B    92 A    93 B                  
  2.185   2.185   2.188   2.202   2.216   2.230   2.255   2.270
 93 A    94 B    94 A    95 A    95 B    96 A    96 B    97 A                  
  2.285   2.312   2.313   2.395   2.429   2.433   2.468   2.475
 97 B    98 A    98 B    99 A    99 B   100 A   101 A   100 B                  
  2.493   2.498   2.509   2.522   2.557   2.557   2.571   2.612
101 B   102 A   102 B   103 A   103 B   104 A   104 B   105 A                  
  2.615   2.631   2.663   2.687   2.719   2.750   2.756   2.758
105 B   106 B   106 A   107 A   107 B   108 A   108 B   109 A                  
  2.760   2.776   2.783   2.812   2.822   2.868   2.883   2.897
109 B   110 B   110 A   111 B   111 A   112 A   113 A   112 B                  
  2.915   2.922   2.947   2.972   2.996   3.013   3.017   3.025
113 B   114 A   114 B   115 A   115 B   116 A   117 A   118 A                  
  3.028   3.033   3.077   3.141   3.148   3.159   3.184   3.201
116 B   117 B   118 B   119 B   119 A   120 A   120 B   121 A                  
  3.204   3.224   3.239   3.242   3.255   3.270   3.283   3.288
121 B   122 B   123 B   122 A   123 A   124 B   124 A   125 A                  
  3.297   3.325   3.331   3.342   3.360   3.363   3.383   3.385
125 B   126 A   126 B   127 A   127 B   128 A   128 B   129 B                  
  3.402   3.411   3.428   3.432   3.440   3.460   3.477   3.478
129 A   130 A   130 B   131 A   132 A   133 A   134 A   131 B                  
  3.482   3.490   3.499   3.508   3.515   3.520   3.522   3.536
132 B   133 B   135 A   134 B   136 A   137 A   135 B   136 B                  
  3.554   3.583   3.597   3.598   3.612   3.628   3.657   3.661
137 B   138 A   139 A   138 B   139 B   140 A   140 B   141 A                  
  3.676   3.699   3.715   3.729   3.748   3.757   3.767   3.785
141 B   142 A   142 B   143 A   144 A   143 B   145 A   144 B                  
  3.790   3.829   3.875   3.892   3.908   3.918   3.934   3.940
146 A   145 B   146 B   147 A   147 B   148 A   148 B   149 A                  
  3.956   3.982   3.994   4.009   4.023   4.033   4.035   4.039
149 B   150 A   150 B   151 A   151 B   152 B   152 A   153 A                  
  4.087   4.118   4.129   4.132   4.170   4.179   4.183   4.183
153 B   154 B   154 A   155 A   155 B   156 A   157 A   156 B                  
  4.209   4.218   4.243   4.255   4.259   4.272   4.290   4.337
158 A   157 B   158 B   159 B   159 A   160 B   160 A   161 A                  
  4.342   4.378   4.405   4.433   4.471   4.484   4.499   4.511
161 B   162 A   162 B   163 A   163 B   164 A   164 B   165 A                  
  4.534   4.557   4.600   4.606   4.643   4.686   4.693   4.696
166 A   165 B   166 B   167 A   168 A   167 B   169 A   170 A                  
  4.697   4.728   4.758   4.769   4.792   4.807   4.846   4.855
168 B   169 B   170 B   171 B   171 A   172 A   172 B   173 A                  
  4.925   4.928   5.008   5.018   5.042   5.066   5.074   5.085
173 B   174 A   174 B   175 A   175 B   176 A   177 A   178 A                  
  5.098   5.105   5.198   5.220   5.249   5.296   5.321   5.382
176 B   177 B   178 B   179 A   179 B   180 A   180 B   181 A                  
  5.397   5.408   5.417   5.465   5.586   5.594   5.656   5.673
181 B   182 A   182 B   183 A   183 B   184 A   184 B   185 A                  
  5.832   5.843   5.987   6.012   6.117   6.129   6.183   6.188
185 B   186 A   186 B   187 A   187 B   188 A   189 A   188 B                  
  6.237   6.551   6.559   6.690   6.783   9.540  10.757  11.848
189 B   190 A   190 B   191 A   191 B   192 A   192 B   193 A                  
 12.264  13.465  13.633  14.547  14.754
193 B   194 A   194 B   195 A   195 B                                          
 --------------------------------------------------------------
 
          Ground-State Mulliken Net Atomic Charges

     Atom                 Charge (a.u.)
  ----------------------------------------
      1 S                     0.124177
      2 C                    -0.237748
      3 C                    -0.192479
      4 C                    -0.194607
      5 C                    -0.032325
      6 H                     0.174955
      7 C                    -0.032329
      8 S                     0.124177
      9 C                    -0.194605
     10 C                    -0.237746
     11 C                    -0.192483
     12 H                     0.174139
     13 H                     0.183889
     14 H                     0.174139
     15 H                     0.183890
     16 H                     0.174955
  ----------------------------------------
  Sum of atomic charges =    -0.000000

 -----------------------------------------------------------------
                    Cartesian Multipole Moments
 -----------------------------------------------------------------
    Charge (ESU x 10^10)
                 0.0000
    Dipole Moment (Debye)
         X       0.0000      Y       0.0000      Z      -0.6528
       Tot       0.6528
    Quadrupole Moments (Debye-Ang)
        XX     -61.2644     XY       0.6438     YY     -75.4648
        XZ      -0.0000     YZ       0.0000     ZZ     -69.9359
    Octopole Moments (Debye-Ang^2)
       XXX       0.0000    XXY       0.0000    XYY      -0.0000
       YYY       0.0000    XXZ       5.9530    XYZ     -11.6325
       YYZ      -0.4862    XZZ       0.0000    YZZ       0.0000
       ZZZ      -2.3031
    Hexadecapole Moments (Debye-Ang^3)
      XXXX   -1823.4247   XXXY      -3.3345   XXYY    -401.3524
      XYYY      -6.8312   YYYY    -224.4408   XXXZ      -0.0000
      XXYZ       0.0000   XYYZ      -0.0000   YYYZ       0.0000
      XXZZ    -398.4057   XYZZ       8.5329   YYZZ    -105.5702
      XZZZ      -0.0000   YZZZ       0.0000   ZZZZ    -445.2056
 -----------------------------------------------------------------
 DrvMan is completing analytic gradient of the MP2 energy
 MP2 relaxed dipole moment
            1
    1   0.0000000
    2   0.0000000
    3  -0.2568292
	Magnitude:	 0.257 au	 0.653 Debye
 MP2 energy read as -1103.411868
 Full Analytical Gradient of MP2 Energy (in au.)
             1             2             3             4             5
    1   -0.00139597    0.00076827   -0.00028355    0.00097327   -0.00560837
    2   -0.00003950   -0.00051131    0.00170828    0.00270624   -0.00190449
    3    0.00109946   -0.00197115    0.00107631    0.00156428   -0.00040213
             6             7             8             9            10
    1    0.00054888    0.00560837    0.00139597   -0.00097327   -0.00076827
    2   -0.00119427    0.00190449    0.00003950   -0.00270624    0.00051131
    3   -0.00109378   -0.00040214    0.00109947    0.00156429   -0.00197116
            11            12            13            14            15
    1    0.00028355    0.00002584   -0.00016862   -0.00002584    0.00016863
    2   -0.00170828    0.00007738   -0.00069691   -0.00007738    0.00069691
    3    0.00107631   -0.00003394   -0.00023904   -0.00003395   -0.00023904
            16
    1   -0.00054887
    2    0.00119427
    3   -0.00109378
 Gradient time:  CPU 1.49 s  wall 0.10 s
 Geometry Optimization Parameters
   NAtoms,    NIC,     NZ,  NCons,   NDum,   NFix, NCnnct, MaxDiis
       16     111       0       1       0       0       0       0


** CONSTRAINED OPTIMIZATION IN DELOCALIZED INTERNAL COORDINATES **
   Searching for a Minimum

   Optimization Cycle:   1

                       Coordinates (Angstroms)
     ATOM                X               Y               Z
      1  S         1.6426114329   -0.6244143332    0.9854503936
      2  C         3.1156250940   -0.1332600059    0.2768593738
      3  C         2.9059559119    0.5409867582   -0.9002980944
      4  C         1.5448107011    0.6432890693   -1.2281248471
      5  C         0.7168862980    0.0489231067   -0.2986768321
      6  H         1.1667064237    1.1110463524   -2.1196474534
      7  C        -0.7168862980   -0.0489231067   -0.2986768321
      8  S        -1.6426114329    0.6244143332    0.9854503936
      9  C        -1.5448107011   -0.6432890693   -1.2281248471
     10  C        -3.1156250940    0.1332600059    0.2768593738
     11  C        -2.9059559119   -0.5409867582   -0.9002980944
     12  H        -3.7052556854   -0.9342317909   -1.5008317864
     13  H         4.0475084032   -0.3610804525    0.7547153390
     14  H         3.7052556854    0.9342317909   -1.5008317864
     15  H        -4.0475084032    0.3610804525    0.7547153390
     16  H        -1.1667064237   -1.1110463524   -2.1196474534
   Point Group: c2    Number of degrees of freedom:    22


   Energy is  -1103.411868429

              Constraints and their Current Values
                                        Value     Constraint
   Dihedral:        4   5   7   9       60.000       60.000

 Attempting to Generate Delocalized Internal Coordinates

 21 Hessian modes will be used to form the next step
  Hessian Eigenvalues:
     0.045000    0.045000    0.045000    0.045002    0.045003    0.045012
     0.159945    0.159993    0.160000    0.221308    0.238060    0.249999
     0.326324    0.340049    0.365509    0.366895    0.370094    0.399848
     0.435412    0.463135    0.495504

 Minimum Search - Taking Simple RFO Step
 Searching for Lamda that Minimizes Along All modes
 Value Taken    Lamda =  -0.00043702
 Step Taken.  Stepsize is  0.083502

                             Maximum     Tolerance    Cnvgd?
         Gradient           0.003323      0.000300      NO
         Displacement       0.062411      0.001200      NO
         Energy change     *********      0.000001      NO


 New Cartesian Coordinates Obtained by Inverse Iteration

 Displacement from previous Coordinates is:  0.102666
 ----------------------------------------------------------------
             Standard Nuclear Orientation (Angstroms)
    I     Atom           X                Y                Z
 ----------------------------------------------------------------
    1      S       1.6498009814    -0.6276227922     0.9854020608
    2      C       3.1200706493    -0.1274681699     0.2811358143
    3      C       2.9083894159     0.5274272922    -0.9072130511
    4      C       1.5459163915     0.6309898122    -1.2318527183
    5      C       0.7207272689     0.0424782248    -0.2983789278
    6      H       1.1618081037     1.1065413242    -2.1163185914
    7      C      -0.7207272689    -0.0424782248    -0.2983789278
    8      S      -1.6498009814     0.6276227922     0.9854020608
    9      C      -1.5459163915    -0.6309898122    -1.2318527183
   10      C      -3.1200706493     0.1274681699     0.2811358143
   11      C      -2.9083894159    -0.5274272922    -0.9072130511
   12      H      -3.7062798624    -0.9224932171    -1.5084991159
   13      H       4.0527974616    -0.3389094700     0.7651706223
   14      H       3.7062798624     0.9224932171    -1.5084991159
   15      H      -4.0527974616     0.3389094700     0.7651706223
   16      H      -1.1618081037    -1.1065413242    -2.1163185914
 ----------------------------------------------------------------
 Molecular Point Group                 C2    NOp =  2
 Largest Abelian Subgroup              C2    NOp =  2
 Nuclear Repulsion Energy =   637.3518672627 hartrees
 There are       43 alpha and       43 beta electrons
 Applying Cartesian multipole field
    Component          Value
    ---------          -----
     (2,0,0)        1.00000E-11
     (0,2,0)        2.00000E-10
     (0,0,2)       -3.00000E-11
 Nucleus-field energy     =     0.0000000244 hartrees
 Requested basis set is cc-pVTZ
 There are 140 shells and 392 basis functions
 A cutoff of  1.0D-11 yielded   8029 shell pairs
 There are     62449 function pairs (     81453 Cartesian)
 Smallest overlap matrix eigenvalue = 9.40E-05
 Guess MOs from SCF MO coefficient file
 Reading MOs from coefficient file
 Reading MOs from coefficient file
 A restricted Hartree-Fock SCF calculation will be
 performed using Pulay DIIS extrapolation
 SCF converges when DIIS error is below 1.0E-08
 Geometry optimization detected.  Setting ReadMinima to 0
 Setting SaveMinima to 0
 using 16 threads for integral computing 
 ---------------------------------------
  Cycle       Energy         DIIS Error
 ---------------------------------------
    1   -1101.5973573044      2.62E-04
    2   -1101.5975017566      3.04E-05
    3   -1101.5975384650      1.26E-05
    4   -1101.5975441530      7.49E-06
    5   -1101.5975460754      2.34E-06
    6   -1101.5975463445      9.54E-07
    7   -1101.5975464052      3.63E-07
    8   -1101.5975464120      1.33E-07
    9   -1101.5975464131      4.46E-08
   10   -1101.5975464131      1.72E-08
   11   -1101.5975464133      6.63E-09 Convergence criterion met
 ---------------------------------------
 SCF time:  CPU 714.08 s  wall 44.67 s
 SCF   energy in the final basis set = -1101.5975464133
 Total energy in the final basis set = -1101.5975464133
 
 Components of the MP2 correlation energy:
        aaaa  correlation energy =        -0.2321708923 au
        abab  correlation energy =        -1.3503359335 au
        bbbb  correlation energy =        -0.2321708923 au
        non-Brillouin singles    =        -0.0000000000 au

 Total  MP2   correlation energy =        -1.8146777181 au
        MP2         total energy =     -1103.4122241313 au

  Entering Z-vector solver.
   1         0           1      0.000266    0.000266
   2         0           1      0.000119    0.000119
   3         0           1      0.000049    0.000049
   4         0           1      0.000023    0.000023
   5         0           1      0.000007    0.000007
   6         0           1      0.000003    0.000003
   7         1           0      0.000000    0.000000    Roots Converged
 
 --------------------------------------------------------------
             Orbital Energies (a.u.) and Symmetries
 --------------------------------------------------------------
 
 Alpha MOs, Restricted
 -- Occupied --                  
-91.984 -91.984 -11.273 -11.272 -11.261 -11.261 -11.238 -11.238
  1 B     1 A     2 A     2 B     3 B     3 A     4 B     4 A                  
-11.237 -11.237  -8.986  -8.986  -6.666  -6.666  -6.666  -6.666
  5 A     5 B     6 B     6 A     7 B     7 A     8 A     8 B                  
 -6.665  -6.665  -1.195  -1.166  -1.034  -0.995  -0.987  -0.948
  9 B     9 A    10 A    10 B    11 A    12 A    11 B    12 B                  
 -0.807  -0.771  -0.755  -0.718  -0.704  -0.645  -0.572  -0.568
 13 A    14 A    13 B    14 B    15 A    15 B    16 A    17 A                  
 -0.565  -0.554  -0.538  -0.512  -0.512  -0.480  -0.472  -0.353
 16 B    17 B    18 A    19 A    18 B    20 A    19 B    21 A                  
 -0.350  -0.346  -0.299
 20 B    21 B    22 A                                                          
 -- Virtual --                   
  0.092   0.126   0.150   0.152   0.162   0.174   0.179   0.195
 22 B    23 A    24 A    23 B    25 A    24 B    26 A    25 B                  
  0.196   0.202   0.203   0.229   0.239   0.255   0.315   0.339
 27 A    28 A    26 B    27 B    29 A    28 B    30 A    29 B                  
  0.344   0.358   0.366   0.379   0.385   0.398   0.418   0.428
 30 B    31 A    32 A    31 B    33 A    32 B    33 B    34 A                  
  0.445   0.454   0.456   0.467   0.475   0.481   0.491   0.506
 35 A    36 A    34 B    35 B    37 A    36 B    37 B    38 A                  
  0.519   0.525   0.533   0.542   0.548   0.553   0.566   0.570
 39 A    38 B    40 A    39 B    40 B    41 A    42 A    41 B                  
  0.585   0.588   0.599   0.601   0.611   0.611   0.617   0.623
 42 B    43 A    43 B    44 A    44 B    45 A    46 A    45 B                  
  0.626   0.635   0.663   0.665   0.680   0.685   0.715   0.733
 47 A    46 B    48 A    47 B    48 B    49 A    50 A    49 B                  
  0.742   0.748   0.784   0.789   0.797   0.811   0.846   0.851
 51 A    50 B    51 B    52 A    52 B    53 A    53 B    54 A                  
  0.868   0.874   0.882   0.894   0.900   0.921   0.940   0.949
 55 A    54 B    55 B    56 A    56 B    57 A    57 B    58 B                  
  0.955   0.993   0.996   1.015   1.025   1.034   1.054   1.077
 58 A    59 B    59 A    60 A    61 A    60 B    61 B    62 A                  
  1.094   1.100   1.115   1.121   1.153   1.164   1.178   1.184
 62 B    63 A    63 B    64 A    64 B    65 B    65 A    66 A                  
  1.190   1.196   1.221   1.223   1.228   1.240   1.279   1.291
 67 A    66 B    67 B    68 A    68 B    69 A    69 B    70 A                  
  1.294   1.316   1.317   1.374   1.388   1.404   1.414   1.427
 70 B    71 A    71 B    72 A    72 B    73 B    73 A    74 B                  
  1.430   1.462   1.472   1.489   1.490   1.515   1.518   1.544
 74 A    75 B    75 A    76 A    76 B    77 B    77 A    78 B                  
  1.546   1.557   1.571   1.583   1.587   1.612   1.638   1.652
 78 A    79 A    79 B    80 A    80 B    81 A    81 B    82 A                  
  1.668   1.678   1.701   1.732   1.738   1.756   1.782   1.811
 83 A    82 B    83 B    84 A    84 B    85 B    85 A    86 B                  
  1.844   1.879   1.880   1.893   1.921   1.922   1.932   1.951
 86 A    87 B    87 A    88 B    88 A    89 B    89 A    90 A                  
  1.962   1.989   2.025   2.057   2.080   2.111   2.117   2.167
 90 B    91 A    91 B    92 B    92 A    93 B    93 A    94 B                  
  2.184   2.184   2.189   2.203   2.218   2.230   2.256   2.270
 95 B    94 A    95 A    96 A    96 B    97 A    97 B    98 A                  
  2.285   2.311   2.312   2.397   2.429   2.433   2.468   2.474
 98 B    99 B    99 A   100 A   100 B   101 A   102 A   101 B                  
  2.490   2.497   2.509   2.523   2.556   2.557   2.571   2.612
102 B   103 A   103 B   104 A   104 B   105 A   105 B   106 A                  
  2.614   2.632   2.661   2.689   2.720   2.750   2.755   2.759
106 B   107 B   107 A   108 A   108 B   109 A   109 B   110 A                  
  2.762   2.776   2.782   2.809   2.820   2.870   2.884   2.898
110 B   111 B   111 A   112 B   112 A   113 A   114 A   113 B                  
  2.911   2.921   2.948   2.970   2.997   3.012   3.016   3.023
114 B   115 A   115 B   116 A   116 B   117 A   118 A   119 A                  
  3.027   3.031   3.080   3.139   3.148   3.160   3.185   3.201
117 B   118 B   119 B   120 B   120 A   121 A   121 B   122 A                  
  3.204   3.224   3.237   3.242   3.252   3.271   3.284   3.288
122 B   123 B   124 B   123 A   124 A   125 B   125 A   126 A                  
  3.298   3.324   3.330   3.340   3.357   3.363   3.384   3.385
126 B   127 A   127 B   128 A   128 B   129 A   129 B   130 B                  
  3.401   3.407   3.428   3.433   3.440   3.461   3.477   3.479
130 A   131 A   131 B   132 A   133 A   134 A   135 A   132 B                  
  3.485   3.488   3.499   3.507   3.515   3.517   3.522   3.536
133 B   134 B   136 A   135 B   137 A   138 A   136 B   137 B                  
  3.554   3.584   3.598   3.599   3.610   3.630   3.657   3.661
138 B   139 A   139 B   140 A   140 B   141 A   141 B   142 A                  
  3.675   3.696   3.714   3.731   3.743   3.757   3.766   3.785
142 B   143 A   143 B   144 A   145 A   144 B   146 A   145 B                  
  3.790   3.830   3.872   3.892   3.907   3.916   3.931   3.940
147 A   146 B   147 B   148 A   148 B   149 A   149 B   150 A                  
  3.954   3.983   3.996   4.008   4.021   4.033   4.035   4.039
150 B   151 A   151 B   152 A   152 B   153 A   153 B   154 A                  
  4.087   4.116   4.129   4.134   4.170   4.178   4.184   4.184
154 B   155 B   155 A   156 A   156 B   157 A   158 A   157 B                  
  4.209   4.219   4.241   4.257   4.258   4.271   4.290   4.339
159 A   158 B   159 B   160 B   160 A   161 B   161 A   162 A                  
  4.341   4.379   4.404   4.431   4.471   4.479   4.500   4.508
162 B   163 A   163 B   164 A   164 B   165 A   165 B   166 A                  
  4.536   4.557   4.601   4.604   4.641   4.687   4.692   4.695
167 A   166 B   167 B   168 A   169 A   168 B   170 A   171 A                  
  4.697   4.728   4.754   4.771   4.793   4.805   4.845   4.854
169 B   170 B   171 B   172 B   172 A   173 A   173 B   174 A                  
  4.925   4.927   5.000   5.013   5.040   5.064   5.074   5.082
174 B   175 A   175 B   176 A   176 B   177 A   178 A   179 A                  
  5.096   5.105   5.194   5.219   5.250   5.293   5.319   5.380
177 B   178 B   179 B   180 A   180 B   181 A   181 B   182 A                  
  5.394   5.408   5.416   5.466   5.585   5.593   5.654   5.672
182 B   183 A   183 B   184 A   184 B   185 A   185 B   186 A                  
  5.832   5.841   5.985   6.012   6.114   6.129   6.182   6.190
186 B   187 A   187 B   188 A   188 B   189 A   190 A   189 B                  
  6.240   6.553   6.561   6.689   6.776   9.531  10.721  11.843
190 B   191 A   191 B   192 A   192 B   193 A   193 B   194 A                  
 12.203  13.469  13.618  14.544  14.750
194 B   195 A   195 B   196 A   196 B                                          
 
 Beta MOs, Restricted
 -- Occupied --                  
-91.984 -91.984 -11.273 -11.272 -11.261 -11.261 -11.238 -11.238
  1 B     1 A     2 A     2 B     3 B     3 A     4 B     4 A                  
-11.237 -11.237  -8.986  -8.986  -6.666  -6.666  -6.666  -6.666
  5 A     5 B     6 B     6 A     7 B     7 A     8 A     8 B                  
 -6.665  -6.665  -1.195  -1.166  -1.034  -0.995  -0.987  -0.948
  9 B     9 A    10 A    10 B    11 A    12 A    11 B    12 B                  
 -0.807  -0.771  -0.755  -0.718  -0.704  -0.645  -0.572  -0.568
 13 A    14 A    13 B    14 B    15 A    15 B    16 A    17 A                  
 -0.565  -0.554  -0.538  -0.512  -0.512  -0.480  -0.472  -0.353
 16 B    17 B    18 A    19 A    18 B    20 A    19 B    21 A                  
 -0.350  -0.346  -0.299
 20 B    21 B    22 A                                                          
 -- Virtual --                   
  0.092   0.126   0.150   0.152   0.162   0.174   0.179   0.195
 22 B    23 A    24 A    23 B    25 A    24 B    26 A    25 B                  
  0.196   0.202   0.203   0.229   0.239   0.255   0.315   0.339
 27 A    28 A    26 B    27 B    29 A    28 B    30 A    29 B                  
  0.344   0.358   0.366   0.379   0.385   0.398   0.418   0.428
 30 B    31 A    32 A    31 B    33 A    32 B    33 B    34 A                  
  0.445   0.454   0.456   0.467   0.475   0.481   0.491   0.506
 35 A    36 A    34 B    35 B    37 A    36 B    37 B    38 A                  
  0.519   0.525   0.533   0.542   0.548   0.553   0.566   0.570
 39 A    38 B    40 A    39 B    40 B    41 A    42 A    41 B                  
  0.585   0.588   0.599   0.601   0.611   0.611   0.617   0.623
 42 B    43 A    43 B    44 A    44 B    45 A    46 A    45 B                  
  0.626   0.635   0.663   0.665   0.680   0.685   0.715   0.733
 47 A    46 B    48 A    47 B    48 B    49 A    50 A    49 B                  
  0.742   0.748   0.784   0.789   0.797   0.811   0.846   0.851
 51 A    50 B    51 B    52 A    52 B    53 A    53 B    54 A                  
  0.868   0.874   0.882   0.894   0.900   0.921   0.940   0.949
 55 A    54 B    55 B    56 A    56 B    57 A    57 B    58 B                  
  0.955   0.993   0.996   1.015   1.025   1.034   1.054   1.077
 58 A    59 B    59 A    60 A    61 A    60 B    61 B    62 A                  
  1.094   1.100   1.115   1.121   1.153   1.164   1.178   1.184
 62 B    63 A    63 B    64 A    64 B    65 B    65 A    66 A                  
  1.190   1.196   1.221   1.223   1.228   1.240   1.279   1.291
 67 A    66 B    67 B    68 A    68 B    69 A    69 B    70 A                  
  1.294   1.316   1.317   1.374   1.388   1.404   1.414   1.427
 70 B    71 A    71 B    72 A    72 B    73 B    73 A    74 B                  
  1.430   1.462   1.472   1.489   1.490   1.515   1.518   1.544
 74 A    75 B    75 A    76 A    76 B    77 B    77 A    78 B                  
  1.546   1.557   1.571   1.583   1.587   1.612   1.638   1.652
 78 A    79 A    79 B    80 A    80 B    81 A    81 B    82 A                  
  1.668   1.678   1.701   1.732   1.738   1.756   1.782   1.811
 83 A    82 B    83 B    84 A    84 B    85 B    85 A    86 B                  
  1.844   1.879   1.880   1.893   1.921   1.922   1.932   1.951
 86 A    87 B    87 A    88 B    88 A    89 B    89 A    90 A                  
  1.962   1.989   2.025   2.057   2.080   2.111   2.117   2.167
 90 B    91 A    91 B    92 B    92 A    93 B    93 A    94 B                  
  2.184   2.184   2.189   2.203   2.218   2.230   2.256   2.270
 95 B    94 A    95 A    96 A    96 B    97 A    97 B    98 A                  
  2.285   2.311   2.312   2.397   2.429   2.433   2.468   2.474
 98 B    99 B    99 A   100 A   100 B   101 A   102 A   101 B                  
  2.490   2.497   2.509   2.523   2.556   2.557   2.571   2.612
102 B   103 A   103 B   104 A   104 B   105 A   105 B   106 A                  
  2.614   2.632   2.661   2.689   2.720   2.750   2.755   2.759
106 B   107 B   107 A   108 A   108 B   109 A   109 B   110 A                  
  2.762   2.776   2.782   2.809   2.820   2.870   2.884   2.898
110 B   111 B   111 A   112 B   112 A   113 A   114 A   113 B                  
  2.911   2.921   2.948   2.970   2.997   3.012   3.016   3.023
114 B   115 A   115 B   116 A   116 B   117 A   118 A   119 A                  
  3.027   3.031   3.080   3.139   3.148   3.160   3.185   3.201
117 B   118 B   119 B   120 B   120 A   121 A   121 B   122 A                  
  3.204   3.224   3.237   3.242   3.252   3.271   3.284   3.288
122 B   123 B   124 B   123 A   124 A   125 B   125 A   126 A                  
  3.298   3.324   3.330   3.340   3.357   3.363   3.384   3.385
126 B   127 A   127 B   128 A   128 B   129 A   129 B   130 B                  
  3.401   3.407   3.428   3.433   3.440   3.461   3.477   3.479
130 A   131 A   131 B   132 A   133 A   134 A   135 A   132 B                  
  3.485   3.488   3.499   3.507   3.515   3.517   3.522   3.536
133 B   134 B   136 A   135 B   137 A   138 A   136 B   137 B                  
  3.554   3.584   3.598   3.599   3.610   3.630   3.657   3.661
138 B   139 A   139 B   140 A   140 B   141 A   141 B   142 A                  
  3.675   3.696   3.714   3.731   3.743   3.757   3.766   3.785
142 B   143 A   143 B   144 A   145 A   144 B   146 A   145 B                  
  3.790   3.830   3.872   3.892   3.907   3.916   3.931   3.940
147 A   146 B   147 B   148 A   148 B   149 A   149 B   150 A                  
  3.954   3.983   3.996   4.008   4.021   4.033   4.035   4.039
150 B   151 A   151 B   152 A   152 B   153 A   153 B   154 A                  
  4.087   4.116   4.129   4.134   4.170   4.178   4.184   4.184
154 B   155 B   155 A   156 A   156 B   157 A   158 A   157 B                  
  4.209   4.219   4.241   4.257   4.258   4.271   4.290   4.339
159 A   158 B   159 B   160 B   160 A   161 B   161 A   162 A                  
  4.341   4.379   4.404   4.431   4.471   4.479   4.500   4.508
162 B   163 A   163 B   164 A   164 B   165 A   165 B   166 A                  
  4.536   4.557   4.601   4.604   4.641   4.687   4.692   4.695
167 A   166 B   167 B   168 A   169 A   168 B   170 A   171 A                  
  4.697   4.728   4.754   4.771   4.793   4.805   4.845   4.854
169 B   170 B   171 B   172 B   172 A   173 A   173 B   174 A                  
  4.925   4.927   5.000   5.013   5.040   5.064   5.074   5.082
174 B   175 A   175 B   176 A   176 B   177 A   178 A   179 A                  
  5.096   5.105   5.194   5.219   5.250   5.293   5.319   5.380
177 B   178 B   179 B   180 A   180 B   181 A   181 B   182 A                  
  5.394   5.408   5.416   5.466   5.585   5.593   5.654   5.672
182 B   183 A   183 B   184 A   184 B   185 A   185 B   186 A                  
  5.832   5.841   5.985   6.012   6.114   6.129   6.182   6.190
186 B   187 A   187 B   188 A   188 B   189 A   190 A   189 B                  
  6.240   6.553   6.561   6.689   6.776   9.531  10.721  11.843
190 B   191 A   191 B   192 A   192 B   193 A   193 B   194 A                  
 12.203  13.469  13.618  14.544  14.750
194 B   195 A   195 B   196 A   196 B                                          
 --------------------------------------------------------------
 
          Ground-State Mulliken Net Atomic Charges

     Atom                 Charge (a.u.)
  ----------------------------------------
      1 S                     0.124121
      2 C                    -0.238180
      3 C                    -0.191044
      4 C                    -0.194844
      5 C                    -0.034778
      6 H                     0.176051
      7 C                    -0.034778
      8 S                     0.124121
      9 C                    -0.194844
     10 C                    -0.238180
     11 C                    -0.191044
     12 H                     0.174278
     13 H                     0.184394
     14 H                     0.174278
     15 H                     0.184394
     16 H                     0.176051
  ----------------------------------------
  Sum of atomic charges =    -0.000000

 -----------------------------------------------------------------
                    Cartesian Multipole Moments
 -----------------------------------------------------------------
    Charge (ESU x 10^10)
                 0.0000
    Dipole Moment (Debye)
         X      -0.0000      Y      -0.0000      Z      -0.6307
       Tot       0.6307
    Quadrupole Moments (Debye-Ang)
        XX     -61.2414     XY       0.7680     YY     -75.4763
        XZ       0.0000     YZ      -0.0000     ZZ     -69.9608
    Octopole Moments (Debye-Ang^2)
       XXX      -0.0000    XXY      -0.0000    XYY       0.0000
       YYY       0.0000    XXZ       6.4771    XYZ     -11.4709
       YYZ      -0.4155    XZZ       0.0000    YZZ       0.0000
       ZZZ      -2.0086
    Hexadecapole Moments (Debye-Ang^3)
      XXXX   -1829.1174   XXXY       1.0120   XXYY    -403.1816
      XYYY      -4.6810   YYYY    -222.3363   XXXZ       0.0000
      XXYZ      -0.0000   XYYZ      -0.0000   YYYZ      -0.0000
      XXZZ    -399.1624   XYZZ       9.2655   YYZZ    -105.6443
      XZZZ      -0.0000   YZZZ      -0.0000   ZZZZ    -447.4079
 -----------------------------------------------------------------
 DrvMan is completing analytic gradient of the MP2 energy
 MP2 relaxed dipole moment
            1
    1  -0.0000000
    2  -0.0000000
    3  -0.2481348
	Magnitude:	 0.248 au	 0.631 Debye
 MP2 energy read as -1103.412224
 Full Analytical Gradient of MP2 Energy (in au.)
             1             2             3             4             5
    1    0.00008245    0.00059535   -0.00013440   -0.00007908   -0.00060679
    2   -0.00073147    0.00025016   -0.00019033    0.00235989   -0.00171590
    3   -0.00014495   -0.00011538    0.00023608    0.00169681   -0.00120056
             6             7             8             9            10
    1    0.00015377    0.00060679   -0.00008245    0.00007908   -0.00059535
    2   -0.00077430    0.00171590    0.00073147   -0.00235989   -0.00025016
    3   -0.00052051   -0.00120056   -0.00014495    0.00169681   -0.00011538
            11            12            13            14            15
    1    0.00013440    0.00001827   -0.00000610   -0.00001827    0.00000610
    2    0.00019033   -0.00000415   -0.00016237    0.00000415    0.00016237
    3    0.00023608    0.00000424    0.00004427    0.00000424    0.00004427
            16
    1   -0.00015377
    2    0.00077430
    3   -0.00052051
 Gradient time:  CPU 1.48 s  wall 0.10 s
 Geometry Optimization Parameters
   NAtoms,    NIC,     NZ,  NCons,   NDum,   NFix, NCnnct, MaxDiis
       16     111       0       1       0       0       0       0

 Cartesian Hessian Update
 Hessian Updated using BFGS Update


** CONSTRAINED OPTIMIZATION IN DELOCALIZED INTERNAL COORDINATES **
   Searching for a Minimum

   Optimization Cycle:   2

                       Coordinates (Angstroms)
     ATOM                X               Y               Z
      1  S         1.6498009814   -0.6276227922    0.9854020608
      2  C         3.1200706493   -0.1274681699    0.2811358143
      3  C         2.9083894159    0.5274272922   -0.9072130511
      4  C         1.5459163915    0.6309898122   -1.2318527183
      5  C         0.7207272689    0.0424782248   -0.2983789278
      6  H         1.1618081037    1.1065413242   -2.1163185914
      7  C        -0.7207272689   -0.0424782248   -0.2983789278
      8  S        -1.6498009814    0.6276227922    0.9854020608
      9  C        -1.5459163915   -0.6309898122   -1.2318527183
     10  C        -3.1200706493    0.1274681699    0.2811358143
     11  C        -2.9083894159   -0.5274272922   -0.9072130511
     12  H        -3.7062798624   -0.9224932171   -1.5084991159
     13  H         4.0527974616   -0.3389094700    0.7651706223
     14  H         3.7062798624    0.9224932171   -1.5084991159
     15  H        -4.0527974616    0.3389094700    0.7651706223
     16  H        -1.1618081037   -1.1065413242   -2.1163185914
   Point Group: c2    Number of degrees of freedom:    22


   Energy is  -1103.412224131

              Constraints and their Current Values
                                        Value     Constraint
   Dihedral:        4   5   7   9       60.000       60.000
 Hessian Updated using BFGS Update

 21 Hessian modes will be used to form the next step
  Hessian Eigenvalues:
     0.030410    0.045000    0.045000    0.045001    0.045007    0.053838
     0.158639    0.159992    0.160079    0.222892    0.232668    0.244945
     0.326906    0.340177    0.365498    0.366892    0.370134    0.413497
     0.438312    0.466030    0.497087

 Minimum Search - Taking Simple RFO Step
 Searching for Lamda that Minimizes Along All modes
 Value Taken    Lamda =  -0.00008998
 Step Taken.  Stepsize is  0.049578

                             Maximum     Tolerance    Cnvgd?
         Gradient           0.001175      0.000300      NO
         Displacement       0.033406      0.001200      NO
         Energy change     -0.000356      0.000001      NO


 New Cartesian Coordinates Obtained by Inverse Iteration

 Displacement from previous Coordinates is:  0.049521
 ----------------------------------------------------------------
             Standard Nuclear Orientation (Angstroms)
    I     Atom           X                Y                Z
 ----------------------------------------------------------------
    1      S       1.6508984732    -0.6235179499     0.9903311737
    2      C       3.1191097673    -0.1270318903     0.2805274117
    3      C       2.9070038729     0.5213618816    -0.9116480099
    4      C       1.5440492269     0.6242668444    -1.2336464761
    5      C       0.7215570494     0.0384829661    -0.2963495502
    6      H       1.1557070286     1.1075213216    -2.1119455951
    7      C      -0.7215570494    -0.0384829661    -0.2963495502
    8      S      -1.6508984732     0.6235179499     0.9903311737
    9      C      -1.5440492269    -0.6242668444    -1.2336464761
   10      C      -3.1191097673     0.1270318903     0.2805274117
   11      C      -2.9070038729    -0.5213618816    -0.9116480099
   12      H      -3.7040626175    -0.9172955232    -1.5135240806
   13      H       4.0527138372    -0.3315816340     0.7657012193
   14      H       3.7040626175     0.9172955232    -1.5135240806
   15      H      -4.0527138372     0.3315816340     0.7657012193
   16      H      -1.1557070286    -1.1075213216    -2.1119455951
 ----------------------------------------------------------------
 Molecular Point Group                 C2    NOp =  2
 Largest Abelian Subgroup              C2    NOp =  2
 Nuclear Repulsion Energy =   637.4024730947 hartrees
 There are       43 alpha and       43 beta electrons
 Applying Cartesian multipole field
    Component          Value
    ---------          -----
     (2,0,0)        1.00000E-11
     (0,2,0)        2.00000E-10
     (0,0,2)       -3.00000E-11
 Nucleus-field energy     =     0.0000000240 hartrees
 Requested basis set is cc-pVTZ
 There are 140 shells and 392 basis functions
 A cutoff of  1.0D-11 yielded   8033 shell pairs
 There are     62493 function pairs (     81509 Cartesian)
 Smallest overlap matrix eigenvalue = 9.49E-05
 Guess MOs from SCF MO coefficient file
 Reading MOs from coefficient file
 Reading MOs from coefficient file
 A restricted Hartree-Fock SCF calculation will be
 performed using Pulay DIIS extrapolation
 SCF converges when DIIS error is below 1.0E-08
 Geometry optimization detected.  Setting ReadMinima to 0
 Setting SaveMinima to 0
 using 16 threads for integral computing 
 ---------------------------------------
  Cycle       Energy         DIIS Error
 ---------------------------------------
    1   -1101.5974161931      1.27E-04
    2   -1101.5976221295      1.64E-05
    3   -1101.5976324219      7.61E-06
    4   -1101.5976341207      3.85E-06
    5   -1101.5976346764      1.25E-06
    6   -1101.5976347330      4.66E-07
    7   -1101.5976347452      1.87E-07
    8   -1101.5976347466      6.23E-08
    9   -1101.5976347468      2.30E-08
   10   -1101.5976347470      8.04E-09 Convergence criterion met
 ---------------------------------------
 SCF time:  CPU 654.21 s  wall 40.92 s
 SCF   energy in the final basis set = -1101.5976347470
 Total energy in the final basis set = -1101.5976347470
 
 Components of the MP2 correlation energy:
        aaaa  correlation energy =        -0.2321733800 au
        abab  correlation energy =        -1.3502996015 au
        bbbb  correlation energy =        -0.2321733800 au
        non-Brillouin singles    =        -0.0000000000 au

 Total  MP2   correlation energy =        -1.8146463614 au
        MP2         total energy =     -1103.4122811085 au

  Entering Z-vector solver.
   1         0           1      0.000266    0.000266
   2         0           1      0.000119    0.000119
   3         0           1      0.000049    0.000049
   4         0           1      0.000023    0.000023
   5         0           1      0.000007    0.000007
   6         0           1      0.000003    0.000003
   7         1           0      0.000000    0.000000    Roots Converged
 
 --------------------------------------------------------------
             Orbital Energies (a.u.) and Symmetries
 --------------------------------------------------------------
 
 Alpha MOs, Restricted
 -- Occupied --                  
-91.984 -91.984 -11.273 -11.272 -11.261 -11.261 -11.238 -11.238
  1 B     1 A     2 A     2 B     3 B     3 A     4 B     4 A                  
-11.236 -11.236  -8.986  -8.986  -6.667  -6.667  -6.666  -6.666
  5 B     5 A     6 B     6 A     7 B     7 A     8 A     8 B                  
 -6.665  -6.665  -1.195  -1.166  -1.033  -0.995  -0.987  -0.948
  9 B     9 A    10 A    10 B    11 A    12 A    11 B    12 B                  
 -0.807  -0.771  -0.755  -0.718  -0.704  -0.645  -0.571  -0.568
 13 A    14 A    13 B    14 B    15 A    15 B    16 A    17 A                  
 -0.565  -0.554  -0.538  -0.512  -0.512  -0.480  -0.472  -0.353
 16 B    17 B    18 A    19 A    18 B    20 A    19 B    21 A                  
 -0.350  -0.346  -0.298
 20 B    21 B    22 A                                                          
 -- Virtual --                   
  0.092   0.126   0.150   0.152   0.162   0.174   0.179   0.195
 22 B    23 A    24 A    23 B    25 A    24 B    26 A    25 B                  
  0.196   0.202   0.203   0.230   0.239   0.255   0.314   0.339
 27 A    28 A    26 B    27 B    29 A    28 B    30 A    29 B                  
  0.344   0.358   0.366   0.379   0.385   0.398   0.418   0.428
 30 B    31 A    32 A    31 B    33 A    32 B    33 B    34 A                  
  0.445   0.454   0.456   0.466   0.475   0.481   0.492   0.506
 35 A    36 A    34 B    35 B    37 A    36 B    37 B    38 A                  
  0.519   0.526   0.533   0.542   0.549   0.553   0.566   0.570
 39 A    38 B    40 A    39 B    40 B    41 A    42 A    41 B                  
  0.585   0.588   0.599   0.602   0.610   0.611   0.618   0.623
 42 B    43 A    43 B    44 A    44 B    45 A    46 A    45 B                  
  0.626   0.635   0.663   0.665   0.681   0.686   0.715   0.733
 47 A    46 B    48 A    47 B    48 B    49 A    50 A    49 B                  
  0.742   0.748   0.783   0.789   0.799   0.810   0.846   0.851
 51 A    50 B    51 B    52 A    52 B    53 A    53 B    54 A                  
  0.867   0.874   0.882   0.893   0.902   0.923   0.941   0.948
 55 A    54 B    55 B    56 A    56 B    57 A    57 B    58 B                  
  0.955   0.992   0.996   1.016   1.024   1.034   1.054   1.077
 58 A    59 B    59 A    60 A    61 A    60 B    61 B    62 A                  
  1.094   1.101   1.115   1.121   1.152   1.164   1.176   1.185
 62 B    63 A    63 B    64 A    64 B    65 B    65 A    66 A                  
  1.191   1.196   1.221   1.223   1.227   1.238   1.279   1.293
 67 A    66 B    67 B    68 A    68 B    69 A    69 B    70 B                  
  1.293   1.317   1.318   1.374   1.388   1.405   1.414   1.427
 70 A    71 B    71 A    72 A    72 B    73 B    73 A    74 B                  
  1.429   1.462   1.472   1.489   1.490   1.516   1.518   1.544
 74 A    75 B    75 A    76 A    76 B    77 B    77 A    78 B                  
  1.546   1.557   1.570   1.582   1.589   1.612   1.638   1.651
 78 A    79 A    79 B    80 A    80 B    81 A    81 B    82 A                  
  1.669   1.678   1.701   1.730   1.738   1.756   1.782   1.811
 83 A    82 B    83 B    84 A    84 B    85 B    85 A    86 B                  
  1.845   1.879   1.879   1.893   1.919   1.920   1.934   1.951
 86 A    87 A    87 B    88 B    88 A    89 B    89 A    90 A                  
  1.962   1.988   2.026   2.058   2.079   2.109   2.117   2.168
 90 B    91 A    91 B    92 B    92 A    93 B    93 A    94 B                  
  2.184   2.185   2.190   2.203   2.220   2.230   2.257   2.271
 95 B    94 A    95 A    96 A    96 B    97 A    97 B    98 A                  
  2.286   2.310   2.312   2.398   2.430   2.433   2.469   2.474
 98 B    99 B    99 A   100 A   100 B   101 A   102 A   101 B                  
  2.488   2.497   2.509   2.523   2.557   2.557   2.571   2.612
102 B   103 A   103 B   104 A   104 B   105 A   105 B   106 A                  
  2.614   2.632   2.660   2.690   2.721   2.750   2.756   2.759
106 B   107 B   107 A   108 A   108 B   109 A   109 B   110 A                  
  2.763   2.776   2.783   2.809   2.820   2.872   2.884   2.900
110 B   111 B   111 A   112 B   112 A   113 A   114 A   113 B                  
  2.909   2.921   2.949   2.971   2.997   3.011   3.016   3.023
114 B   115 A   115 B   116 A   116 B   117 A   118 A   119 A                  
  3.025   3.032   3.082   3.139   3.148   3.160   3.186   3.201
117 B   118 B   119 B   120 B   120 A   121 A   121 B   122 A                  
  3.204   3.225   3.237   3.242   3.251   3.270   3.284   3.289
122 B   123 B   124 B   123 A   124 A   125 B   125 A   126 A                  
  3.298   3.324   3.330   3.339   3.355   3.366   3.384   3.386
126 B   127 A   127 B   128 A   128 B   129 A   129 B   130 B                  
  3.400   3.406   3.429   3.433   3.441   3.461   3.477   3.480
130 A   131 A   131 B   132 A   133 A   134 A   135 A   132 B                  
  3.484   3.489   3.499   3.508   3.515   3.516   3.522   3.536
133 B   134 B   136 A   135 B   137 A   138 A   136 B   137 B                  
  3.554   3.585   3.599   3.601   3.610   3.632   3.656   3.660
138 B   139 A   139 B   140 A   140 B   141 A   141 B   142 A                  
  3.675   3.695   3.714   3.733   3.742   3.757   3.766   3.787
142 B   143 A   143 B   144 A   145 A   144 B   146 A   145 B                  
  3.790   3.832   3.871   3.893   3.907   3.915   3.929   3.942
147 A   146 B   147 B   148 A   148 B   149 A   149 B   150 A                  
  3.953   3.983   3.997   4.008   4.021   4.033   4.036   4.040
150 B   151 A   151 B   152 A   152 B   153 A   153 B   154 A                  
  4.087   4.115   4.130   4.134   4.172   4.179   4.184   4.184
154 B   155 B   155 A   156 A   156 B   157 A   158 A   157 B                  
  4.209   4.219   4.239   4.258   4.259   4.270   4.291   4.340
159 A   158 B   159 B   160 A   160 B   161 B   161 A   162 B                  
  4.341   4.381   4.403   4.432   4.472   4.479   4.502   4.507
162 A   163 A   163 B   164 A   164 B   165 A   165 B   166 A                  
  4.537   4.558   4.603   4.604   4.641   4.688   4.690   4.696
167 A   166 B   167 B   168 A   169 A   168 B   170 A   169 B                  
  4.696   4.728   4.753   4.774   4.794   4.806   4.845   4.854
171 A   170 B   171 B   172 B   172 A   173 A   173 B   174 A                  
  4.925   4.929   4.997   5.009   5.038   5.062   5.076   5.082
174 B   175 A   175 B   176 A   176 B   177 A   178 A   179 A                  
  5.095   5.107   5.193   5.219   5.251   5.291   5.317   5.379
177 B   178 B   179 B   180 A   180 B   181 A   181 B   182 A                  
  5.393   5.409   5.416   5.467   5.585   5.592   5.653   5.672
182 B   183 A   183 B   184 A   184 B   185 A   185 B   186 A                  
  5.834   5.840   5.986   6.014   6.113   6.128   6.183   6.192
186 B   187 A   187 B   188 A   188 B   189 A   190 A   189 B                  
  6.245   6.552   6.562   6.688   6.774   9.527  10.718  11.841
190 B   191 A   191 B   192 A   192 B   193 A   193 B   194 A                  
 12.195  13.470  13.613  14.544  14.750
194 B   195 A   195 B   196 A   196 B                                          
 
 Beta MOs, Restricted
 -- Occupied --                  
-91.984 -91.984 -11.273 -11.272 -11.261 -11.261 -11.238 -11.238
  1 B     1 A     2 A     2 B     3 B     3 A     4 B     4 A                  
-11.236 -11.236  -8.986  -8.986  -6.667  -6.667  -6.666  -6.666
  5 B     5 A     6 B     6 A     7 B     7 A     8 A     8 B                  
 -6.665  -6.665  -1.195  -1.166  -1.033  -0.995  -0.987  -0.948
  9 B     9 A    10 A    10 B    11 A    12 A    11 B    12 B                  
 -0.807  -0.771  -0.755  -0.718  -0.704  -0.645  -0.571  -0.568
 13 A    14 A    13 B    14 B    15 A    15 B    16 A    17 A                  
 -0.565  -0.554  -0.538  -0.512  -0.512  -0.480  -0.472  -0.353
 16 B    17 B    18 A    19 A    18 B    20 A    19 B    21 A                  
 -0.350  -0.346  -0.298
 20 B    21 B    22 A                                                          
 -- Virtual --                   
  0.092   0.126   0.150   0.152   0.162   0.174   0.179   0.195
 22 B    23 A    24 A    23 B    25 A    24 B    26 A    25 B                  
  0.196   0.202   0.203   0.230   0.239   0.255   0.314   0.339
 27 A    28 A    26 B    27 B    29 A    28 B    30 A    29 B                  
  0.344   0.358   0.366   0.379   0.385   0.398   0.418   0.428
 30 B    31 A    32 A    31 B    33 A    32 B    33 B    34 A                  
  0.445   0.454   0.456   0.466   0.475   0.481   0.492   0.506
 35 A    36 A    34 B    35 B    37 A    36 B    37 B    38 A                  
  0.519   0.526   0.533   0.542   0.549   0.553   0.566   0.570
 39 A    38 B    40 A    39 B    40 B    41 A    42 A    41 B                  
  0.585   0.588   0.599   0.602   0.610   0.611   0.618   0.623
 42 B    43 A    43 B    44 A    44 B    45 A    46 A    45 B                  
  0.626   0.635   0.663   0.665   0.681   0.686   0.715   0.733
 47 A    46 B    48 A    47 B    48 B    49 A    50 A    49 B                  
  0.742   0.748   0.783   0.789   0.799   0.810   0.846   0.851
 51 A    50 B    51 B    52 A    52 B    53 A    53 B    54 A                  
  0.867   0.874   0.882   0.893   0.902   0.923   0.941   0.948
 55 A    54 B    55 B    56 A    56 B    57 A    57 B    58 B                  
  0.955   0.992   0.996   1.016   1.024   1.034   1.054   1.077
 58 A    59 B    59 A    60 A    61 A    60 B    61 B    62 A                  
  1.094   1.101   1.115   1.121   1.152   1.164   1.176   1.185
 62 B    63 A    63 B    64 A    64 B    65 B    65 A    66 A                  
  1.191   1.196   1.221   1.223   1.227   1.238   1.279   1.293
 67 A    66 B    67 B    68 A    68 B    69 A    69 B    70 B                  
  1.293   1.317   1.318   1.374   1.388   1.405   1.414   1.427
 70 A    71 B    71 A    72 A    72 B    73 B    73 A    74 B                  
  1.429   1.462   1.472   1.489   1.490   1.516   1.518   1.544
 74 A    75 B    75 A    76 A    76 B    77 B    77 A    78 B                  
  1.546   1.557   1.570   1.582   1.589   1.612   1.638   1.651
 78 A    79 A    79 B    80 A    80 B    81 A    81 B    82 A                  
  1.669   1.678   1.701   1.730   1.738   1.756   1.782   1.811
 83 A    82 B    83 B    84 A    84 B    85 B    85 A    86 B                  
  1.845   1.879   1.879   1.893   1.919   1.920   1.934   1.951
 86 A    87 A    87 B    88 B    88 A    89 B    89 A    90 A                  
  1.962   1.988   2.026   2.058   2.079   2.109   2.117   2.168
 90 B    91 A    91 B    92 B    92 A    93 B    93 A    94 B                  
  2.184   2.185   2.190   2.203   2.220   2.230   2.257   2.271
 95 B    94 A    95 A    96 A    96 B    97 A    97 B    98 A                  
  2.286   2.310   2.312   2.398   2.430   2.433   2.469   2.474
 98 B    99 B    99 A   100 A   100 B   101 A   102 A   101 B                  
  2.488   2.497   2.509   2.523   2.557   2.557   2.571   2.612
102 B   103 A   103 B   104 A   104 B   105 A   105 B   106 A                  
  2.614   2.632   2.660   2.690   2.721   2.750   2.756   2.759
106 B   107 B   107 A   108 A   108 B   109 A   109 B   110 A                  
  2.763   2.776   2.783   2.809   2.820   2.872   2.884   2.900
110 B   111 B   111 A   112 B   112 A   113 A   114 A   113 B                  
  2.909   2.921   2.949   2.971   2.997   3.011   3.016   3.023
114 B   115 A   115 B   116 A   116 B   117 A   118 A   119 A                  
  3.025   3.032   3.082   3.139   3.148   3.160   3.186   3.201
117 B   118 B   119 B   120 B   120 A   121 A   121 B   122 A                  
  3.204   3.225   3.237   3.242   3.251   3.270   3.284   3.289
122 B   123 B   124 B   123 A   124 A   125 B   125 A   126 A                  
  3.298   3.324   3.330   3.339   3.355   3.366   3.384   3.386
126 B   127 A   127 B   128 A   128 B   129 A   129 B   130 B                  
  3.400   3.406   3.429   3.433   3.441   3.461   3.477   3.480
130 A   131 A   131 B   132 A   133 A   134 A   135 A   132 B                  
  3.484   3.489   3.499   3.508   3.515   3.516   3.522   3.536
133 B   134 B   136 A   135 B   137 A   138 A   136 B   137 B                  
  3.554   3.585   3.599   3.601   3.610   3.632   3.656   3.660
138 B   139 A   139 B   140 A   140 B   141 A   141 B   142 A                  
  3.675   3.695   3.714   3.733   3.742   3.757   3.766   3.787
142 B   143 A   143 B   144 A   145 A   144 B   146 A   145 B                  
  3.790   3.832   3.871   3.893   3.907   3.915   3.929   3.942
147 A   146 B   147 B   148 A   148 B   149 A   149 B   150 A                  
  3.953   3.983   3.997   4.008   4.021   4.033   4.036   4.040
150 B   151 A   151 B   152 A   152 B   153 A   153 B   154 A                  
  4.087   4.115   4.130   4.134   4.172   4.179   4.184   4.184
154 B   155 B   155 A   156 A   156 B   157 A   158 A   157 B                  
  4.209   4.219   4.239   4.258   4.259   4.270   4.291   4.340
159 A   158 B   159 B   160 A   160 B   161 B   161 A   162 B                  
  4.341   4.381   4.403   4.432   4.472   4.479   4.502   4.507
162 A   163 A   163 B   164 A   164 B   165 A   165 B   166 A                  
  4.537   4.558   4.603   4.604   4.641   4.688   4.690   4.696
167 A   166 B   167 B   168 A   169 A   168 B   170 A   169 B                  
  4.696   4.728   4.753   4.774   4.794   4.806   4.845   4.854
171 A   170 B   171 B   172 B   172 A   173 A   173 B   174 A                  
  4.925   4.929   4.997   5.009   5.038   5.062   5.076   5.082
174 B   175 A   175 B   176 A   176 B   177 A   178 A   179 A                  
  5.095   5.107   5.193   5.219   5.251   5.291   5.317   5.379
177 B   178 B   179 B   180 A   180 B   181 A   181 B   182 A                  
  5.393   5.409   5.416   5.467   5.585   5.592   5.653   5.672
182 B   183 A   183 B   184 A   184 B   185 A   185 B   186 A                  
  5.834   5.840   5.986   6.014   6.113   6.128   6.183   6.192
186 B   187 A   187 B   188 A   188 B   189 A   190 A   189 B                  
  6.245   6.552   6.562   6.688   6.774   9.527  10.718  11.841
190 B   191 A   191 B   192 A   192 B   193 A   193 B   194 A                  
 12.195  13.470  13.613  14.544  14.750
194 B   195 A   195 B   196 A   196 B                                          
 --------------------------------------------------------------
 
          Ground-State Mulliken Net Atomic Charges

     Atom                 Charge (a.u.)
  ----------------------------------------
      1 S                     0.124005
      2 C                    -0.238012
      3 C                    -0.191484
      4 C                    -0.194993
      5 C                    -0.034477
      6 H                     0.176329
      7 C                    -0.034477
      8 S                     0.124005
      9 C                    -0.194993
     10 C                    -0.238012
     11 C                    -0.191484
     12 H                     0.174316
     13 H                     0.184316
     14 H                     0.174316
     15 H                     0.184316
     16 H                     0.176329
  ----------------------------------------
  Sum of atomic charges =     0.000000

 -----------------------------------------------------------------
                    Cartesian Multipole Moments
 -----------------------------------------------------------------
    Charge (ESU x 10^10)
                -0.0000
    Dipole Moment (Debye)
         X       0.0000      Y       0.0000      Z      -0.6096
       Tot       0.6096
    Quadrupole Moments (Debye-Ang)
        XX     -61.2876     XY       0.8418     YY     -75.4655
        XZ      -0.0000     YZ       0.0000     ZZ     -69.9627
    Octopole Moments (Debye-Ang^2)
       XXX      -0.0000    XXY       0.0000    XYY      -0.0000
       YYY       0.0000    XXZ       6.4727    XYZ     -11.4162
       YYZ      -0.5421    XZZ      -0.0000    YZZ       0.0000
       ZZZ      -2.0196
    Hexadecapole Moments (Debye-Ang^3)
      XXXX   -1829.1360   XXXY       2.6141   XXYY    -403.0434
      XYYY      -3.9270   YYYY    -220.2603   XXXZ      -0.0000
      XXYZ       0.0000   XYYZ      -0.0000   YYYZ       0.0000
      XXZZ    -399.1410   XYZZ       9.5309   YYZZ    -105.6834
      XZZZ      -0.0000   YZZZ       0.0000   ZZZZ    -449.8539
 -----------------------------------------------------------------
 DrvMan is completing analytic gradient of the MP2 energy
 MP2 relaxed dipole moment
            1
    1   0.0000000
    2   0.0000000
    3  -0.2398431
	Magnitude:	 0.240 au	 0.610 Debye
 MP2 energy read as -1103.412281
 Full Analytical Gradient of MP2 Energy (in au.)
             1             2             3             4             5
    1    0.00016678   -0.00014661   -0.00006654   -0.00013033    0.00097668
    2   -0.00047360    0.00001120   -0.00038723    0.00200320   -0.00253000
    3    0.00001183    0.00012469   -0.00027178    0.00138505   -0.00114395
             6             7             8             9            10
    1    0.00003417   -0.00097668   -0.00016678    0.00013033    0.00014661
    2   -0.00029226    0.00253000    0.00047360   -0.00200320   -0.00001120
    3   -0.00016200   -0.00114395    0.00001183    0.00138505    0.00012469
            11            12            13            14            15
    1    0.00006654    0.00002390   -0.00003074   -0.00002390    0.00003074
    2    0.00038723   -0.00015589    0.00005833    0.00015589   -0.00005833
    3   -0.00027178    0.00001404    0.00004211    0.00001404    0.00004211
            16
    1   -0.00003417
    2    0.00029226
    3   -0.00016200
 Gradient time:  CPU 1.52 s  wall 0.10 s
 Geometry Optimization Parameters
   NAtoms,    NIC,     NZ,  NCons,   NDum,   NFix, NCnnct, MaxDiis
       16     111       0       1       0       0       0       0

 Cartesian Hessian Update
 Hessian Updated using BFGS Update


** CONSTRAINED OPTIMIZATION IN DELOCALIZED INTERNAL COORDINATES **
   Searching for a Minimum

   Optimization Cycle:   3

                       Coordinates (Angstroms)
     ATOM                X               Y               Z
      1  S         1.6508984732   -0.6235179499    0.9903311737
      2  C         3.1191097673   -0.1270318903    0.2805274117
      3  C         2.9070038729    0.5213618816   -0.9116480099
      4  C         1.5440492269    0.6242668444   -1.2336464761
      5  C         0.7215570494    0.0384829661   -0.2963495502
      6  H         1.1557070286    1.1075213216   -2.1119455951
      7  C        -0.7215570494   -0.0384829661   -0.2963495502
      8  S        -1.6508984732    0.6235179499    0.9903311737
      9  C        -1.5440492269   -0.6242668444   -1.2336464761
[...]
         Gradient           0.000056      0.000300     YES
         Displacement       0.001908      0.001200      NO
         Energy change     -0.000000      0.000001     YES

 Final energy is   -1103.41230116549     


 ******************************
 **  OPTIMIZATION CONVERGED  **
 ******************************

                       Coordinates (Angstroms)
     ATOM                X               Y               Z
      1  S         1.6483502491   -0.6124992153    0.9958582205
      2  C         3.1179274731   -0.1207194426    0.2848972696
      3  C         2.9074295343    0.5188739784   -0.9121812778
      4  C         1.5450896219    0.6160331161   -1.2386423674
      5  C         0.7211178115    0.0341555407   -0.2994508287
      6  H         1.1572806092    1.1000239808   -2.1167880979
      7  C        -0.7211178115   -0.0341555407   -0.2994508287
      8  S        -1.6483502491    0.6124992153    0.9958582205
      9  C        -1.5450896219   -0.6160331161   -1.2386423674
     10  C        -3.1179274731    0.1207194426    0.2848972696
     11  C        -2.9074295343   -0.5188739784   -0.9121812778
     12  H        -3.7058024228   -0.9082147465   -1.5165451017
     13  H         4.0508298643   -0.3231992740    0.7722982763
     14  H         3.7058024228    0.9082147465   -1.5165451017
     15  H        -4.0508298643    0.3231992740    0.7722982763
     16  H        -1.1572806092   -1.1000239808   -2.1167880979

Z-matrix Print:
$molecule
0 1
S 
C  1 1.704984
H  2 1.071851 1 120.403726
C  2 1.373458 1 111.448145 3 -179.917262 0
H  4 1.074356 2 123.035886 1 -179.836233 0
C  4 1.404274 2 112.552282 1 -0.554057 0
H  6 1.075073 4 124.819738 2 -178.370297 0
C  6 1.378257 4 113.101167 2 0.852367 0
C  8 1.443852 6 128.107651 4 -178.963602 0
C  9 1.378257 8 128.107651 6 -60.000000 0
H  10 1.075073 9 122.074396 8 0.283288 0
C  10 1.404274 9 113.101167 8 -178.963602 0
H  12 1.074356 10 124.407612 9 -179.877022 0
C  12 1.373458 10 112.552282 9 0.852367 0
H  14 1.071851 12 128.148068 10 179.536684 0
S  14 1.704984 12 111.448145 10 -0.554057 0
$end

 
 --------------------------------------------------------------
             Orbital Energies (a.u.) and Symmetries
 --------------------------------------------------------------
 
 Alpha MOs, Restricted
 -- Occupied --                  
-91.984 -91.984 -11.273 -11.272 -11.261 -11.261 -11.238 -11.238
  1 B     1 A     2 A     2 B     3 B     3 A     4 B     4 A                  
-11.236 -11.236  -8.986  -8.986  -6.667  -6.667  -6.666  -6.666
  5 B     5 A     6 B     6 A     7 B     7 A     8 A     8 B                  
 -6.665  -6.665  -1.195  -1.166  -1.034  -0.996  -0.987  -0.948
  9 B     9 A    10 A    10 B    11 A    12 A    11 B    12 B                  
 -0.807  -0.771  -0.755  -0.718  -0.704  -0.645  -0.571  -0.568
 13 A    14 A    13 B    14 B    15 A    15 B    16 A    17 A                  
 -0.565  -0.553  -0.538  -0.512  -0.512  -0.481  -0.472  -0.353
 16 B    17 B    18 A    19 A    18 B    20 A    19 B    21 A                  
 -0.351  -0.346  -0.297
 20 B    21 B    22 A                                                          
 -- Virtual --                   
  0.091   0.127   0.150   0.152   0.162   0.174   0.179   0.194
 22 B    23 A    24 A    23 B    25 A    24 B    26 A    25 B                  
  0.197   0.202   0.203   0.230   0.238   0.255   0.314   0.340
 27 A    28 A    26 B    27 B    29 A    28 B    30 A    29 B                  
  0.344   0.357   0.366   0.380   0.385   0.399   0.418   0.428
 30 B    31 A    32 A    31 B    33 A    32 B    33 B    34 A                  
  0.445   0.454   0.456   0.466   0.475   0.481   0.493   0.506
 35 A    36 A    34 B    35 B    37 A    36 B    37 B    38 A                  
  0.520   0.526   0.533   0.542   0.549   0.553   0.565   0.570
 39 A    38 B    40 A    39 B    40 B    41 A    42 A    41 B                  
  0.585   0.588   0.597   0.603   0.610   0.611   0.618   0.623
 42 B    43 A    43 B    44 A    44 B    45 A    46 A    45 B                  
  0.626   0.635   0.662   0.666   0.681   0.686   0.715   0.732
 47 A    46 B    48 A    47 B    48 B    49 A    50 A    49 B                  
  0.742   0.748   0.782   0.789   0.800   0.810   0.847   0.850
 51 A    50 B    51 B    52 A    52 B    53 A    53 B    54 A                  
  0.866   0.874   0.883   0.893   0.903   0.923   0.942   0.948
 55 A    54 B    55 B    56 A    56 B    57 A    57 B    58 B                  
  0.955   0.991   0.998   1.017   1.023   1.034   1.055   1.077
 58 A    59 B    59 A    60 A    61 A    60 B    61 B    62 A                  
  1.094   1.101   1.115   1.121   1.150   1.164   1.176   1.185
 62 B    63 A    63 B    64 A    64 B    65 B    65 A    66 A                  
  1.190   1.195   1.220   1.222   1.228   1.239   1.279   1.292
 67 A    66 B    67 B    68 A    68 B    69 A    69 B    70 B                  
  1.293   1.317   1.319   1.374   1.388   1.406   1.414   1.428
 70 A    71 B    71 A    72 A    72 B    73 B    73 A    74 B                  
  1.428   1.462   1.472   1.489   1.491   1.517   1.518   1.544
 74 A    75 B    75 A    76 A    76 B    77 B    77 A    78 B                  
  1.546   1.556   1.570   1.581   1.590   1.611   1.638   1.652
 78 A    79 A    79 B    80 A    80 B    81 A    81 B    82 A                  
  1.669   1.678   1.701   1.728   1.738   1.759   1.781   1.811
 83 A    82 B    83 B    84 A    84 B    85 B    85 A    86 B                  
  1.846   1.876   1.880   1.892   1.917   1.921   1.937   1.951
 86 A    87 A    87 B    88 B    88 A    89 B    89 A    90 A                  
  1.962   1.986   2.028   2.060   2.079   2.107   2.117   2.169
 90 B    91 A    91 B    92 B    92 A    93 B    93 A    94 B                  
  2.183   2.185   2.191   2.203   2.222   2.230   2.257   2.271
 95 B    94 A    95 A    96 A    96 B    97 A    97 B    98 A                  
  2.285   2.310   2.312   2.400   2.431   2.434   2.471   2.473
 98 B    99 B    99 A   100 A   100 B   101 A   102 A   101 B                  
  2.485   2.497   2.509   2.522   2.557   2.558   2.570   2.611
102 B   103 A   103 B   104 A   105 A   104 B   105 B   106 A                  
  2.614   2.631   2.660   2.691   2.721   2.750   2.758   2.759
106 B   107 B   107 A   108 A   108 B   109 A   109 B   110 A                  
  2.763   2.776   2.782   2.809   2.820   2.872   2.884   2.901
110 B   111 B   111 A   112 B   112 A   113 A   114 A   113 B                  
  2.907   2.921   2.951   2.972   2.996   3.009   3.016   3.023
114 B   115 A   115 B   116 A   116 B   117 A   118 A   119 A                  
  3.024   3.033   3.082   3.139   3.148   3.160   3.186   3.201
117 B   118 B   119 B   120 B   120 A   121 A   121 B   122 A                  
  3.205   3.226   3.238   3.243   3.250   3.269   3.282   3.291
122 B   123 B   124 B   123 A   124 A   125 B   125 A   126 A                  
  3.297   3.323   3.330   3.338   3.354   3.368   3.384   3.387
126 B   127 A   127 B   128 A   128 B   129 A   129 B   130 B                  
  3.398   3.407   3.430   3.432   3.440   3.461   3.478   3.480
130 A   131 A   131 B   132 A   133 A   134 A   135 A   132 B                  
  3.483   3.489   3.499   3.508   3.515   3.516   3.522   3.536
133 B   134 B   136 A   135 B   137 A   138 A   136 B   137 B                  
  3.553   3.586   3.600   3.602   3.610   3.633   3.655   3.658
138 B   139 A   139 B   140 A   140 B   141 A   141 B   142 A                  
  3.674   3.695   3.714   3.733   3.742   3.757   3.767   3.788
142 B   143 A   143 B   144 A   145 A   144 B   146 A   145 B                  
  3.789   3.832   3.869   3.893   3.906   3.915   3.929   3.943
147 A   146 B   147 B   148 A   148 B   149 A   149 B   150 A                  
  3.952   3.982   3.998   4.007   4.022   4.034   4.036   4.040
150 B   151 A   151 B   152 A   152 B   153 A   153 B   154 A                  
  4.087   4.117   4.130   4.133   4.174   4.179   4.183   4.183
154 B   155 B   155 A   156 A   156 B   157 A   158 A   157 B                  
  4.209   4.219   4.238   4.258   4.260   4.270   4.293   4.341
159 A   158 B   159 B   160 A   160 B   161 B   161 A   162 B                  
  4.341   4.381   4.404   4.432   4.472   4.478   4.503   4.506
162 A   163 A   163 B   164 A   164 B   165 A   165 B   166 A                  
  4.538   4.558   4.603   4.604   4.641   4.687   4.691   4.696
167 A   166 B   168 A   167 B   169 A   168 B   170 A   169 B                  
  4.697   4.728   4.753   4.777   4.793   4.806   4.845   4.853
171 A   170 B   171 B   172 B   172 A   173 A   173 B   174 A                  
  4.927   4.930   4.996   5.008   5.039   5.063   5.075   5.081
174 B   175 A   175 B   176 A   176 B   177 A   178 A   179 A                  
  5.096   5.107   5.192   5.219   5.252   5.291   5.318   5.379
177 B   178 B   179 B   180 A   180 B   181 A   181 B   182 A                  
  5.392   5.409   5.416   5.466   5.586   5.592   5.651   5.673
182 B   183 A   183 B   184 A   184 B   185 A   185 B   186 A                  
  5.835   5.839   5.987   6.014   6.114   6.128   6.182   6.192
186 B   187 A   187 B   188 A   188 B   189 A   190 A   189 B                  
  6.249   6.552   6.563   6.688   6.771   9.525  10.728  11.837
190 B   191 A   191 B   192 A   192 B   193 A   193 B   194 A                  
 12.205  13.467  13.614  14.541  14.749
194 B   195 A   195 B   196 A   196 B                                          
 
 Beta MOs, Restricted
 -- Occupied --                  
-91.984 -91.984 -11.273 -11.272 -11.261 -11.261 -11.238 -11.238
  1 B     1 A     2 A     2 B     3 B     3 A     4 B     4 A                  
-11.236 -11.236  -8.986  -8.986  -6.667  -6.667  -6.666  -6.666
  5 B     5 A     6 B     6 A     7 B     7 A     8 A     8 B                  
 -6.665  -6.665  -1.195  -1.166  -1.034  -0.996  -0.987  -0.948
  9 B     9 A    10 A    10 B    11 A    12 A    11 B    12 B                  
 -0.807  -0.771  -0.755  -0.718  -0.704  -0.645  -0.571  -0.568
 13 A    14 A    13 B    14 B    15 A    15 B    16 A    17 A                  
 -0.565  -0.553  -0.538  -0.512  -0.512  -0.481  -0.472  -0.353
 16 B    17 B    18 A    19 A    18 B    20 A    19 B    21 A                  
 -0.351  -0.346  -0.297
 20 B    21 B    22 A                                                          
 -- Virtual --                   
  0.091   0.127   0.150   0.152   0.162   0.174   0.179   0.194
 22 B    23 A    24 A    23 B    25 A    24 B    26 A    25 B                  
  0.197   0.202   0.203   0.230   0.238   0.255   0.314   0.340
 27 A    28 A    26 B    27 B    29 A    28 B    30 A    29 B                  
  0.344   0.357   0.366   0.380   0.385   0.399   0.418   0.428
 30 B    31 A    32 A    31 B    33 A    32 B    33 B    34 A                  
  0.445   0.454   0.456   0.466   0.475   0.481   0.493   0.506
 35 A    36 A    34 B    35 B    37 A    36 B    37 B    38 A                  
  0.520   0.526   0.533   0.542   0.549   0.553   0.565   0.570
 39 A    38 B    40 A    39 B    40 B    41 A    42 A    41 B                  
  0.585   0.588   0.597   0.603   0.610   0.611   0.618   0.623
 42 B    43 A    43 B    44 A    44 B    45 A    46 A    45 B                  
  0.626   0.635   0.662   0.666   0.681   0.686   0.715   0.732
 47 A    46 B    48 A    47 B    48 B    49 A    50 A    49 B                  
  0.742   0.748   0.782   0.789   0.800   0.810   0.847   0.850
 51 A    50 B    51 B    52 A    52 B    53 A    53 B    54 A                  
  0.866   0.874   0.883   0.893   0.903   0.923   0.942   0.948
 55 A    54 B    55 B    56 A    56 B    57 A    57 B    58 B                  
  0.955   0.991   0.998   1.017   1.023   1.034   1.055   1.077
 58 A    59 B    59 A    60 A    61 A    60 B    61 B    62 A                  
  1.094   1.101   1.115   1.121   1.150   1.164   1.176   1.185
 62 B    63 A    63 B    64 A    64 B    65 B    65 A    66 A                  
  1.190   1.195   1.220   1.222   1.228   1.239   1.279   1.292
 67 A    66 B    67 B    68 A    68 B    69 A    69 B    70 B                  
  1.293   1.317   1.319   1.374   1.388   1.406   1.414   1.428
 70 A    71 B    71 A    72 A    72 B    73 B    73 A    74 B                  
  1.428   1.462   1.472   1.489   1.491   1.517   1.518   1.544
 74 A    75 B    75 A    76 A    76 B    77 B    77 A    78 B                  
  1.546   1.556   1.570   1.581   1.590   1.611   1.638   1.652
 78 A    79 A    79 B    80 A    80 B    81 A    81 B    82 A                  
  1.669   1.678   1.701   1.728   1.738   1.759   1.781   1.811
 83 A    82 B    83 B    84 A    84 B    85 B    85 A    86 B                  
  1.846   1.876   1.880   1.892   1.917   1.921   1.937   1.951
 86 A    87 A    87 B    88 B    88 A    89 B    89 A    90 A                  
  1.962   1.986   2.028   2.060   2.079   2.107   2.117   2.169
 90 B    91 A    91 B    92 B    92 A    93 B    93 A    94 B                  
  2.183   2.185   2.191   2.203   2.222   2.230   2.257   2.271
 95 B    94 A    95 A    96 A    96 B    97 A    97 B    98 A                  
  2.285   2.310   2.312   2.400   2.431   2.434   2.471   2.473
 98 B    99 B    99 A   100 A   100 B   101 A   102 A   101 B                  
  2.485   2.497   2.509   2.522   2.557   2.558   2.570   2.611
102 B   103 A   103 B   104 A   105 A   104 B   105 B   106 A                  
  2.614   2.631   2.660   2.691   2.721   2.750   2.758   2.759
106 B   107 B   107 A   108 A   108 B   109 A   109 B   110 A                  
  2.763   2.776   2.782   2.809   2.820   2.872   2.884   2.901
110 B   111 B   111 A   112 B   112 A   113 A   114 A   113 B                  
  2.907   2.921   2.951   2.972   2.996   3.009   3.016   3.023
114 B   115 A   115 B   116 A   116 B   117 A   118 A   119 A                  
  3.024   3.033   3.082   3.139   3.148   3.160   3.186   3.201
117 B   118 B   119 B   120 B   120 A   121 A   121 B   122 A                  
  3.205   3.226   3.238   3.243   3.250   3.269   3.282   3.291
122 B   123 B   124 B   123 A   124 A   125 B   125 A   126 A                  
  3.297   3.323   3.330   3.338   3.354   3.368   3.384   3.387
126 B   127 A   127 B   128 A   128 B   129 A   129 B   130 B                  
  3.398   3.407   3.430   3.432   3.440   3.461   3.478   3.480
130 A   131 A   131 B   132 A   133 A   134 A   135 A   132 B                  
  3.483   3.489   3.499   3.508   3.515   3.516   3.522   3.536
133 B   134 B   136 A   135 B   137 A   138 A   136 B   137 B                  
  3.553   3.586   3.600   3.602   3.610   3.633   3.655   3.658
138 B   139 A   139 B   140 A   140 B   141 A   141 B   142 A                  
  3.674   3.695   3.714   3.733   3.742   3.757   3.767   3.788
142 B   143 A   143 B   144 A   145 A   144 B   146 A   145 B                  
  3.789   3.832   3.869   3.893   3.906   3.915   3.929   3.943
147 A   146 B   147 B   148 A   148 B   149 A   149 B   150 A                  
  3.952   3.982   3.998   4.007   4.022   4.034   4.036   4.040
150 B   151 A   151 B   152 A   152 B   153 A   153 B   154 A                  
  4.087   4.117   4.130   4.133   4.174   4.179   4.183   4.183
154 B   155 B   155 A   156 A   156 B   157 A   158 A   157 B                  
  4.209   4.219   4.238   4.258   4.260   4.270   4.293   4.341
159 A   158 B   159 B   160 A   160 B   161 B   161 A   162 B                  
  4.341   4.381   4.404   4.432   4.472   4.478   4.503   4.506
162 A   163 A   163 B   164 A   164 B   165 A   165 B   166 A                  
  4.538   4.558   4.603   4.604   4.641   4.687   4.691   4.696
167 A   166 B   168 A   167 B   169 A   168 B   170 A   169 B                  
  4.697   4.728   4.753   4.777   4.793   4.806   4.845   4.853
171 A   170 B   171 B   172 B   172 A   173 A   173 B   174 A                  
  4.927   4.930   4.996   5.008   5.039   5.063   5.075   5.081
174 B   175 A   175 B   176 A   176 B   177 A   178 A   179 A                  
  5.096   5.107   5.192   5.219   5.252   5.291   5.318   5.379
177 B   178 B   179 B   180 A   180 B   181 A   181 B   182 A                  
  5.392   5.409   5.416   5.466   5.586   5.592   5.651   5.673
182 B   183 A   183 B   184 A   184 B   185 A   185 B   186 A                  
  5.835   5.839   5.987   6.014   6.114   6.128   6.182   6.192
186 B   187 A   187 B   188 A   188 B   189 A   190 A   189 B                  
  6.249   6.552   6.563   6.688   6.771   9.525  10.728  11.837
190 B   191 A   191 B   192 A   192 B   193 A   193 B   194 A                  
 12.205  13.467  13.614  14.541  14.749
194 B   195 A   195 B   196 A   196 B                                          
 --------------------------------------------------------------
 
          Ground-State Mulliken Net Atomic Charges

     Atom                 Charge (a.u.)
  ----------------------------------------
      1 S                     0.123277
      2 C                    -0.237697
      3 C                    -0.191828
      4 C                    -0.195387
      5 C                    -0.033287
      6 H                     0.176237
      7 C                    -0.033287
      8 S                     0.123277
      9 C                    -0.195387
     10 C                    -0.237697
     11 C                    -0.191828
     12 H                     0.174348
     13 H                     0.184336
     14 H                     0.174348
     15 H                     0.184336
     16 H                     0.176237
  ----------------------------------------
  Sum of atomic charges =     0.000000

 -----------------------------------------------------------------
                    Cartesian Multipole Moments
 -----------------------------------------------------------------
    Charge (ESU x 10^10)
                -0.0000
    Dipole Moment (Debye)
         X      -0.0000      Y      -0.0000      Z      -0.6021
       Tot       0.6021
    Quadrupole Moments (Debye-Ang)
        XX     -61.2748     XY       0.8554     YY     -75.5168
        XZ       0.0000     YZ      -0.0000     ZZ     -69.9244
    Octopole Moments (Debye-Ang^2)
       XXX      -0.0000    XXY      -0.0000    XYY      -0.0000
       YYY      -0.0000    XXZ       6.4006    XYZ     -11.3115
       YYZ      -0.6273    XZZ      -0.0000    YZZ      -0.0000
       ZZZ      -2.2703
    Hexadecapole Moments (Debye-Ang^3)
      XXXX   -1827.5725   XXXY       1.4404   XXYY    -402.8555
      XYYY      -5.4230   YYYY    -216.8659   XXXZ      -0.0000
      XXYZ       0.0000   XYYZ       0.0000   YYYZ      -0.0000
      XXZZ    -398.7956   XYZZ       9.0463   YYZZ    -105.8428
      XZZZ       0.0000   YZZZ      -0.0000   ZZZZ    -452.7834
 -----------------------------------------------------------------
Archival summary:
1\1\nid01251\OPT\MP2\BasisUnspecified\286\MonMar616:55:422017MonMar616:55:422017\0\\#,OPT,MP2,BasisUnspecified,\\0,1\S\C,1,1.70498\H,2,1.07185,1,120.404\C,2,1.37346,1,111.448,3,-179.917,0\H,4,1.07436,2,123.036,1,-179.836,0\C,4,1.40427,2,112.552,1,-0.554057,0\H,6,1.07507,4,124.82,2,-178.37,0\C,6,1.37826,4,113.101,2,0.852367,0\C,8,1.44385,6,128.108,4,-178.964,0\C,9,1.37826,8,128.108,6,-60,0\H,10,1.07507,9,122.074,8,0.283288,0\C,10,1.40427,9,113.101,8,-178.964,0\H,12,1.07436,10,124.408,9,-179.877,0\C,12,1.37346,10,112.552,9,0.852367,0\H,14,1.07185,12,128.148,10,179.537,0\S,14,1.70498,12,111.448,10,-0.554057,0\\HF=-1101.59759\MP2=-1103.4123\\@

 Total job time:  10522.34s(wall), 53884.17s(cpu) 
 Mon Mar  6 16:55:42 2017

        *************************************************************
        *                                                           *
        *  Thank you very much for using Q-Chem.  Have a nice day.  *
        *                                                           *
        *************************************************************


0 sent ACK to 0 
now end server 0 ... 
