srun -N 1 --ntasks-per-node 1 --cpus-per-task 64 --cpu_bind=cores --nodelist nid01261 /global/project/projectdirs/jcesr/qchem/qc44/cnl_qc441/dist/exe/qcprog.cori.haswell.exe .pt_mp2_100.0.in.29233.qcin.1 /dev/shm/eg_qchem/qchem29233/
Process 0 of 1 is on nid01261 - thread support 0
initial socket setup ...start
initial socket setup ...done 
now start server 0 ... 
nid01261 10.128.4
Q-Chem Developer Version! Running on 10.128.4.*
                  Welcome to Q-Chem
     A Quantum Leap Into The Future Of Chemistry


 Q-Chem 4.4, Q-Chem, Inc., Pleasanton, CA (2016)

 Y. Shao,  Z. Gan,  E. Epifanovsky,  A. T. B. Gilbert,  M. Wormit,  
 J. Kussmann,  A. W. Lange,  A. Behn,  J. Deng,  X. Feng,  D. Ghosh,  
 M. Goldey,  P. R. Horn,  L. D. Jacobson,  I. Kaliman,  F.Rob,  
 R. Z. Khaliullin,  T. Kus,  A. Landau,  J. Liu,  E. I. Proynov,  Y. M. Rhee,  
 R. M. Richard,  M. A. Rohrdanz,  R. P. Steele,  E. J. Sundstrom,  
 H. L. Woodcock III,  P. M. Zimmerman,  D. Zuev,  B. Albrecht,  E. Alguire,  
 B. Austin,  S. A. Baeppler,  G. J. O. Beran,  Y. A. Bernard,  E. Berquist,  
 K. Brandhorst,  K. B. Bravaya,  S. T. Brown,  D. Casanova,  C.-M. Chang,  
 Y. Chen,  S. H. Chien,  K. D. Closser,  M. P. Coons,  D. L. Crittenden,  
 S. Dasgupta,  M. Diedenhofen,  R. A. DiStasio Jr.,  H. Do,  A. D. Dutoi,  
 R. G. Edgar,  P.-T. Fang,  S. Fatehi,  Q. Feng,  L. Fusti-Molnar,  
 A. Ghysels,  A. Golubeva-Zadorozhnaya,  J. Gomes,  A. Gunina,  
 M. W. D. Hanson-Heine,  P. H. P. Harbach,  A. W. Hauser,  E. G. Hohenstein,  
 Z. C. Holden,  K. Hui,  T.-C. Jagau,  H. Ji,  B. Kaduk,  K. Khistyaev,  
 Jaehoon Kim,  Jihan Kim,  R. A. King,  P. Klunzinger,  D. Kosenkov,  
 T. Kowalczyk,  C. M. Krauter,  A. Kunitsa,  K. U. Lao,  A. Laurent,  
 K. V. Lawler,  D. Lefrancois,  S. Lehtola,  S. V. Levchenko,  C. Y. Lin,  
 Y.-S. Lin,  F. Liu,  E. Livshits,  R. C. Lochan,  A. Luenser,  P. Manohar,  
 S. F. Manzer,  S.-P. Mao,  Y. Mao,  N. Mardirossian,  A. V. Marenich,  
 L. A. Martinez-Martinez,  S. A. Maurer,  N. J. Mayhall,  J.-M. Mewes,  
 A. F. Morrison,  K. Nanda,  C. M. Oana,  R. Olivares-Amaya,  D. P. O'Neill,  
 J. A. Parkhill,  T. M. Perrine,  R. Peverati,  P. A. Pieniazek,  F. Plasser,  
 A. Prociuk,  D. R. Rehn,  E. Rosta,  N. J. Russ,  N. Sergueev,  
 S. M. Sharada,  S. Sharma,  D. W. Small,  A. Sodt,  T. Stauch,  T. Stein,  
 D. Stuck,  Y.-C. Su,  A. J. W. Thom,  T. Tsuchimochi,  L. Vogt,  O. Vydrov,  
 T. Wang,  M. A. Watson,  J. Wenzel,  A. White,  C. F. Williams,  
 V. Vanovschi,  S. Yeganeh,  S. R. Yost,  Z.-Q. You,  I. Y. Zhang,  X. Zhang,  
 Y. Zhao,  B. R. Brooks,  G. K. L. Chan,  D. M. Chipman,  C. J. Cramer,  
 W. A. Goddard III,  M. S. Gordon,  W. J. Hehre,  A. Klamt,  
 H. F. Schaefer III,  M. W. Schmidt,  C. D. Sherrill,  D. G. Truhlar,  
 A. Warshel,  X. Xu,  A. Aspuru-Guzik,  R. Baer,  A. T. Bell,  N. A. Besley,  
 J.-D. Chai,  A. Dreuw,  B. D. Dunietz,  T. R. Furlani,  S. R. Gwaltney,  
 C.-P. Hsu,  Y. Jung,  J. Kong,  D. S. Lambrecht,  W. Liang,  C. Ochsenfeld,  
 V. A. Rassolov,  L. V. Slipchenko,  J. E. Subotnik,  T. Van Voorhis,  
 J. M. Herbert,  A. I. Krylov,  P. M. W. Gill,  M. Head-Gordon

 Contributors to earlier versions of Q-Chem not listed above: 
 R. D. Adamson,  J. Baker,  E. F. C. Byrd,  A. K. Chakraborty,  C.-L. Cheng,  
 H. Dachsel,  R. J. Doerksen,  G. Hawkins,  A. Heyden,  S. Hirata,  
 G. Kedziora,  F. J. Keil,  C. Kelley,  P. P. Korambath,  W. Kurlancheek,  
 A. M. Lee,  M. S. Lee,  D. Liotard,  I. Lotan,  P. E. Maslen,  N. Nair,  
 D. Neuhauser,  R. Olson,  B. Peters,  J. Ritchie,  N. E. Schultz,  
 N. Shenvi,  A. C. Simmonett,  K. S. Thanthiriwatte,  Q. Wu,  W. Zhang

 Please cite Q-Chem as follows:
 Y. Shao et al., Mol. Phys. 113, 184-215 (2015)
 DOI: 10.1080/00268976.2014.952696

 Q-Chem 4.4.1 for Intel X86 EM64T Linux

 Parts of Q-Chem use Armadillo 5.200.1 (Boston Tea Smuggler).
 http://arma.sourceforge.net/

 Q-Chem begins on Mon Mar  6 14:00:20 2017  

Host: nid01196
0

     Scratch files written to /dev/shm/eg_qchem/qchem29233//
 Parallel job on  1  processors

Checking the input file for inconsistencies... 	...done.

--------------------------------------------------------------
User input:
--------------------------------------------------------------
$molecule
 0  1
 S           1.80900300       -1.15938900        0.25896800
 C           3.16466000       -0.14246800        0.05606700
 C           2.78757500        1.14089100       -0.25226100
 C           1.39402000        1.28822000       -0.33563400
 C           0.70898100        0.11689900       -0.08798100
 H           0.89277600        2.20524100       -0.58940400
 C          -0.70898100       -0.11689900       -0.08798100
 S          -1.66953285        0.31351620        1.27268647
 C          -1.49473006       -0.67742334       -1.07338153
 C          -3.10293674       -0.23187753        0.52368579
 C          -2.85303653       -0.74387325       -0.72518563
 H          -3.62300088       -1.14041833       -1.36085015
 H           4.15569300       -0.53353100        0.17259300
 H           3.49202900        1.93475000       -0.41867900
 H          -4.04293323       -0.15034598        1.03203036
 H          -1.09120044       -1.00181617       -2.01598718
$end


$rem
         jobtype = opt
        exchange = hf
           basis = cc-pvtz
  max_scf_cycles = 100
      mem_static = 6200
       mem_total = 62000
          method = mp2
$end


$opt
CONSTRAINT
tors 4 5 7 9 100.0
ENDCONSTRAINT
$end

--------------------------------------------------------------
 Atom  11: ( -2.8575130574, -0.8560036462, -0.6695520291)
         ->( -2.8575130526, -0.8560036490, -0.6695520291)
 Atom  14: (  3.6172381170,  1.4688729222, -1.1182964788)
         ->(  3.6172381130,  1.4688729151, -1.1182964795)
 ----------------------------------------------------------------
             Standard Nuclear Orientation (Angstroms)
    I     Atom           X                Y                Z
 ----------------------------------------------------------------
    1      S       1.7139074958    -0.9417232774     0.7342252170
    2      C       3.1383907475    -0.1669164191     0.2016608212
    3      C       2.8575130526     0.8560036490    -0.6695520291
    4      C       1.4817681656     0.9962874182    -0.9110036791
    5      C       0.7139348876     0.0813413212    -0.2211420831
    6      H       1.0517111672     1.7198933315    -1.5803449489
    7      C      -0.7139348882    -0.0813413199    -0.2211420835
    8      S      -1.7139074939     0.9417232763     0.7342252200
    9      C      -1.4817681660    -0.9962874182    -0.9110036785
   10      C      -3.1383907471     0.1669164156     0.2016608190
   11      C      -2.8575130526    -0.8560036490    -0.6695520291
   12      H      -3.6172381130    -1.4688729151    -1.1182964795
   13      H       4.0961523781    -0.4972620361     0.5512597600
   14      H       3.6172381130     1.4688729151    -1.1182964795
   15      H      -4.0961523804     0.4972620406     0.5512597586
   16      H      -1.0517111654    -1.7198933285    -1.5803449491
 ----------------------------------------------------------------
 Molecular Point Group                 C2    NOp =  2
 Largest Abelian Subgroup              C2    NOp =  2
 Nuclear Repulsion Energy =   636.0003539788 hartrees
 There are       43 alpha and       43 beta electrons
 Requested basis set is cc-pVTZ
 There are 140 shells and 392 basis functions

 Total QAlloc Memory Limit  62000 MB
 Mega-Array Size      6061 MB
 MEM_STATIC part      6200 MB
 A cutoff of  1.0D-11 yielded   8052 shell pairs
 There are     62664 function pairs (     81682 Cartesian)
 
 -------------------------------------------------------
 OpenMP Integral Computing Module                       
 Release: version 1.0, May 2013, Q-Chem Inc. Pittsburgh 
 -------------------------------------------------------
 Integral Job Info:
 Integral job number is                      11
 Integral operator is                         1
 short-range coefficients                     0
 long-range coefficients              100000000
 Omega coefficients                           0
 if combine SR and LR in K                    0
 Integral screening is                        0
 Integral computing path is                   2
 max size of driver memory is            800000
 size of driver memory is                776718
 size of scratch memory is             26248924
 max col of scratch BK array              10000
 max len of scratch array in speh3          662
 max len of scratch index in speh4           32
 max int batch size is                      520
 min int batch size is                       52
 fixed nKL is                                52
 max L of basis functions is                  3
 order of int derivative is                   0
 number of shells is                        140
 number of basis is                         448
 number of cartesian basis is               448
 number of contracted shell pairs          8052
 number of primitive shell pairs          28584
 maxK2 (contraction) of shell pair          121
 max number of K2 of shell pair               1
 max number of CS2 of shell pair           1068
 max number of PS2 of shell pair           3066
 mem total for path MDJ                  225820
 -------------------------------------------------------
 Smallest overlap matrix eigenvalue = 9.63E-05

 Scale SEOQF with 1.000000e-01/1.000000e-01/1.000000e-01

 Standard Electronic Orientation quadrupole field applied
 Nucleus-field energy     =     0.0000000143 hartrees
 Guess from superposition of atomic densities
 Warning:  Energy on first SCF cycle will be non-variational
 A restricted Hartree-Fock SCF calculation will be
 performed using Pulay DIIS extrapolation
 SCF converges when DIIS error is below 1.0E-08
 using 16 threads for integral computing 
 ---------------------------------------
  Cycle       Energy         DIIS Error
 ---------------------------------------
    1   -1106.0642774931      2.98E-02
    2   -1091.0263338745      1.86E-02
    3   -1101.0509478690      4.89E-03
    4   -1101.4465214511      2.71E-03
    5   -1101.5853862667      6.59E-04
    6   -1101.5943573714      2.26E-04
    7   -1101.5957082227      5.13E-05
    8   -1101.5958667215      2.59E-05
    9   -1101.5959143965      1.20E-05
   10   -1101.5959288662      5.41E-06
   11   -1101.5959311234      1.60E-06
   12   -1101.5959313237      5.77E-07
   13   -1101.5959313513      2.16E-07
   14   -1101.5959313574      9.45E-08
   15   -1101.5959313592      3.17E-08
   16   -1101.5959313581      8.74E-09 Convergence criterion met
 ---------------------------------------
 SCF time:  CPU 641.75 s  wall 40.16 s
 SCF   energy in the final basis set = -1101.5959313581
 Total energy in the final basis set = -1101.5959313581
 
 Components of the MP2 correlation energy:
        aaaa  correlation energy =        -0.2321518345 au
        abab  correlation energy =        -1.3506493103 au
        bbbb  correlation energy =        -0.2321518345 au
        non-Brillouin singles    =        -0.0000000000 au

 Total  MP2   correlation energy =        -1.8149529792 au
        MP2         total energy =     -1103.4108843373 au

  Entering Z-vector solver.
   1         0           1      0.000265    0.000265
   2         0           1      0.000117    0.000117
   3         0           1      0.000049    0.000049
   4         0           1      0.000024    0.000024
   5         0           1      0.000007    0.000007
   6         0           1      0.000002    0.000002
   7         1           0      0.000000    0.000000    Roots Converged
 
 --------------------------------------------------------------
             Orbital Energies (a.u.) and Symmetries
 --------------------------------------------------------------
 Warning : Irrep of orbital(   1) could not be determined
 Warning : Irrep of orbital(   2) could not be determined
 
 Alpha MOs, Restricted
 -- Occupied --                  
-91.984 -91.984 -11.271 -11.270 -11.261 -11.261 -11.238 -11.238
  0 xxx   0 xxx   1 A     1 B     2 B     2 A     3 A     3 B                  
-11.236 -11.236  -8.985  -8.985  -6.666  -6.666  -6.665  -6.665
  4 B     4 A     5 B     5 A     6 A     6 B     7 A     7 B                  
 -6.665  -6.665  -1.194  -1.166  -1.034  -0.992  -0.989  -0.948
  8 B     8 A     9 A     9 B    10 A    10 B    11 A    11 B                  
 -0.808  -0.766  -0.759  -0.718  -0.703  -0.645  -0.570  -0.568
 12 A    12 B    13 A    13 B    14 A    14 B    15 A    15 B                  
 -0.564  -0.556  -0.538  -0.512  -0.511  -0.477  -0.474  -0.354
 16 A    16 B    17 A    17 B    18 A    18 B    19 A    20 A                  
 -0.344  -0.331  -0.314
 19 B    21 A    20 B                                                          
 -- Virtual --                   
  0.102   0.115   0.150   0.153   0.164   0.172   0.183   0.187
 22 A    21 B    22 B    23 A    24 A    23 B    25 A    24 B                  
  0.190   0.204   0.205   0.224   0.243   0.249   0.319   0.320
 26 A    25 B    27 A    26 B    27 B    28 A    28 B    29 A                  
  0.347   0.353   0.368   0.376   0.389   0.402   0.420   0.427
 29 B    30 A    30 B    31 A    32 A    31 B    32 B    33 A                  
  0.442   0.451   0.452   0.465   0.466   0.481   0.488   0.496
 34 A    35 A    33 B    34 B    36 A    35 B    37 A    36 B                  
  0.510   0.521   0.539   0.543   0.549   0.558   0.571   0.572
 37 B    38 A    38 B    39 B    39 A    40 A    40 B    41 A                  
  0.579   0.581   0.600   0.603   0.606   0.612   0.622   0.623
 42 A    41 B    43 A    42 B    44 A    43 B    45 A    44 B                  
  0.641   0.642   0.658   0.668   0.675   0.687   0.702   0.721
 45 B    46 A    46 B    47 B    47 A    48 A    49 A    48 B                  
  0.754   0.754   0.783   0.788   0.806   0.826   0.845   0.851
 49 B    50 A    50 B    51 A    51 B    52 A    52 B    53 B                  
  0.856   0.873   0.876   0.891   0.906   0.921   0.929   0.947
 53 A    54 A    54 B    55 B    55 A    56 A    56 B    57 A                  
  0.968   0.995   0.996   1.006   1.021   1.031   1.062   1.083
 58 A    57 B    58 B    59 A    60 A    59 B    60 B    61 A                  
  1.100   1.108   1.110   1.124   1.130   1.153   1.172   1.179
 61 B    62 A    62 B    63 A    64 A    63 B    65 A    64 B                  
  1.189   1.194   1.218   1.225   1.240   1.257   1.293   1.304
 66 A    65 B    67 A    66 B    68 A    67 B    69 A    68 B                  
  1.306   1.312   1.327   1.349   1.373   1.380   1.405   1.436
 69 B    70 A    70 B    71 A    71 B    72 A    72 B    73 A                  
  1.438   1.458   1.481   1.492   1.499   1.511   1.519   1.538
 73 B    74 B    74 A    75 A    75 B    76 B    76 A    77 B                  
  1.551   1.560   1.563   1.589   1.595   1.619   1.634   1.647
 78 B    77 A    78 A    79 B    79 A    80 A    80 B    81 A                  
  1.678   1.699   1.711   1.737   1.745   1.758   1.778   1.824
 81 B    82 A    82 B    83 B    83 A    84 B    84 A    85 A                  
  1.830   1.859   1.875   1.899   1.904   1.906   1.921   1.949
 85 B    86 B    86 A    87 B    87 A    88 B    88 A    89 B                  
  1.958   2.023   2.045   2.064   2.067   2.128   2.131   2.141
 89 A    90 B    90 A    91 B    91 A    92 B    92 A    93 A                  
  2.178   2.186   2.196   2.210   2.212   2.240   2.253   2.262
 94 A    93 B    94 B    95 A    95 B    96 A    96 B    97 A                  
  2.289   2.304   2.332   2.396   2.416   2.422   2.454   2.478
 97 B    98 B    98 A    99 A    99 B   100 A   101 A   100 B                  
  2.492   2.509   2.526   2.529   2.545   2.559   2.571   2.599
102 A   101 B   102 B   103 B   103 A   104 A   104 B   105 A                  
  2.614   2.652   2.666   2.687   2.713   2.721   2.745   2.767
105 B   106 B   106 A   107 A   107 B   108 B   108 A   109 B                  
  2.771   2.772   2.778   2.796   2.799   2.869   2.891   2.902
109 A   110 B   110 A   111 B   111 A   112 A   113 A   112 B                  
  2.921   2.927   2.934   2.981   2.998   3.014   3.017   3.027
113 B   114 B   114 A   115 A   116 A   115 B   117 A   116 B                  
  3.050   3.063   3.088   3.143   3.151   3.161   3.168   3.193
118 A   117 B   118 B   119 A   119 B   120 B   120 A   121 A                  
  3.213   3.217   3.241   3.242   3.264   3.266   3.285   3.286
121 B   122 A   123 A   122 B   123 B   124 A   125 A   124 B                  
  3.288   3.295   3.328   3.337   3.355   3.364   3.375   3.407
126 A   125 B   127 A   126 B   127 B   128 A   128 B   129 B                  
  3.416   3.420   3.421   3.450   3.453   3.459   3.469   3.477
129 A   130 B   130 A   131 A   132 A   131 B   133 A   132 B                  
  3.484   3.496   3.511   3.511   3.520   3.525   3.538   3.544
134 A   133 B   134 B   135 A   136 A   135 B   136 B   137 B                  
  3.548   3.575   3.582   3.593   3.614   3.614   3.650   3.660
137 A   138 A   139 A   138 B   140 A   139 B   141 A   140 B                  
  3.694   3.699   3.732   3.735   3.746   3.747   3.786   3.793
142 A   141 B   143 A   142 B   144 A   143 B   145 A   144 B                  
  3.794   3.847   3.870   3.876   3.892   3.913   3.921   3.934
146 A   145 B   146 B   147 A   147 B   148 A   148 B   149 A                  
  3.966   3.972   4.006   4.013   4.023   4.023   4.034   4.060
149 B   150 A   150 B   151 A   152 A   151 B   153 A   152 B                  
  4.072   4.109   4.119   4.150   4.164   4.167   4.184   4.191
153 B   154 B   154 A   155 A   156 A   155 B   156 B   157 A                  
  4.200   4.213   4.230   4.260   4.277   4.278   4.317   4.324
157 B   158 A   159 A   158 B   160 A   159 B   160 B   161 A                  
  4.346   4.376   4.401   4.403   4.448   4.473   4.519   4.530
161 B   162 A   162 B   163 A   163 B   164 A   164 B   165 A                  
  4.549   4.550   4.584   4.610   4.655   4.669   4.696   4.704
165 B   166 A   166 B   167 A   168 A   167 B   169 A   168 B                  
  4.726   4.734   4.755   4.763   4.784   4.825   4.853   4.897
169 B   170 A   170 B   171 B   171 A   172 A   172 B   173 B                  
  4.898   4.944   4.992   4.993   5.052   5.068   5.074   5.079
173 A   174 A   174 B   175 A   175 B   176 A   177 A   176 B                  
  5.095   5.097   5.189   5.242   5.243   5.301   5.303   5.380
177 B   178 A   178 B   179 A   179 B   180 B   180 A   181 A                  
  5.387   5.422   5.424   5.503   5.569   5.600   5.657   5.669
181 B   182 A   182 B   183 A   183 B   184 A   185 A   184 B                  
  5.804   5.887   5.950   6.022   6.091   6.129   6.181   6.193
185 B   186 A   186 B   187 A   187 B   188 A   188 B   189 A                  
  6.207   6.542   6.563   6.714   6.748   9.516  10.721  11.913
189 B   190 A   190 B   191 A   191 B   192 A   192 B   193 A                  
 12.248  13.497  13.582  14.584  14.638
193 B   194 A   194 B   195 A   195 B                                          
 
 Beta MOs, Restricted
 -- Occupied --                  
-91.984 -91.984 -11.271 -11.270 -11.261 -11.261 -11.238 -11.238
  0 xxx   0 xxx   1 A     1 B     2 B     2 A     3 A     3 B                  
-11.236 -11.236  -8.985  -8.985  -6.666  -6.666  -6.665  -6.665
  4 B     4 A     5 B     5 A     6 A     6 B     7 A     7 B                  
 -6.665  -6.665  -1.194  -1.166  -1.034  -0.992  -0.989  -0.948
  8 B     8 A     9 A     9 B    10 A    10 B    11 A    11 B                  
 -0.808  -0.766  -0.759  -0.718  -0.703  -0.645  -0.570  -0.568
 12 A    12 B    13 A    13 B    14 A    14 B    15 A    15 B                  
 -0.564  -0.556  -0.538  -0.512  -0.511  -0.477  -0.474  -0.354
 16 A    16 B    17 A    17 B    18 A    18 B    19 A    20 A                  
 -0.344  -0.331  -0.314
 19 B    21 A    20 B                                                          
 -- Virtual --                   
  0.102   0.115   0.150   0.153   0.164   0.172   0.183   0.187
 22 A    21 B    22 B    23 A    24 A    23 B    25 A    24 B                  
  0.190   0.204   0.205   0.224   0.243   0.249   0.319   0.320
 26 A    25 B    27 A    26 B    27 B    28 A    28 B    29 A                  
  0.347   0.353   0.368   0.376   0.389   0.402   0.420   0.427
 29 B    30 A    30 B    31 A    32 A    31 B    32 B    33 A                  
  0.442   0.451   0.452   0.465   0.466   0.481   0.488   0.496
 34 A    35 A    33 B    34 B    36 A    35 B    37 A    36 B                  
  0.510   0.521   0.539   0.543   0.549   0.558   0.571   0.572
 37 B    38 A    38 B    39 B    39 A    40 A    40 B    41 A                  
  0.579   0.581   0.600   0.603   0.606   0.612   0.622   0.623
 42 A    41 B    43 A    42 B    44 A    43 B    45 A    44 B                  
  0.641   0.642   0.658   0.668   0.675   0.687   0.702   0.721
 45 B    46 A    46 B    47 B    47 A    48 A    49 A    48 B                  
  0.754   0.754   0.783   0.788   0.806   0.826   0.845   0.851
 49 B    50 A    50 B    51 A    51 B    52 A    52 B    53 B                  
  0.856   0.873   0.876   0.891   0.906   0.921   0.929   0.947
 53 A    54 A    54 B    55 B    55 A    56 A    56 B    57 A                  
  0.968   0.995   0.996   1.006   1.021   1.031   1.062   1.083
 58 A    57 B    58 B    59 A    60 A    59 B    60 B    61 A                  
  1.100   1.108   1.110   1.124   1.130   1.153   1.172   1.179
 61 B    62 A    62 B    63 A    64 A    63 B    65 A    64 B                  
  1.189   1.194   1.218   1.225   1.240   1.257   1.293   1.304
 66 A    65 B    67 A    66 B    68 A    67 B    69 A    68 B                  
  1.306   1.312   1.327   1.349   1.373   1.380   1.405   1.436
 69 B    70 A    70 B    71 A    71 B    72 A    72 B    73 A                  
  1.438   1.458   1.481   1.492   1.499   1.511   1.519   1.538
 73 B    74 B    74 A    75 A    75 B    76 B    76 A    77 B                  
  1.551   1.560   1.563   1.589   1.595   1.619   1.634   1.647
 78 B    77 A    78 A    79 B    79 A    80 A    80 B    81 A                  
  1.678   1.699   1.711   1.737   1.745   1.758   1.778   1.824
 81 B    82 A    82 B    83 B    83 A    84 B    84 A    85 A                  
  1.830   1.859   1.875   1.899   1.904   1.906   1.921   1.949
 85 B    86 B    86 A    87 B    87 A    88 B    88 A    89 B                  
  1.958   2.023   2.045   2.064   2.067   2.128   2.131   2.141
 89 A    90 B    90 A    91 B    91 A    92 B    92 A    93 A                  
  2.178   2.186   2.196   2.210   2.212   2.240   2.253   2.262
 94 A    93 B    94 B    95 A    95 B    96 A    96 B    97 A                  
  2.289   2.304   2.332   2.396   2.416   2.422   2.454   2.478
 97 B    98 B    98 A    99 A    99 B   100 A   101 A   100 B                  
  2.492   2.509   2.526   2.529   2.545   2.559   2.571   2.599
102 A   101 B   102 B   103 B   103 A   104 A   104 B   105 A                  
  2.614   2.652   2.666   2.687   2.713   2.721   2.745   2.767
105 B   106 B   106 A   107 A   107 B   108 B   108 A   109 B                  
  2.771   2.772   2.778   2.796   2.799   2.869   2.891   2.902
109 A   110 B   110 A   111 B   111 A   112 A   113 A   112 B                  
  2.921   2.927   2.934   2.981   2.998   3.014   3.017   3.027
113 B   114 B   114 A   115 A   116 A   115 B   117 A   116 B                  
  3.050   3.063   3.088   3.143   3.151   3.161   3.168   3.193
118 A   117 B   118 B   119 A   119 B   120 B   120 A   121 A                  
  3.213   3.217   3.241   3.242   3.264   3.266   3.285   3.286
121 B   122 A   123 A   122 B   123 B   124 A   125 A   124 B                  
  3.288   3.295   3.328   3.337   3.355   3.364   3.375   3.407
126 A   125 B   127 A   126 B   127 B   128 A   128 B   129 B                  
  3.416   3.420   3.421   3.450   3.453   3.459   3.469   3.477
129 A   130 B   130 A   131 A   132 A   131 B   133 A   132 B                  
  3.484   3.496   3.511   3.511   3.520   3.525   3.538   3.544
134 A   133 B   134 B   135 A   136 A   135 B   136 B   137 B                  
  3.548   3.575   3.582   3.593   3.614   3.614   3.650   3.660
137 A   138 A   139 A   138 B   140 A   139 B   141 A   140 B                  
  3.694   3.699   3.732   3.735   3.746   3.747   3.786   3.793
142 A   141 B   143 A   142 B   144 A   143 B   145 A   144 B                  
  3.794   3.847   3.870   3.876   3.892   3.913   3.921   3.934
146 A   145 B   146 B   147 A   147 B   148 A   148 B   149 A                  
  3.966   3.972   4.006   4.013   4.023   4.023   4.034   4.060
149 B   150 A   150 B   151 A   152 A   151 B   153 A   152 B                  
  4.072   4.109   4.119   4.150   4.164   4.167   4.184   4.191
153 B   154 B   154 A   155 A   156 A   155 B   156 B   157 A                  
  4.200   4.213   4.230   4.260   4.277   4.278   4.317   4.324
157 B   158 A   159 A   158 B   160 A   159 B   160 B   161 A                  
  4.346   4.376   4.401   4.403   4.448   4.473   4.519   4.530
161 B   162 A   162 B   163 A   163 B   164 A   164 B   165 A                  
  4.549   4.550   4.584   4.610   4.655   4.669   4.696   4.704
165 B   166 A   166 B   167 A   168 A   167 B   169 A   168 B                  
  4.726   4.734   4.755   4.763   4.784   4.825   4.853   4.897
169 B   170 A   170 B   171 B   171 A   172 A   172 B   173 B                  
  4.898   4.944   4.992   4.993   5.052   5.068   5.074   5.079
173 A   174 A   174 B   175 A   175 B   176 A   177 A   176 B                  
  5.095   5.097   5.189   5.242   5.243   5.301   5.303   5.380
177 B   178 A   178 B   179 A   179 B   180 B   180 A   181 A                  
  5.387   5.422   5.424   5.503   5.569   5.600   5.657   5.669
181 B   182 A   182 B   183 A   183 B   184 A   185 A   184 B                  
  5.804   5.887   5.950   6.022   6.091   6.129   6.181   6.193
185 B   186 A   186 B   187 A   187 B   188 A   188 B   189 A                  
  6.207   6.542   6.563   6.714   6.748   9.516  10.721  11.913
189 B   190 A   190 B   191 A   191 B   192 A   192 B   193 A                  
 12.248  13.497  13.582  14.584  14.638
193 B   194 A   194 B   195 A   195 B                                          
 --------------------------------------------------------------
 
          Ground-State Mulliken Net Atomic Charges

     Atom                 Charge (a.u.)
  ----------------------------------------
      1 S                     0.130057
      2 C                    -0.239207
      3 C                    -0.191737
      4 C                    -0.195310
      5 C                    -0.037833
      6 H                     0.175813
      7 C                    -0.037834
      8 S                     0.130057
      9 C                    -0.195308
     10 C                    -0.239206
     11 C                    -0.191737
     12 H                     0.174447
     13 H                     0.183769
     14 H                     0.174448
     15 H                     0.183769
     16 H                     0.175813
  ----------------------------------------
  Sum of atomic charges =     0.000000

 -----------------------------------------------------------------
                    Cartesian Multipole Moments
 -----------------------------------------------------------------
    Charge (ESU x 10^10)
                 0.0000
    Dipole Moment (Debye)
         X       0.0000      Y       0.0000      Z      -0.4969
       Tot       0.4969
    Quadrupole Moments (Debye-Ang)
        XX     -61.4172     XY       0.9094     YY     -71.9961
        XZ      -0.0000     YZ       0.0000     ZZ     -73.4504
    Octopole Moments (Debye-Ang^2)
       XXX       0.0000    XXY       0.0000    XYY      -0.0000
       YYY       0.0000    XXZ       5.9025    XYZ     -12.6467
       YYZ      -4.9629    XZZ      -0.0000    YZZ       0.0000
       ZZZ       2.5095
    Hexadecapole Moments (Debye-Ang^3)
      XXXX   -1831.9612   XXXY      -9.5236   XXYY    -403.1057
      XYYY      -0.5899   YYYY    -384.5357   XXXZ      -0.0000
      XXYZ       0.0000   XYYZ      -0.0000   YYYZ       0.0000
      XXZZ    -403.6330   XYZZ       3.8267   YYZZ    -101.2552
      XZZZ      -0.0000   YZZZ      -0.0000   ZZZZ    -299.6767
 -----------------------------------------------------------------
 DrvMan is completing analytic gradient of the MP2 energy
 MP2 relaxed dipole moment
            1
    1   0.0000000
    2   0.0000000
    3  -0.1955123
	Magnitude:	 0.196 au	 0.497 Debye
 MP2 energy read as -1103.410884
 Full Analytical Gradient of MP2 Energy (in au.)
             1             2             3             4             5
    1   -0.00138205    0.00101906   -0.00029608    0.00075945   -0.00821136
    2   -0.00063509    0.00111679    0.00007717    0.00084013   -0.00100609
    3    0.00177417   -0.00181349    0.00078941   -0.00001756    0.00021147
             6             7             8             9            10
    1    0.00044270    0.00821136    0.00138205   -0.00075945   -0.00101906
    2   -0.00022890    0.00100609    0.00063509   -0.00084013   -0.00111679
    3   -0.00093073    0.00021146    0.00177417   -0.00001756   -0.00181349
            11            12            13            14            15
    1    0.00029608    0.00004707   -0.00026139   -0.00004707    0.00026139
    2   -0.00007717   -0.00006280   -0.00032575    0.00006280    0.00032575
    3    0.00078941    0.00003460   -0.00004785    0.00003460   -0.00004785
            16
    1   -0.00044270
    2    0.00022890
    3   -0.00093073
 Gradient time:  CPU 1.52 s  wall 0.10 s
 Geometry Optimization Parameters
   NAtoms,    NIC,     NZ,  NCons,   NDum,   NFix, NCnnct, MaxDiis
       16     111       0       1       0       0       0       0


** CONSTRAINED OPTIMIZATION IN DELOCALIZED INTERNAL COORDINATES **
   Searching for a Minimum

   Optimization Cycle:   1

                       Coordinates (Angstroms)
     ATOM                X               Y               Z
      1  S         1.7139074948   -0.9417232769    0.7342252185
      2  C         3.1383907473   -0.1669164173    0.2016608201
      3  C         2.8575130526    0.8560036490   -0.6695520291
      4  C         1.4817681658    0.9962874182   -0.9110036788
      5  C         0.7139348879    0.0813413205   -0.2211420833
      6  H         1.0517111663    1.7198933300   -1.5803449490
      7  C        -0.7139348879   -0.0813413205   -0.2211420833
      8  S        -1.7139074948    0.9417232769    0.7342252185
      9  C        -1.4817681658   -0.9962874182   -0.9110036788
     10  C        -3.1383907473    0.1669164173    0.2016608201
     11  C        -2.8575130526   -0.8560036490   -0.6695520291
     12  H        -3.6172381130   -1.4688729151   -1.1182964795
     13  H         4.0961523792   -0.4972620383    0.5512597593
     14  H         3.6172381130    1.4688729151   -1.1182964795
     15  H        -4.0961523792    0.4972620383    0.5512597593
     16  H        -1.0517111663   -1.7198933300   -1.5803449490
   Point Group: c2    Number of degrees of freedom:    22


   Energy is  -1103.410884337

              Constraints and their Current Values
                                        Value     Constraint
   Dihedral:        4   5   7   9      100.000      100.000

 Attempting to Generate Delocalized Internal Coordinates

 21 Hessian modes will be used to form the next step
  Hessian Eigenvalues:
     0.045000    0.045000    0.045000    0.045002    0.045003    0.045012
     0.159945    0.159993    0.160000    0.221308    0.238060    0.249999
     0.326324    0.340049    0.365509    0.366895    0.370094    0.399848
     0.435412    0.463135    0.495504

 Minimum Search - Taking Simple RFO Step
 Searching for Lamda that Minimizes Along All modes
 Value Taken    Lamda =  -0.00029297
 Step Taken.  Stepsize is  0.049772

                             Maximum     Tolerance    Cnvgd?
         Gradient           0.004345      0.000300      NO
         Displacement       0.038479      0.001200      NO
         Energy change     *********      0.000001      NO


 New Cartesian Coordinates Obtained by Inverse Iteration

 Displacement from previous Coordinates is:  0.068538
 ----------------------------------------------------------------
             Standard Nuclear Orientation (Angstroms)
    I     Atom           X                Y                Z
 ----------------------------------------------------------------
    1      S       1.7240155053    -0.9478756519     0.7257050254
    2      C       3.1457192303    -0.1682834281     0.1996061280
    3      C       2.8618472057     0.8541168478    -0.6723481407
    4      C       1.4845440493     0.9955253094    -0.9080621711
    5      C       0.7192360169     0.0811661142    -0.2176750630
    6      H       1.0487594958     1.7241211169    -1.5676391952
    7      C      -0.7192360169    -0.0811661142    -0.2176750630
    8      S      -1.7240155053     0.9478756519     0.7257050254
    9      C      -1.4845440493    -0.9955253094    -0.9080621711
   10      C      -3.1457192303     0.1682834281     0.1996061280
   11      C      -2.8618472057    -0.8541168478    -0.6723481407
   12      H      -3.6200622164    -1.4692317108    -1.1206163954
   13      H       4.1052262047    -0.4956848349     0.5478363901
   14      H       3.6200622164     1.4692317108    -1.1206163954
   15      H      -4.1052262047     0.4956848349     0.5478363901
   16      H      -1.0487594958    -1.7241211169    -1.5676391952
 ----------------------------------------------------------------
 Molecular Point Group                 C2    NOp =  2
 Largest Abelian Subgroup              C2    NOp =  2
 Nuclear Repulsion Energy =   635.3647031300 hartrees
 There are       43 alpha and       43 beta electrons
 Applying Cartesian multipole field
    Component          Value
    ---------          -----
     (2,0,0)        1.00000E-11
     (0,2,0)        2.00000E-11
     (0,0,2)       -3.00000E-11
 Nucleus-field energy     =     0.0000000144 hartrees
 Requested basis set is cc-pVTZ
 There are 140 shells and 392 basis functions
 A cutoff of  1.0D-11 yielded   8050 shell pairs
 There are     62622 function pairs (     81622 Cartesian)
 Smallest overlap matrix eigenvalue = 9.71E-05
 Guess MOs from SCF MO coefficient file
 Reading MOs from coefficient file
 Reading MOs from coefficient file
 A restricted Hartree-Fock SCF calculation will be
 performed using Pulay DIIS extrapolation
 SCF converges when DIIS error is below 1.0E-08
 Geometry optimization detected.  Setting ReadMinima to 0
 Setting SaveMinima to 0
 using 16 threads for integral computing 
 ---------------------------------------
  Cycle       Energy         DIIS Error
 ---------------------------------------
    1   -1101.5977976960      1.94E-04
    2   -1101.5966353348      2.14E-05
    3   -1101.5966506041      9.71E-06
    4   -1101.5966530928      4.07E-06
    5   -1101.5966537551      1.73E-06
    6   -1101.5966538488      4.91E-07
    7   -1101.5966538595      1.90E-07
    8   -1101.5966538605      6.76E-08
    9   -1101.5966538612      2.34E-08
   10   -1101.5966538610      1.07E-08
   11   -1101.5966538591      4.84E-09 Convergence criterion met
 ---------------------------------------
 SCF time:  CPU 683.69 s  wall 42.76 s
 SCF   energy in the final basis set = -1101.5966538591
 Total energy in the final basis set = -1101.5966538591
 
 Components of the MP2 correlation energy:
        aaaa  correlation energy =        -0.2320504216 au
        abab  correlation energy =        -1.3503493381 au
        bbbb  correlation energy =        -0.2320504216 au
        non-Brillouin singles    =        -0.0000000000 au

 Total  MP2   correlation energy =        -1.8144501813 au
        MP2         total energy =     -1103.4111040404 au

  Entering Z-vector solver.
   1         0           1      0.000264    0.000264
   2         0           1      0.000117    0.000117
   3         0           1      0.000048    0.000048
   4         0           1      0.000024    0.000024
   5         0           1      0.000007    0.000007
   6         0           1      0.000002    0.000002
   7         1           0      0.000000    0.000000    Roots Converged
 
 --------------------------------------------------------------
             Orbital Energies (a.u.) and Symmetries
 --------------------------------------------------------------
 
 Alpha MOs, Restricted
 -- Occupied --                  
-91.984 -91.984 -11.272 -11.271 -11.261 -11.261 -11.238 -11.238
  1 B     1 A     2 A     2 B     3 B     3 A     4 A     4 B                  
-11.236 -11.236  -8.985  -8.985  -6.666  -6.666  -6.666  -6.666
  5 B     5 A     6 B     6 A     7 B     7 A     8 A     8 B                  
 -6.665  -6.665  -1.194  -1.166  -1.032  -0.992  -0.989  -0.948
  9 B     9 A    10 A    10 B    11 A    11 B    12 A    12 B                  
 -0.806  -0.767  -0.759  -0.718  -0.703  -0.646  -0.571  -0.568
 13 A    13 B    14 A    14 B    15 A    15 B    16 A    16 B                  
 -0.564  -0.555  -0.538  -0.512  -0.511  -0.476  -0.474  -0.354
 17 A    17 B    18 A    18 B    19 A    19 B    20 A    21 A                  
 -0.344  -0.332  -0.314
 20 B    22 A    21 B                                                          
 -- Virtual --                   
  0.103   0.116   0.150   0.153   0.164   0.172   0.183   0.187
 23 A    22 B    23 B    24 A    25 A    24 B    26 A    25 B                  
  0.190   0.204   0.206   0.224   0.242   0.249   0.319   0.320
 27 A    26 B    28 A    27 B    28 B    29 A    29 B    30 A                  
  0.346   0.353   0.367   0.375   0.389   0.402   0.419   0.426
 30 B    31 A    31 B    32 A    33 A    32 B    33 B    34 A                  
  0.442   0.451   0.452   0.465   0.467   0.482   0.489   0.497
 35 A    36 A    34 B    35 B    37 A    36 B    38 A    37 B                  
  0.509   0.522   0.537   0.543   0.549   0.558   0.570   0.571
 38 B    39 A    39 B    40 B    40 A    41 A    41 B    42 A                  
  0.579   0.580   0.600   0.603   0.606   0.611   0.622   0.622
 43 A    42 B    44 A    43 B    45 A    44 B    45 B    46 A                  
  0.640   0.642   0.658   0.667   0.675   0.686   0.703   0.720
 46 B    47 A    47 B    48 B    48 A    49 A    50 A    49 B                  
  0.753   0.754   0.784   0.788   0.806   0.827   0.844   0.850
 50 B    51 A    51 B    52 A    52 B    53 A    53 B    54 B                  
  0.856   0.874   0.876   0.889   0.906   0.920   0.929   0.946
 54 A    55 A    55 B    56 B    56 A    57 A    57 B    58 A                  
  0.966   0.994   0.997   1.005   1.021   1.030   1.061   1.085
 59 A    58 B    59 B    60 A    61 A    60 B    61 B    62 A                  
  1.100   1.108   1.110   1.124   1.129   1.152   1.173   1.179
 62 B    63 A    63 B    64 A    65 A    64 B    66 A    65 B                  
  1.189   1.193   1.219   1.225   1.240   1.256   1.293   1.303
 67 A    66 B    68 A    67 B    69 A    68 B    70 A    69 B                  
  1.305   1.311   1.326   1.349   1.373   1.380   1.406   1.436
 70 B    71 A    71 B    72 A    72 B    73 A    73 B    74 A                  
  1.437   1.459   1.481   1.492   1.498   1.511   1.518   1.538
 74 B    75 B    75 A    76 A    76 B    77 B    77 A    78 B                  
  1.552   1.559   1.563   1.589   1.593   1.619   1.634   1.646
 79 B    78 A    79 A    80 B    80 A    81 A    81 B    82 A                  
  1.676   1.699   1.710   1.737   1.746   1.756   1.778   1.823
 82 B    83 A    83 B    84 B    84 A    85 B    85 A    86 A                  
  1.831   1.860   1.875   1.897   1.905   1.907   1.920   1.946
 86 B    87 B    87 A    88 B    88 A    89 B    89 A    90 B                  
  1.956   2.021   2.044   2.065   2.068   2.129   2.130   2.141
 90 A    91 B    91 A    92 B    92 A    93 A    93 B    94 A                  
  2.177   2.186   2.195   2.212   2.212   2.238   2.251   2.262
 95 A    94 B    95 B    96 B    96 A    97 A    97 B    98 A                  
  2.288   2.304   2.332   2.394   2.416   2.422   2.451   2.477
 98 B    99 B    99 A   100 A   100 B   101 A   102 A   101 B                  
  2.490   2.507   2.526   2.530   2.545   2.560   2.571   2.600
103 A   102 B   103 B   104 B   104 A   105 A   105 B   106 A                  
  2.614   2.651   2.665   2.689   2.710   2.721   2.747   2.766
106 B   107 B   107 A   108 A   108 B   109 B   109 A   110 B                  
  2.771   2.772   2.778   2.797   2.798   2.871   2.891   2.902
110 A   111 B   111 A   112 B   112 A   113 A   114 A   113 B                  
  2.919   2.927   2.933   2.978   2.997   3.014   3.016   3.028
114 B   115 B   115 A   116 A   117 A   116 B   118 A   117 B                  
  3.047   3.065   3.086   3.143   3.150   3.160   3.168   3.193
119 A   118 B   119 B   120 A   120 B   121 B   121 A   122 A                  
  3.214   3.215   3.241   3.242   3.265   3.267   3.284   3.286
122 B   123 A   124 A   123 B   124 B   125 A   126 A   125 B                  
  3.287   3.293   3.330   3.338   3.355   3.360   3.371   3.405
127 A   126 B   128 A   127 B   128 B   129 A   129 B   130 B                  
  3.415   3.421   3.423   3.450   3.452   3.458   3.469   3.476
130 A   131 B   131 A   132 A   133 A   132 B   134 A   133 B                  
  3.483   3.498   3.510   3.510   3.520   3.526   3.537   3.544
135 A   134 B   135 B   136 A   137 A   136 B   137 B   138 B                  
  3.550   3.573   3.580   3.592   3.612   3.612   3.649   3.660
138 A   139 A   140 A   139 B   141 A   140 B   142 A   141 B                  
  3.692   3.700   3.731   3.734   3.745   3.746   3.784   3.792
143 A   142 B   144 A   143 B   145 A   144 B   146 A   145 B                  
  3.792   3.848   3.868   3.878   3.892   3.911   3.917   3.931
147 A   146 B   147 B   148 A   148 B   149 A   149 B   150 A                  
  3.965   3.972   4.003   4.011   4.022   4.023   4.033   4.059
150 B   151 A   151 B   152 A   152 B   153 A   154 A   153 B                  
  4.070   4.108   4.117   4.148   4.165   4.165   4.185   4.190
154 B   155 B   155 A   156 A   157 A   156 B   157 B   158 A                  
  4.201   4.212   4.230   4.259   4.274   4.276   4.319   4.324
158 B   159 A   160 A   159 B   160 B   161 A   161 B   162 A                  
  4.345   4.375   4.400   4.400   4.447   4.471   4.519   4.528
162 B   163 A   164 A   163 B   164 B   165 A   165 B   166 A                  
  4.549   4.549   4.582   4.609   4.653   4.669   4.694   4.704
167 A   166 B   167 B   168 A   169 A   168 B   170 A   169 B                  
  4.722   4.734   4.753   4.764   4.784   4.823   4.849   4.895
170 B   171 A   171 B   172 B   172 A   173 A   173 B   174 A                  
  4.896   4.940   4.983   4.990   5.049   5.068   5.072   5.076
174 B   175 A   175 B   176 A   176 B   177 A   178 A   177 B                  
  5.094   5.094   5.188   5.240   5.241   5.298   5.300   5.379
179 A   178 B   179 B   180 A   180 B   181 B   181 A   182 A                  
  5.385   5.420   5.424   5.503   5.567   5.599   5.656   5.666
182 B   183 A   183 B   184 A   184 B   185 A   186 A   185 B                  
  5.802   5.883   5.948   6.022   6.089   6.129   6.180   6.192
186 B   187 A   187 B   188 A   188 B   189 A   189 B   190 A                  
  6.210   6.546   6.564   6.709   6.746   9.507  10.663  11.906
190 B   191 A   191 B   192 A   192 B   193 A   193 B   194 A                  
 12.163  13.501  13.557  14.581  14.627
194 B   195 A   195 B   196 A   196 B                                          
 
 Beta MOs, Restricted
 -- Occupied --                  
-91.984 -91.984 -11.272 -11.271 -11.261 -11.261 -11.238 -11.238
  1 B     1 A     2 A     2 B     3 B     3 A     4 A     4 B                  
-11.236 -11.236  -8.985  -8.985  -6.666  -6.666  -6.666  -6.666
  5 B     5 A     6 B     6 A     7 B     7 A     8 A     8 B                  
 -6.665  -6.665  -1.194  -1.166  -1.032  -0.992  -0.989  -0.948
  9 B     9 A    10 A    10 B    11 A    11 B    12 A    12 B                  
 -0.806  -0.767  -0.759  -0.718  -0.703  -0.646  -0.571  -0.568
 13 A    13 B    14 A    14 B    15 A    15 B    16 A    16 B                  
 -0.564  -0.555  -0.538  -0.512  -0.511  -0.476  -0.474  -0.354
 17 A    17 B    18 A    18 B    19 A    19 B    20 A    21 A                  
 -0.344  -0.332  -0.314
 20 B    22 A    21 B                                                          
 -- Virtual --                   
  0.103   0.116   0.150   0.153   0.164   0.172   0.183   0.187
 23 A    22 B    23 B    24 A    25 A    24 B    26 A    25 B                  
  0.190   0.204   0.206   0.224   0.242   0.249   0.319   0.320
 27 A    26 B    28 A    27 B    28 B    29 A    29 B    30 A                  
  0.346   0.353   0.367   0.375   0.389   0.402   0.419   0.426
 30 B    31 A    31 B    32 A    33 A    32 B    33 B    34 A                  
  0.442   0.451   0.452   0.465   0.467   0.482   0.489   0.497
 35 A    36 A    34 B    35 B    37 A    36 B    38 A    37 B                  
  0.509   0.522   0.537   0.543   0.549   0.558   0.570   0.571
 38 B    39 A    39 B    40 B    40 A    41 A    41 B    42 A                  
  0.579   0.580   0.600   0.603   0.606   0.611   0.622   0.622
 43 A    42 B    44 A    43 B    45 A    44 B    45 B    46 A                  
  0.640   0.642   0.658   0.667   0.675   0.686   0.703   0.720
 46 B    47 A    47 B    48 B    48 A    49 A    50 A    49 B                  
  0.753   0.754   0.784   0.788   0.806   0.827   0.844   0.850
 50 B    51 A    51 B    52 A    52 B    53 A    53 B    54 B                  
  0.856   0.874   0.876   0.889   0.906   0.920   0.929   0.946
 54 A    55 A    55 B    56 B    56 A    57 A    57 B    58 A                  
  0.966   0.994   0.997   1.005   1.021   1.030   1.061   1.085
 59 A    58 B    59 B    60 A    61 A    60 B    61 B    62 A                  
  1.100   1.108   1.110   1.124   1.129   1.152   1.173   1.179
 62 B    63 A    63 B    64 A    65 A    64 B    66 A    65 B                  
  1.189   1.193   1.219   1.225   1.240   1.256   1.293   1.303
 67 A    66 B    68 A    67 B    69 A    68 B    70 A    69 B                  
  1.305   1.311   1.326   1.349   1.373   1.380   1.406   1.436
 70 B    71 A    71 B    72 A    72 B    73 A    73 B    74 A                  
  1.437   1.459   1.481   1.492   1.498   1.511   1.518   1.538
 74 B    75 B    75 A    76 A    76 B    77 B    77 A    78 B                  
  1.552   1.559   1.563   1.589   1.593   1.619   1.634   1.646
 79 B    78 A    79 A    80 B    80 A    81 A    81 B    82 A                  
  1.676   1.699   1.710   1.737   1.746   1.756   1.778   1.823
 82 B    83 A    83 B    84 B    84 A    85 B    85 A    86 A                  
  1.831   1.860   1.875   1.897   1.905   1.907   1.920   1.946
 86 B    87 B    87 A    88 B    88 A    89 B    89 A    90 B                  
  1.956   2.021   2.044   2.065   2.068   2.129   2.130   2.141
 90 A    91 B    91 A    92 B    92 A    93 A    93 B    94 A                  
  2.177   2.186   2.195   2.212   2.212   2.238   2.251   2.262
 95 A    94 B    95 B    96 B    96 A    97 A    97 B    98 A                  
  2.288   2.304   2.332   2.394   2.416   2.422   2.451   2.477
 98 B    99 B    99 A   100 A   100 B   101 A   102 A   101 B                  
  2.490   2.507   2.526   2.530   2.545   2.560   2.571   2.600
103 A   102 B   103 B   104 B   104 A   105 A   105 B   106 A                  
  2.614   2.651   2.665   2.689   2.710   2.721   2.747   2.766
106 B   107 B   107 A   108 A   108 B   109 B   109 A   110 B                  
  2.771   2.772   2.778   2.797   2.798   2.871   2.891   2.902
110 A   111 B   111 A   112 B   112 A   113 A   114 A   113 B                  
  2.919   2.927   2.933   2.978   2.997   3.014   3.016   3.028
114 B   115 B   115 A   116 A   117 A   116 B   118 A   117 B                  
  3.047   3.065   3.086   3.143   3.150   3.160   3.168   3.193
119 A   118 B   119 B   120 A   120 B   121 B   121 A   122 A                  
  3.214   3.215   3.241   3.242   3.265   3.267   3.284   3.286
122 B   123 A   124 A   123 B   124 B   125 A   126 A   125 B                  
  3.287   3.293   3.330   3.338   3.355   3.360   3.371   3.405
127 A   126 B   128 A   127 B   128 B   129 A   129 B   130 B                  
  3.415   3.421   3.423   3.450   3.452   3.458   3.469   3.476
130 A   131 B   131 A   132 A   133 A   132 B   134 A   133 B                  
  3.483   3.498   3.510   3.510   3.520   3.526   3.537   3.544
135 A   134 B   135 B   136 A   137 A   136 B   137 B   138 B                  
  3.550   3.573   3.580   3.592   3.612   3.612   3.649   3.660
138 A   139 A   140 A   139 B   141 A   140 B   142 A   141 B                  
  3.692   3.700   3.731   3.734   3.745   3.746   3.784   3.792
143 A   142 B   144 A   143 B   145 A   144 B   146 A   145 B                  
  3.792   3.848   3.868   3.878   3.892   3.911   3.917   3.931
147 A   146 B   147 B   148 A   148 B   149 A   149 B   150 A                  
  3.965   3.972   4.003   4.011   4.022   4.023   4.033   4.059
150 B   151 A   151 B   152 A   152 B   153 A   154 A   153 B                  
  4.070   4.108   4.117   4.148   4.165   4.165   4.185   4.190
154 B   155 B   155 A   156 A   157 A   156 B   157 B   158 A                  
  4.201   4.212   4.230   4.259   4.274   4.276   4.319   4.324
158 B   159 A   160 A   159 B   160 B   161 A   161 B   162 A                  
  4.345   4.375   4.400   4.400   4.447   4.471   4.519   4.528
162 B   163 A   164 A   163 B   164 B   165 A   165 B   166 A                  
  4.549   4.549   4.582   4.609   4.653   4.669   4.694   4.704
167 A   166 B   167 B   168 A   169 A   168 B   170 A   169 B                  
  4.722   4.734   4.753   4.764   4.784   4.823   4.849   4.895
170 B   171 A   171 B   172 B   172 A   173 A   173 B   174 A                  
  4.896   4.940   4.983   4.990   5.049   5.068   5.072   5.076
174 B   175 A   175 B   176 A   176 B   177 A   178 A   177 B                  
  5.094   5.094   5.188   5.240   5.241   5.298   5.300   5.379
179 A   178 B   179 B   180 A   180 B   181 B   181 A   182 A                  
  5.385   5.420   5.424   5.503   5.567   5.599   5.656   5.666
182 B   183 A   183 B   184 A   184 B   185 A   186 A   185 B                  
  5.802   5.883   5.948   6.022   6.089   6.129   6.180   6.192
186 B   187 A   187 B   188 A   188 B   189 A   189 B   190 A                  
  6.210   6.546   6.564   6.709   6.746   9.507  10.663  11.906
190 B   191 A   191 B   192 A   192 B   193 A   193 B   194 A                  
 12.163  13.501  13.557  14.581  14.627
194 B   195 A   195 B   196 A   196 B                                          
 --------------------------------------------------------------
 
          Ground-State Mulliken Net Atomic Charges

     Atom                 Charge (a.u.)
  ----------------------------------------
      1 S                     0.130437
      2 C                    -0.239508
      3 C                    -0.190843
      4 C                    -0.195363
      5 C                    -0.040020
      6 H                     0.176393
      7 C                    -0.040020
      8 S                     0.130437
      9 C                    -0.195363
     10 C                    -0.239508
     11 C                    -0.190843
     12 H                     0.174596
     13 H                     0.184308
     14 H                     0.174596
     15 H                     0.184308
     16 H                     0.176393
  ----------------------------------------
  Sum of atomic charges =    -0.000000

 -----------------------------------------------------------------
                    Cartesian Multipole Moments
 -----------------------------------------------------------------
    Charge (ESU x 10^10)
                -0.0000
    Dipole Moment (Debye)
         X      -0.0000      Y      -0.0000      Z      -0.4916
       Tot       0.4916
    Quadrupole Moments (Debye-Ang)
        XX     -61.3360     XY       0.8990     YY     -71.9698
        XZ      -0.0000     YZ      -0.0000     ZZ     -73.5431
    Octopole Moments (Debye-Ang^2)
       XXX       0.0000    XXY      -0.0000    XYY       0.0000
       YYY      -0.0000    XXZ       6.1890    XYZ     -12.5854
       YYZ      -4.7735    XZZ       0.0000    YZZ       0.0000
       ZZZ       3.1957
    Hexadecapole Moments (Debye-Ang^3)
      XXXX   -1840.0557   XXXY      -8.0394   XXYY    -405.3317
      XYYY       1.0782   YYYY    -385.9094   XXXZ      -0.0000
      XXYZ      -0.0000   XYYZ      -0.0000   YYYZ      -0.0000
      XXZZ    -405.4013   XYZZ       4.4193   YYZZ    -101.2995
      XZZZ      -0.0000   YZZZ      -0.0000   ZZZZ    -297.5990
 -----------------------------------------------------------------
 DrvMan is completing analytic gradient of the MP2 energy
 MP2 relaxed dipole moment
            1
    1  -0.0000000
    2  -0.0000000
    3  -0.1934009
	Magnitude:	 0.193 au	 0.492 Debye
 MP2 energy read as -1103.411104
 Full Analytical Gradient of MP2 Energy (in au.)
             1             2             3             4             5
    1    0.00012881    0.00075193   -0.00005506    0.00014010   -0.00131285
    2   -0.00003549    0.00048898   -0.00037670   -0.00012722    0.00074799
    3    0.00022183   -0.00017336    0.00017597    0.00010197    0.00000259
             6             7             8             9            10
    1    0.00010382    0.00131285   -0.00012881   -0.00014010   -0.00075193
    2   -0.00033986   -0.00074799    0.00003549    0.00012722   -0.00048898
    3   -0.00044042    0.00000259    0.00022183    0.00010197   -0.00017336
            11            12            13            14            15
    1    0.00005506   -0.00001322   -0.00001565    0.00001322    0.00001565
    2    0.00037670   -0.00002440   -0.00012423    0.00002440    0.00012423
    3    0.00017597    0.00003817    0.00007324    0.00003817    0.00007324
            16
    1   -0.00010382
    2    0.00033986
    3   -0.00044042
 Gradient time:  CPU 1.53 s  wall 0.10 s
 Geometry Optimization Parameters
   NAtoms,    NIC,     NZ,  NCons,   NDum,   NFix, NCnnct, MaxDiis
       16     111       0       1       0       0       0       0

 Cartesian Hessian Update
 Hessian Updated using BFGS Update


** CONSTRAINED OPTIMIZATION IN DELOCALIZED INTERNAL COORDINATES **
   Searching for a Minimum

   Optimization Cycle:   2

                       Coordinates (Angstroms)
     ATOM                X               Y               Z
      1  S         1.7240155053   -0.9478756519    0.7257050254
      2  C         3.1457192303   -0.1682834281    0.1996061280
      3  C         2.8618472057    0.8541168478   -0.6723481407
      4  C         1.4845440493    0.9955253094   -0.9080621711
      5  C         0.7192360169    0.0811661142   -0.2176750630
      6  H         1.0487594958    1.7241211169   -1.5676391952
      7  C        -0.7192360169   -0.0811661142   -0.2176750630
      8  S        -1.7240155053    0.9478756519    0.7257050254
      9  C        -1.4845440493   -0.9955253094   -0.9080621711
     10  C        -3.1457192303    0.1682834281    0.1996061280
     11  C        -2.8618472057   -0.8541168478   -0.6723481407
     12  H        -3.6200622164   -1.4692317108   -1.1206163954
     13  H         4.1052262047   -0.4956848349    0.5478363901
     14  H         3.6200622164    1.4692317108   -1.1206163954
     15  H        -4.1052262047    0.4956848349    0.5478363901
     16  H        -1.0487594958   -1.7241211169   -1.5676391952
   Point Group: c2    Number of degrees of freedom:    22


   Energy is  -1103.411104040

              Constraints and their Current Values
                                        Value     Constraint
   Dihedral:        4   5   7   9      100.000      100.000
 Hessian Updated using BFGS Update

 20 Hessian modes will be used to form the next step
  Hessian Eigenvalues:
     0.034388    0.045000    0.045000    0.045009    0.048082    0.157839
     0.159987    0.160204    0.221713    0.239169    0.252642    0.321329
     0.339451    0.365562    0.366895    0.370107    0.418151    0.452935
     0.460307    0.499628

 Minimum Search - Taking Simple RFO Step
 Searching for Lamda that Minimizes Along All modes
 Value Taken    Lamda =  -0.00004906
 Step Taken.  Stepsize is  0.032992

                             Maximum     Tolerance    Cnvgd?
         Gradient           0.000926      0.000300      NO
         Displacement       0.023419      0.001200      NO
         Energy change     -0.000220      0.000001      NO


 New Cartesian Coordinates Obtained by Inverse Iteration

 Displacement from previous Coordinates is:  0.072173
 ----------------------------------------------------------------
             Standard Nuclear Orientation (Angstroms)
    I     Atom           X                Y                Z
 ----------------------------------------------------------------
    1      S       1.7262754049    -0.9529785485     0.7226109938
    2      C       3.1450686911    -0.1724826931     0.1928222124
    3      C       2.8595826634     0.8543332482    -0.6741487298
    4      C       1.4816129221     0.9978192126    -0.9029018494
    5      C       0.7201197136     0.0817964677    -0.2112935358
    6      H       1.0415751886     1.7322328352    -1.5530554699
    7      C      -0.7201197136    -0.0817964677    -0.2112935358
    8      S      -1.7262754049     0.9529785485     0.7226109938
    9      C      -1.4816129221    -0.9978192126    -0.9029018494
   10      C      -3.1450686911     0.1724826931     0.1928222124
   11      C      -2.8595826634    -0.8543332482    -0.6741487298
   12      H      -3.6166005130    -1.4708198953    -1.1225348902
   13      H       4.1062341633    -0.5009251405     0.5353078470
   14      H       3.6166005130     1.4708198953    -1.1225348902
   15      H      -4.1062341633     0.5009251405     0.5353078470
   16      H      -1.0415751886    -1.7322328352    -1.5530554699
 ----------------------------------------------------------------
 Molecular Point Group                 C2    NOp =  2
 Largest Abelian Subgroup              C2    NOp =  2
 Nuclear Repulsion Energy =   635.4111382264 hartrees
 There are       43 alpha and       43 beta electrons
 Applying Cartesian multipole field
    Component          Value
    ---------          -----
     (2,0,0)        1.00000E-11
     (0,2,0)        2.00000E-11
     (0,0,2)       -3.00000E-11
 Nucleus-field energy     =     0.0000000145 hartrees
 Requested basis set is cc-pVTZ
 There are 140 shells and 392 basis functions
 A cutoff of  1.0D-11 yielded   8050 shell pairs
 There are     62622 function pairs (     81622 Cartesian)
 Smallest overlap matrix eigenvalue = 9.78E-05
 Guess MOs from SCF MO coefficient file
 Reading MOs from coefficient file
 Reading MOs from coefficient file
 A restricted Hartree-Fock SCF calculation will be
 performed using Pulay DIIS extrapolation
 SCF converges when DIIS error is below 1.0E-08
 Geometry optimization detected.  Setting ReadMinima to 0
 Setting SaveMinima to 0
 using 16 threads for integral computing 
 ---------------------------------------
  Cycle       Energy         DIIS Error
 ---------------------------------------
    1   -1101.5966602357      1.40E-04
    2   -1101.5966777523      1.77E-05
    3   -1101.5966911286      7.86E-06
    4   -1101.5966934091      4.13E-06
    5   -1101.5966941036      1.31E-06
    6   -1101.5966941657      5.14E-07
    7   -1101.5966941785      1.79E-07
    8   -1101.5966941792      6.33E-08
    9   -1101.5966941796      2.60E-08
   10   -1101.5966941792      8.25E-09 Convergence criterion met
 ---------------------------------------
 SCF time:  CPU 639.82 s  wall 40.02 s
 SCF   energy in the final basis set = -1101.5966941792
 Total energy in the final basis set = -1101.5966941792
 
 Components of the MP2 correlation energy:
        aaaa  correlation energy =        -0.2320569424 au
        abab  correlation energy =        -1.3503294676 au
        bbbb  correlation energy =        -0.2320569424 au
        non-Brillouin singles    =        -0.0000000000 au

 Total  MP2   correlation energy =        -1.8144433524 au
        MP2         total energy =     -1103.4111375315 au

  Entering Z-vector solver.
   1         0           1      0.000264    0.000264
   2         0           1      0.000116    0.000116
   3         0           1      0.000048    0.000048
   4         0           1      0.000024    0.000024
   5         0           1      0.000007    0.000007
   6         0           1      0.000002    0.000002
   7         1           0      0.000000    0.000000    Roots Converged
 
 --------------------------------------------------------------
             Orbital Energies (a.u.) and Symmetries
 --------------------------------------------------------------
 
 Alpha MOs, Restricted
 -- Occupied --                  
-91.984 -91.984 -11.272 -11.271 -11.261 -11.261 -11.238 -11.238
  1 B     1 A     2 A     2 B     3 B     3 A     4 A     4 B                  
-11.236 -11.236  -8.985  -8.985  -6.666  -6.666  -6.666  -6.666
  5 B     5 A     6 B     6 A     7 B     7 A     8 A     8 B                  
 -6.665  -6.665  -1.194  -1.166  -1.032  -0.992  -0.990  -0.948
  9 B     9 A    10 A    10 B    11 A    11 B    12 A    12 B                  
 -0.805  -0.767  -0.759  -0.718  -0.703  -0.645  -0.570  -0.568
 13 A    13 B    14 A    14 B    15 A    15 B    16 A    16 B                  
 -0.563  -0.555  -0.538  -0.513  -0.511  -0.477  -0.474  -0.354
 17 A    17 B    18 A    18 B    19 A    19 B    20 A    21 A                  
 -0.344  -0.332  -0.313
 20 B    22 A    21 B                                                          
 -- Virtual --                   
  0.103   0.116   0.150   0.153   0.164   0.172   0.183   0.187
 23 A    22 B    23 B    24 A    25 A    24 B    26 A    25 B                  
  0.190   0.204   0.206   0.225   0.242   0.249   0.319   0.320
 27 A    26 B    28 A    27 B    28 B    29 A    29 B    30 A                  
  0.346   0.354   0.367   0.375   0.388   0.403   0.419   0.427
 30 B    31 A    31 B    32 A    33 A    32 B    33 B    34 A                  
  0.442   0.451   0.452   0.465   0.467   0.483   0.490   0.497
 35 A    36 A    34 B    35 B    37 A    36 B    38 A    37 B                  
  0.509   0.522   0.537   0.543   0.550   0.558   0.570   0.571
 38 B    39 A    39 B    40 B    40 A    41 A    41 B    42 A                  
  0.579   0.579   0.599   0.603   0.606   0.610   0.621   0.622
 43 A    42 B    44 A    43 B    45 A    44 B    45 B    46 A                  
  0.640   0.642   0.658   0.667   0.675   0.686   0.703   0.720
 46 B    47 A    47 B    48 B    48 A    49 A    50 A    49 B                  
  0.753   0.754   0.784   0.787   0.806   0.827   0.844   0.850
 50 B    51 A    51 B    52 A    52 B    53 A    53 B    54 B                  
  0.857   0.875   0.875   0.890   0.906   0.920   0.930   0.945
 54 A    55 A    55 B    56 B    56 A    57 A    57 B    58 A                  
  0.966   0.995   0.998   1.005   1.022   1.031   1.061   1.085
 59 A    58 B    59 B    60 A    61 A    60 B    61 B    62 A                  
  1.100   1.108   1.110   1.124   1.128   1.152   1.172   1.179
 62 B    63 A    63 B    64 A    65 A    64 B    66 A    65 B                  
  1.189   1.193   1.218   1.225   1.241   1.256   1.294   1.303
 67 A    66 B    68 A    67 B    69 A    68 B    70 A    69 B                  
  1.305   1.312   1.327   1.348   1.373   1.380   1.406   1.436
 70 B    71 A    71 B    72 A    72 B    73 A    73 B    74 A                  
  1.437   1.459   1.481   1.492   1.498   1.511   1.518   1.538
 74 B    75 B    75 A    76 A    76 B    77 B    77 A    78 B                  
  1.552   1.559   1.564   1.590   1.592   1.618   1.634   1.646
 79 B    78 A    79 A    80 B    80 A    81 A    81 B    82 A                  
  1.677   1.700   1.709   1.738   1.746   1.754   1.778   1.823
 82 B    83 A    83 B    84 B    84 A    85 B    85 A    86 A                  
  1.832   1.860   1.876   1.897   1.906   1.907   1.919   1.945
 86 B    87 B    87 A    88 B    88 A    89 B    89 A    90 B                  
  1.955   2.020   2.044   2.066   2.068   2.129   2.130   2.141
 90 A    91 B    91 A    92 B    92 A    93 A    93 B    94 A                  
  2.177   2.187   2.195   2.211   2.214   2.237   2.252   2.263
 95 A    94 B    95 B    96 B    96 A    97 A    97 B    98 A                  
  2.288   2.305   2.332   2.393   2.416   2.422   2.452   2.477
 98 B    99 B    99 A   100 A   100 B   101 A   102 A   101 B                  
  2.491   2.507   2.527   2.528   2.544   2.561   2.571   2.599
103 A   102 B   103 B   104 B   104 A   105 A   105 B   106 A                  
  2.614   2.652   2.666   2.689   2.708   2.721   2.747   2.766
106 B   107 B   107 A   108 A   108 B   109 B   109 A   110 B                  
  2.772   2.772   2.779   2.797   2.798   2.871   2.892   2.903
111 B   110 A   111 A   112 B   112 A   113 A   114 A   113 B                  
  2.918   2.927   2.934   2.978   2.997   3.014   3.016   3.028
114 B   115 B   115 A   116 A   117 A   116 B   118 A   117 B                  
  3.047   3.066   3.085   3.143   3.152   3.160   3.169   3.193
119 A   118 B   119 B   120 A   120 B   121 B   121 A   122 A                  
  3.213   3.215   3.241   3.243   3.267   3.267   3.283   3.286
123 A   122 B   124 A   123 B   125 A   124 B   126 A   125 B                  
  3.286   3.292   3.330   3.339   3.355   3.360   3.369   3.405
127 A   126 B   128 A   127 B   128 B   129 A   129 B   130 B                  
  3.416   3.422   3.424   3.451   3.452   3.458   3.469   3.477
130 A   131 B   131 A   132 A   133 A   132 B   134 A   133 B                  
  3.484   3.498   3.510   3.510   3.519   3.527   3.537   3.544
135 A   134 B   135 B   136 A   137 A   136 B   137 B   138 B                  
  3.550   3.573   3.580   3.593   3.611   3.613   3.649   3.660
138 A   139 A   140 A   139 B   141 A   140 B   142 A   141 B                  
  3.692   3.701   3.731   3.734   3.745   3.746   3.784   3.792
143 A   142 B   144 A   143 B   145 A   144 B   146 A   145 B                  
  3.794   3.849   3.867   3.879   3.892   3.911   3.917   3.931
147 A   146 B   147 B   148 A   148 B   149 A   149 B   150 A                  
  3.965   3.973   4.003   4.011   4.022   4.024   4.032   4.060
150 B   151 A   151 B   152 A   152 B   153 A   154 A   153 B                  
  4.068   4.109   4.117   4.148   4.165   4.165   4.186   4.190
154 B   155 B   155 A   156 A   156 B   157 A   157 B   158 A                  
  4.201   4.213   4.231   4.259   4.273   4.276   4.320   4.325
158 B   159 A   160 A   159 B   160 B   161 A   161 B   162 A                  
  4.345   4.375   4.400   4.401   4.447   4.472   4.521   4.527
162 B   163 A   164 A   163 B   164 B   165 A   165 B   166 A                  
  4.549   4.550   4.583   4.610   4.653   4.669   4.693   4.704
167 A   166 B   167 B   168 A   169 A   168 B   170 A   169 B                  
  4.721   4.734   4.752   4.764   4.784   4.824   4.848   4.895
170 B   171 A   171 B   172 B   172 A   173 A   173 B   174 B                  
  4.896   4.939   4.981   4.991   5.049   5.067   5.073   5.075
174 A   175 A   175 B   176 A   176 B   177 A   178 A   177 B                  
  5.094   5.094   5.188   5.241   5.242   5.297   5.299   5.378
178 B   179 A   179 B   180 A   180 B   181 B   181 A   182 A                  
  5.386   5.419   5.424   5.503   5.567   5.598   5.656   5.666
182 B   183 A   183 B   184 A   184 B   185 A   186 A   185 B                  
  5.804   5.883   5.948   6.025   6.089   6.128   6.183   6.195
186 B   187 A   187 B   188 A   188 B   189 A   189 B   190 A                  
  6.212   6.546   6.563   6.708   6.748   9.505  10.654  11.910
190 B   191 A   191 B   192 A   192 B   193 A   193 B   194 A                  
 12.152  13.502  13.554  14.584  14.628
194 B   195 A   195 B   196 A   196 B                                          
 
 Beta MOs, Restricted
 -- Occupied --                  
-91.984 -91.984 -11.272 -11.271 -11.261 -11.261 -11.238 -11.238
  1 B     1 A     2 A     2 B     3 B     3 A     4 A     4 B                  
-11.236 -11.236  -8.985  -8.985  -6.666  -6.666  -6.666  -6.666
  5 B     5 A     6 B     6 A     7 B     7 A     8 A     8 B                  
 -6.665  -6.665  -1.194  -1.166  -1.032  -0.992  -0.990  -0.948
  9 B     9 A    10 A    10 B    11 A    11 B    12 A    12 B                  
 -0.805  -0.767  -0.759  -0.718  -0.703  -0.645  -0.570  -0.568
 13 A    13 B    14 A    14 B    15 A    15 B    16 A    16 B                  
 -0.563  -0.555  -0.538  -0.513  -0.511  -0.477  -0.474  -0.354
 17 A    17 B    18 A    18 B    19 A    19 B    20 A    21 A                  
 -0.344  -0.332  -0.313
 20 B    22 A    21 B                                                          
 -- Virtual --                   
  0.103   0.116   0.150   0.153   0.164   0.172   0.183   0.187
 23 A    22 B    23 B    24 A    25 A    24 B    26 A    25 B                  
  0.190   0.204   0.206   0.225   0.242   0.249   0.319   0.320
 27 A    26 B    28 A    27 B    28 B    29 A    29 B    30 A                  
  0.346   0.354   0.367   0.375   0.388   0.403   0.419   0.427
 30 B    31 A    31 B    32 A    33 A    32 B    33 B    34 A                  
  0.442   0.451   0.452   0.465   0.467   0.483   0.490   0.497
 35 A    36 A    34 B    35 B    37 A    36 B    38 A    37 B                  
  0.509   0.522   0.537   0.543   0.550   0.558   0.570   0.571
 38 B    39 A    39 B    40 B    40 A    41 A    41 B    42 A                  
  0.579   0.579   0.599   0.603   0.606   0.610   0.621   0.622
 43 A    42 B    44 A    43 B    45 A    44 B    45 B    46 A                  
  0.640   0.642   0.658   0.667   0.675   0.686   0.703   0.720
 46 B    47 A    47 B    48 B    48 A    49 A    50 A    49 B                  
  0.753   0.754   0.784   0.787   0.806   0.827   0.844   0.850
 50 B    51 A    51 B    52 A    52 B    53 A    53 B    54 B                  
  0.857   0.875   0.875   0.890   0.906   0.920   0.930   0.945
 54 A    55 A    55 B    56 B    56 A    57 A    57 B    58 A                  
  0.966   0.995   0.998   1.005   1.022   1.031   1.061   1.085
 59 A    58 B    59 B    60 A    61 A    60 B    61 B    62 A                  
  1.100   1.108   1.110   1.124   1.128   1.152   1.172   1.179
 62 B    63 A    63 B    64 A    65 A    64 B    66 A    65 B                  
  1.189   1.193   1.218   1.225   1.241   1.256   1.294   1.303
 67 A    66 B    68 A    67 B    69 A    68 B    70 A    69 B                  
  1.305   1.312   1.327   1.348   1.373   1.380   1.406   1.436
 70 B    71 A    71 B    72 A    72 B    73 A    73 B    74 A                  
  1.437   1.459   1.481   1.492   1.498   1.511   1.518   1.538
 74 B    75 B    75 A    76 A    76 B    77 B    77 A    78 B                  
  1.552   1.559   1.564   1.590   1.592   1.618   1.634   1.646
 79 B    78 A    79 A    80 B    80 A    81 A    81 B    82 A                  
  1.677   1.700   1.709   1.738   1.746   1.754   1.778   1.823
 82 B    83 A    83 B    84 B    84 A    85 B    85 A    86 A                  
  1.832   1.860   1.876   1.897   1.906   1.907   1.919   1.945
 86 B    87 B    87 A    88 B    88 A    89 B    89 A    90 B                  
  1.955   2.020   2.044   2.066   2.068   2.129   2.130   2.141
 90 A    91 B    91 A    92 B    92 A    93 A    93 B    94 A                  
  2.177   2.187   2.195   2.211   2.214   2.237   2.252   2.263
 95 A    94 B    95 B    96 B    96 A    97 A    97 B    98 A                  
  2.288   2.305   2.332   2.393   2.416   2.422   2.452   2.477
 98 B    99 B    99 A   100 A   100 B   101 A   102 A   101 B                  
  2.491   2.507   2.527   2.528   2.544   2.561   2.571   2.599
103 A   102 B   103 B   104 B   104 A   105 A   105 B   106 A                  
  2.614   2.652   2.666   2.689   2.708   2.721   2.747   2.766
106 B   107 B   107 A   108 A   108 B   109 B   109 A   110 B                  
  2.772   2.772   2.779   2.797   2.798   2.871   2.892   2.903
111 B   110 A   111 A   112 B   112 A   113 A   114 A   113 B                  
  2.918   2.927   2.934   2.978   2.997   3.014   3.016   3.028
114 B   115 B   115 A   116 A   117 A   116 B   118 A   117 B                  
  3.047   3.066   3.085   3.143   3.152   3.160   3.169   3.193
119 A   118 B   119 B   120 A   120 B   121 B   121 A   122 A                  
  3.213   3.215   3.241   3.243   3.267   3.267   3.283   3.286
123 A   122 B   124 A   123 B   125 A   124 B   126 A   125 B                  
  3.286   3.292   3.330   3.339   3.355   3.360   3.369   3.405
127 A   126 B   128 A   127 B   128 B   129 A   129 B   130 B                  
  3.416   3.422   3.424   3.451   3.452   3.458   3.469   3.477
130 A   131 B   131 A   132 A   133 A   132 B   134 A   133 B                  
  3.484   3.498   3.510   3.510   3.519   3.527   3.537   3.544
135 A   134 B   135 B   136 A   137 A   136 B   137 B   138 B                  
  3.550   3.573   3.580   3.593   3.611   3.613   3.649   3.660
138 A   139 A   140 A   139 B   141 A   140 B   142 A   141 B                  
  3.692   3.701   3.731   3.734   3.745   3.746   3.784   3.792
143 A   142 B   144 A   143 B   145 A   144 B   146 A   145 B                  
  3.794   3.849   3.867   3.879   3.892   3.911   3.917   3.931
147 A   146 B   147 B   148 A   148 B   149 A   149 B   150 A                  
  3.965   3.973   4.003   4.011   4.022   4.024   4.032   4.060
150 B   151 A   151 B   152 A   152 B   153 A   154 A   153 B                  
  4.068   4.109   4.117   4.148   4.165   4.165   4.186   4.190
154 B   155 B   155 A   156 A   156 B   157 A   157 B   158 A                  
  4.201   4.213   4.231   4.259   4.273   4.276   4.320   4.325
158 B   159 A   160 A   159 B   160 B   161 A   161 B   162 A                  
  4.345   4.375   4.400   4.401   4.447   4.472   4.521   4.527
162 B   163 A   164 A   163 B   164 B   165 A   165 B   166 A                  
  4.549   4.550   4.583   4.610   4.653   4.669   4.693   4.704
167 A   166 B   167 B   168 A   169 A   168 B   170 A   169 B                  
  4.721   4.734   4.752   4.764   4.784   4.824   4.848   4.895
170 B   171 A   171 B   172 B   172 A   173 A   173 B   174 B                  
  4.896   4.939   4.981   4.991   5.049   5.067   5.073   5.075
174 A   175 A   175 B   176 A   176 B   177 A   178 A   177 B                  
  5.094   5.094   5.188   5.241   5.242   5.297   5.299   5.378
178 B   179 A   179 B   180 A   180 B   181 B   181 A   182 A                  
  5.386   5.419   5.424   5.503   5.567   5.598   5.656   5.666
182 B   183 A   183 B   184 A   184 B   185 A   186 A   185 B                  
  5.804   5.883   5.948   6.025   6.089   6.128   6.183   6.195
186 B   187 A   187 B   188 A   188 B   189 A   189 B   190 A                  
  6.212   6.546   6.563   6.708   6.748   9.505  10.654  11.910
190 B   191 A   191 B   192 A   192 B   193 A   193 B   194 A                  
 12.152  13.502  13.554  14.584  14.628
194 B   195 A   195 B   196 A   196 B                                          
 --------------------------------------------------------------
 
          Ground-State Mulliken Net Atomic Charges

     Atom                 Charge (a.u.)
  ----------------------------------------
      1 S                     0.131051
      2 C                    -0.239762
      3 C                    -0.191136
      4 C                    -0.194962
      5 C                    -0.040611
      6 H                     0.176595
      7 C                    -0.040611
      8 S                     0.131051
      9 C                    -0.194962
     10 C                    -0.239762
     11 C                    -0.191136
     12 H                     0.174625
     13 H                     0.184199
     14 H                     0.174625
     15 H                     0.184199
     16 H                     0.176595
  ----------------------------------------
  Sum of atomic charges =    -0.000000

 -----------------------------------------------------------------
                    Cartesian Multipole Moments
 -----------------------------------------------------------------
    Charge (ESU x 10^10)
                 0.0000
    Dipole Moment (Debye)
         X      -0.0000      Y       0.0000      Z      -0.4861
       Tot       0.4861
    Quadrupole Moments (Debye-Ang)
        XX     -61.3876     XY       0.8681     YY     -71.8908
        XZ       0.0000     YZ       0.0000     ZZ     -73.6028
    Octopole Moments (Debye-Ang^2)
       XXX      -0.0000    XXY      -0.0000    XYY       0.0000
       YYY       0.0000    XXZ       6.0059    XYZ     -12.5553
       YYZ      -4.7321    XZZ      -0.0000    YZZ       0.0000
       ZZZ       3.4830
    Hexadecapole Moments (Debye-Ang^3)
      XXXX   -1840.2709   XXXY      -7.2421   XXYY    -405.2785
      XYYY       2.5104   YYYY    -387.6772   XXXZ       0.0000
      XXYZ      -0.0000   XYYZ      -0.0000   YYYZ       0.0000
      XXZZ    -405.4399   XYZZ       4.8841   YYZZ    -101.3971
      XZZZ       0.0000   YZZZ       0.0000   ZZZZ    -295.9048
 -----------------------------------------------------------------
 DrvMan is completing analytic gradient of the MP2 energy
 MP2 relaxed dipole moment
            1
    1  -0.0000000
    2   0.0000000
    3  -0.1912588
	Magnitude:	 0.191 au	 0.486 Debye
 MP2 energy read as -1103.411138
 Full Analytical Gradient of MP2 Energy (in au.)
             1             2             3             4             5
    1    0.00019876   -0.00014335   -0.00012751    0.00013904    0.00077504
    2   -0.00006567    0.00004959   -0.00004995   -0.00048317    0.00114730
    3    0.00024572    0.00014135   -0.00018695   -0.00030896    0.00026369
             6             7             8             9            10
    1    0.00002134   -0.00077504   -0.00019876   -0.00013904    0.00014335
    2   -0.00017891   -0.00114730    0.00006567    0.00048317   -0.00004959
    3   -0.00019524    0.00026369    0.00024572   -0.00030896    0.00014135
            11            12            13            14            15
    1    0.00012751    0.00002494   -0.00003633   -0.00002494    0.00003633
    2    0.00004995   -0.00008161   -0.00003535    0.00008161    0.00003535
    3   -0.00018695    0.00001278    0.00002761    0.00001278    0.00002761
            16
    1   -0.00002134
    2    0.00017891
    3   -0.00019524
 Gradient time:  CPU 1.52 s  wall 0.10 s
 Geometry Optimization Parameters
   NAtoms,    NIC,     NZ,  NCons,   NDum,   NFix, NCnnct, MaxDiis
       16     111       0       1       0       0       0       0

 Cartesian Hessian Update
 Hessian Updated using BFGS Update


** CONSTRAINED OPTIMIZATION IN DELOCALIZED INTERNAL COORDINATES **
   Searching for a Minimum

   Optimization Cycle:   3

                       Coordinates (Angstroms)
     ATOM                X               Y               Z
      1  S         1.7262754049   -0.9529785485    0.7226109938
      2  C         3.1450686911   -0.1724826931    0.1928222124
      3  C         2.8595826634    0.8543332482   -0.6741487298
      4  C         1.4816129221    0.9978192126   -0.9029018494
      5  C         0.7201197136    0.0817964677   -0.2112935358
      6  H         1.0415751886    1.7322328352   -1.5530554699
      7  C        -0.7201197136   -0.0817964677   -0.2112935358
      8  S        -1.7262754049    0.9529785485    0.7226109938
[...]
         Gradient           0.000050      0.000300     YES
         Displacement       0.000982      0.001200     YES
         Energy change     -0.000000      0.000001     YES

 Final energy is   -1103.41117463281     


 ******************************
 **  OPTIMIZATION CONVERGED  **
 ******************************

                       Coordinates (Angstroms)
     ATOM                X               Y               Z
      1  S         1.7358413275   -0.9681029526    0.7093384970
      2  C         3.1494931478   -0.1847172611    0.1693738687
      3  C         2.8539181773    0.8575712177   -0.6753478869
      4  C         1.4730693155    1.0087446907   -0.8812209055
      5  C         0.7187824219    0.0867334855   -0.1889562474
      6  H         1.0255791905    1.7559615468   -1.5114350439
      7  C        -0.7187824219   -0.0867334855   -0.1889562474
      8  S        -1.7358413275    0.9681029526    0.7093384970
      9  C        -1.4730693155   -1.0087446907   -0.8812209055
     10  C        -3.1494931478    0.1847172611    0.1693738687
     11  C        -2.8539181773   -0.8575712177   -0.6753478869
     12  H        -3.6063860190   -1.4773207221   -1.1268458634
     13  H         4.1147992484   -0.5211283430    0.4919001597
     14  H         3.6063860190    1.4773207221   -1.1268458634
     15  H        -4.1147992484    0.5211283430    0.4919001597
     16  H        -1.0255791905   -1.7559615468   -1.5114350439

Z-matrix Print:
$molecule
0 1
S 
C  1 1.704015
H  2 1.071920 1 120.494962
C  2 1.373785 1 111.416706 3 -179.970862 0
H  4 1.074313 2 123.051788 1 179.846220 0
C  4 1.404272 2 112.543583 1 0.197301 0
H  6 1.075058 4 124.755084 2 179.494523 0
C  6 1.377782 4 113.118269 2 -0.293807 0
C  8 1.447993 6 128.586157 4 177.998939 0
C  9 1.377782 8 128.586157 6 -100.000000 0
H  10 1.075058 9 122.126298 8 -1.795710 0
C  10 1.404272 9 113.118269 8 177.998939 0
H  12 1.074313 10 124.403620 9 -179.937152 0
C  12 1.373785 10 112.543583 9 -0.293807 0
H  14 1.071920 12 128.088324 10 -179.770800 0
S  14 1.704015 12 111.416706 10 0.197301 0
$end

 
 --------------------------------------------------------------
             Orbital Energies (a.u.) and Symmetries
 --------------------------------------------------------------
 
 Alpha MOs, Restricted
 -- Occupied --                  
-91.984 -91.984 -11.272 -11.271 -11.261 -11.261 -11.238 -11.238
  1 B     1 A     2 A     2 B     3 B     3 A     4 A     4 B                  
-11.236 -11.236  -8.985  -8.985  -6.666  -6.666  -6.666  -6.666
  5 B     5 A     6 B     6 A     7 B     7 A     8 A     8 B                  
 -6.665  -6.665  -1.194  -1.166  -1.032  -0.993  -0.989  -0.948
  9 B     9 A    10 A    10 B    11 A    11 B    12 A    12 B                  
 -0.806  -0.767  -0.758  -0.718  -0.703  -0.645  -0.570  -0.568
 13 A    13 B    14 A    14 B    15 A    15 B    16 A    16 B                  
 -0.563  -0.555  -0.539  -0.513  -0.511  -0.477  -0.474  -0.354
 17 A    17 B    18 A    18 B    19 A    19 B    20 A    21 A                  
 -0.344  -0.334  -0.312
 20 B    22 A    21 B                                                          
 -- Virtual --                   
  0.101   0.117   0.150   0.153   0.164   0.172   0.183   0.186
 23 A    22 B    23 B    24 A    25 A    24 B    26 A    25 B                  
  0.190   0.204   0.206   0.225   0.241   0.250   0.319   0.321
 27 A    26 B    28 A    27 B    28 B    29 A    29 B    30 A                  
  0.346   0.354   0.368   0.375   0.388   0.403   0.419   0.428
 30 B    31 A    31 B    32 A    33 A    32 B    33 B    34 A                  
  0.442   0.451   0.452   0.463   0.467   0.484   0.492   0.499
 35 A    36 A    34 B    35 B    37 A    36 B    38 A    37 B                  
  0.507   0.522   0.538   0.544   0.551   0.558   0.569   0.571
 38 B    39 A    39 B    40 B    40 A    41 A    41 B    42 A                  
  0.578   0.579   0.599   0.603   0.606   0.610   0.621   0.622
 42 B    43 A    44 A    43 B    45 A    44 B    45 B    46 A                  
  0.640   0.643   0.659   0.666   0.676   0.686   0.702   0.720
 46 B    47 A    47 B    48 B    48 A    49 A    50 A    49 B                  
  0.753   0.754   0.783   0.786   0.806   0.827   0.844   0.850
 50 B    51 A    51 B    52 A    52 B    53 A    53 B    54 B                  
  0.858   0.872   0.877   0.892   0.907   0.920   0.931   0.943
 54 A    55 B    55 A    56 B    56 A    57 A    57 B    58 A                  
  0.963   0.996   1.001   1.005   1.023   1.031   1.062   1.087
 59 A    58 B    59 B    60 A    61 A    60 B    61 B    62 A                  
  1.099   1.107   1.109   1.122   1.125   1.152   1.172   1.180
 62 B    63 A    63 B    64 A    65 A    64 B    66 A    65 B                  
  1.188   1.194   1.218   1.225   1.243   1.256   1.295   1.300
 67 A    66 B    68 A    67 B    69 A    68 B    70 A    69 B                  
  1.304   1.311   1.333   1.348   1.374   1.379   1.407   1.435
 70 B    71 A    71 B    72 A    72 B    73 A    73 B    74 A                  
  1.437   1.459   1.482   1.492   1.497   1.511   1.517   1.539
 74 B    75 B    75 A    76 A    76 B    77 B    77 A    78 B                  
  1.553   1.557   1.564   1.590   1.591   1.617   1.634   1.644
 79 B    78 A    79 A    80 B    80 A    81 A    81 B    82 A                  
  1.678   1.702   1.708   1.738   1.748   1.750   1.778   1.822
 82 B    83 A    83 B    84 B    84 A    85 B    85 A    86 A                  
  1.834   1.860   1.876   1.897   1.908   1.909   1.918   1.944
 86 B    87 B    87 A    88 B    89 B    88 A    89 A    90 B                  
  1.954   2.016   2.045   2.068   2.068   2.128   2.130   2.144
 90 A    91 B    91 A    92 B    92 A    93 A    93 B    94 A                  
  2.175   2.189   2.198   2.209   2.219   2.234   2.253   2.264
 95 A    94 B    95 B    96 B    96 A    97 A    97 B    98 A                  
  2.288   2.307   2.334   2.389   2.414   2.422   2.453   2.476
 98 B    99 B    99 A   100 A   100 B   101 A   102 A   101 B                  
  2.490   2.506   2.526   2.527   2.542   2.562   2.570   2.598
103 A   102 B   103 B   104 B   104 A   105 A   105 B   106 A                  
  2.615   2.654   2.672   2.692   2.705   2.721   2.748   2.765
106 B   107 B   107 A   108 A   108 B   109 B   109 A   110 B                  
  2.773   2.773   2.779   2.797   2.798   2.872   2.892   2.903
111 B   110 A   111 A   112 A   112 B   113 A   114 A   113 B                  
  2.914   2.927   2.934   2.977   2.996   3.015   3.016   3.028
114 B   115 B   115 A   116 A   117 A   116 B   118 A   117 B                  
  3.047   3.066   3.082   3.142   3.156   3.162   3.169   3.192
119 A   118 B   119 B   120 A   120 B   121 B   121 A   122 A                  
  3.210   3.217   3.241   3.244   3.267   3.274   3.278   3.285
123 A   122 B   124 A   123 B   125 A   124 B   126 A   127 A                  
  3.286   3.292   3.331   3.340   3.354   3.360   3.367   3.403
125 B   126 B   128 A   127 B   128 B   129 A   129 B   130 B                  
  3.416   3.423   3.425   3.452   3.453   3.458   3.469   3.479
130 A   131 B   131 A   132 A   133 A   132 B   134 A   133 B                  
  3.484   3.499   3.510   3.510   3.517   3.527   3.537   3.545
135 A   134 B   135 B   136 A   137 A   136 B   137 B   138 B                  
  3.551   3.571   3.579   3.593   3.609   3.614   3.649   3.661
138 A   139 A   140 A   139 B   141 A   140 B   142 A   141 B                  
  3.690   3.700   3.731   3.737   3.744   3.747   3.783   3.790
143 A   142 B   144 A   143 B   145 A   144 B   146 A   145 B                  
  3.800   3.849   3.864   3.880   3.892   3.912   3.916   3.931
147 A   146 B   147 B   148 A   148 B   149 A   149 B   150 A                  
  3.966   3.973   4.004   4.009   4.021   4.026   4.032   4.060
150 B   151 A   151 B   152 A   152 B   153 A   154 A   153 B                  
  4.062   4.112   4.115   4.147   4.165   4.165   4.185   4.189
154 B   155 B   155 A   156 A   156 B   157 A   157 B   158 A                  
  4.203   4.214   4.233   4.259   4.274   4.276   4.321   4.326
158 B   159 A   160 A   159 B   160 B   161 A   161 B   162 A                  
  4.345   4.376   4.401   4.402   4.444   4.472   4.521   4.528
162 B   163 A   163 B   164 A   164 B   165 A   165 B   166 A                  
  4.549   4.552   4.583   4.610   4.652   4.670   4.695   4.705
167 A   166 B   167 B   168 A   169 A   168 B   170 A   169 B                  
  4.719   4.734   4.751   4.765   4.785   4.825   4.847   4.894
170 B   171 A   171 B   172 B   172 A   173 A   173 B   174 B                  
  4.898   4.937   4.984   4.994   5.051   5.068   5.072   5.074
174 A   175 A   175 B   176 A   176 B   177 A   178 A   177 B                  
  5.093   5.094   5.188   5.240   5.241   5.296   5.301   5.378
178 B   179 A   179 B   180 B   180 A   181 B   181 A   182 A                  
  5.386   5.419   5.424   5.503   5.567   5.599   5.657   5.664
182 B   183 A   183 B   184 A   184 B   185 A   186 A   185 B                  
  5.807   5.882   5.946   6.026   6.091   6.129   6.183   6.194
186 B   187 A   187 B   188 A   188 B   189 A   189 B   190 A                  
  6.213   6.546   6.564   6.704   6.751   9.497  10.663  11.909
190 B   191 A   191 B   192 A   192 B   193 A   193 B   194 A                  
 12.163  13.507  13.559  14.584  14.630
194 B   195 A   195 B   196 A   196 B                                          
 
 Beta MOs, Restricted
 -- Occupied --                  
-91.984 -91.984 -11.272 -11.271 -11.261 -11.261 -11.238 -11.238
  1 B     1 A     2 A     2 B     3 B     3 A     4 A     4 B                  
-11.236 -11.236  -8.985  -8.985  -6.666  -6.666  -6.666  -6.666
  5 B     5 A     6 B     6 A     7 B     7 A     8 A     8 B                  
 -6.665  -6.665  -1.194  -1.166  -1.032  -0.993  -0.989  -0.948
  9 B     9 A    10 A    10 B    11 A    11 B    12 A    12 B                  
 -0.806  -0.767  -0.758  -0.718  -0.703  -0.645  -0.570  -0.568
 13 A    13 B    14 A    14 B    15 A    15 B    16 A    16 B                  
 -0.563  -0.555  -0.539  -0.513  -0.511  -0.477  -0.474  -0.354
 17 A    17 B    18 A    18 B    19 A    19 B    20 A    21 A                  
 -0.344  -0.334  -0.312
 20 B    22 A    21 B                                                          
 -- Virtual --                   
  0.101   0.117   0.150   0.153   0.164   0.172   0.183   0.186
 23 A    22 B    23 B    24 A    25 A    24 B    26 A    25 B                  
  0.190   0.204   0.206   0.225   0.241   0.250   0.319   0.321
 27 A    26 B    28 A    27 B    28 B    29 A    29 B    30 A                  
  0.346   0.354   0.368   0.375   0.388   0.403   0.419   0.428
 30 B    31 A    31 B    32 A    33 A    32 B    33 B    34 A                  
  0.442   0.451   0.452   0.463   0.467   0.484   0.492   0.499
 35 A    36 A    34 B    35 B    37 A    36 B    38 A    37 B                  
  0.507   0.522   0.538   0.544   0.551   0.558   0.569   0.571
 38 B    39 A    39 B    40 B    40 A    41 A    41 B    42 A                  
  0.578   0.579   0.599   0.603   0.606   0.610   0.621   0.622
 42 B    43 A    44 A    43 B    45 A    44 B    45 B    46 A                  
  0.640   0.643   0.659   0.666   0.676   0.686   0.702   0.720
 46 B    47 A    47 B    48 B    48 A    49 A    50 A    49 B                  
  0.753   0.754   0.783   0.786   0.806   0.827   0.844   0.850
 50 B    51 A    51 B    52 A    52 B    53 A    53 B    54 B                  
  0.858   0.872   0.877   0.892   0.907   0.920   0.931   0.943
 54 A    55 B    55 A    56 B    56 A    57 A    57 B    58 A                  
  0.963   0.996   1.001   1.005   1.023   1.031   1.062   1.087
 59 A    58 B    59 B    60 A    61 A    60 B    61 B    62 A                  
  1.099   1.107   1.109   1.122   1.125   1.152   1.172   1.180
 62 B    63 A    63 B    64 A    65 A    64 B    66 A    65 B                  
  1.188   1.194   1.218   1.225   1.243   1.256   1.295   1.300
 67 A    66 B    68 A    67 B    69 A    68 B    70 A    69 B                  
  1.304   1.311   1.333   1.348   1.374   1.379   1.407   1.435
 70 B    71 A    71 B    72 A    72 B    73 A    73 B    74 A                  
  1.437   1.459   1.482   1.492   1.497   1.511   1.517   1.539
 74 B    75 B    75 A    76 A    76 B    77 B    77 A    78 B                  
  1.553   1.557   1.564   1.590   1.591   1.617   1.634   1.644
 79 B    78 A    79 A    80 B    80 A    81 A    81 B    82 A                  
  1.678   1.702   1.708   1.738   1.748   1.750   1.778   1.822
 82 B    83 A    83 B    84 B    84 A    85 B    85 A    86 A                  
  1.834   1.860   1.876   1.897   1.908   1.909   1.918   1.944
 86 B    87 B    87 A    88 B    89 B    88 A    89 A    90 B                  
  1.954   2.016   2.045   2.068   2.068   2.128   2.130   2.144
 90 A    91 B    91 A    92 B    92 A    93 A    93 B    94 A                  
  2.175   2.189   2.198   2.209   2.219   2.234   2.253   2.264
 95 A    94 B    95 B    96 B    96 A    97 A    97 B    98 A                  
  2.288   2.307   2.334   2.389   2.414   2.422   2.453   2.476
 98 B    99 B    99 A   100 A   100 B   101 A   102 A   101 B                  
  2.490   2.506   2.526   2.527   2.542   2.562   2.570   2.598
103 A   102 B   103 B   104 B   104 A   105 A   105 B   106 A                  
  2.615   2.654   2.672   2.692   2.705   2.721   2.748   2.765
106 B   107 B   107 A   108 A   108 B   109 B   109 A   110 B                  
  2.773   2.773   2.779   2.797   2.798   2.872   2.892   2.903
111 B   110 A   111 A   112 A   112 B   113 A   114 A   113 B                  
  2.914   2.927   2.934   2.977   2.996   3.015   3.016   3.028
114 B   115 B   115 A   116 A   117 A   116 B   118 A   117 B                  
  3.047   3.066   3.082   3.142   3.156   3.162   3.169   3.192
119 A   118 B   119 B   120 A   120 B   121 B   121 A   122 A                  
  3.210   3.217   3.241   3.244   3.267   3.274   3.278   3.285
123 A   122 B   124 A   123 B   125 A   124 B   126 A   127 A                  
  3.286   3.292   3.331   3.340   3.354   3.360   3.367   3.403
125 B   126 B   128 A   127 B   128 B   129 A   129 B   130 B                  
  3.416   3.423   3.425   3.452   3.453   3.458   3.469   3.479
130 A   131 B   131 A   132 A   133 A   132 B   134 A   133 B                  
  3.484   3.499   3.510   3.510   3.517   3.527   3.537   3.545
135 A   134 B   135 B   136 A   137 A   136 B   137 B   138 B                  
  3.551   3.571   3.579   3.593   3.609   3.614   3.649   3.661
138 A   139 A   140 A   139 B   141 A   140 B   142 A   141 B                  
  3.690   3.700   3.731   3.737   3.744   3.747   3.783   3.790
143 A   142 B   144 A   143 B   145 A   144 B   146 A   145 B                  
  3.800   3.849   3.864   3.880   3.892   3.912   3.916   3.931
147 A   146 B   147 B   148 A   148 B   149 A   149 B   150 A                  
  3.966   3.973   4.004   4.009   4.021   4.026   4.032   4.060
150 B   151 A   151 B   152 A   152 B   153 A   154 A   153 B                  
  4.062   4.112   4.115   4.147   4.165   4.165   4.185   4.189
154 B   155 B   155 A   156 A   156 B   157 A   157 B   158 A                  
  4.203   4.214   4.233   4.259   4.274   4.276   4.321   4.326
158 B   159 A   160 A   159 B   160 B   161 A   161 B   162 A                  
  4.345   4.376   4.401   4.402   4.444   4.472   4.521   4.528
162 B   163 A   163 B   164 A   164 B   165 A   165 B   166 A                  
  4.549   4.552   4.583   4.610   4.652   4.670   4.695   4.705
167 A   166 B   167 B   168 A   169 A   168 B   170 A   169 B                  
  4.719   4.734   4.751   4.765   4.785   4.825   4.847   4.894
170 B   171 A   171 B   172 B   172 A   173 A   173 B   174 B                  
  4.898   4.937   4.984   4.994   5.051   5.068   5.072   5.074
174 A   175 A   175 B   176 A   176 B   177 A   178 A   177 B                  
  5.093   5.094   5.188   5.240   5.241   5.296   5.301   5.378
178 B   179 A   179 B   180 B   180 A   181 B   181 A   182 A                  
  5.386   5.419   5.424   5.503   5.567   5.599   5.657   5.664
182 B   183 A   183 B   184 A   184 B   185 A   186 A   185 B                  
  5.807   5.882   5.946   6.026   6.091   6.129   6.183   6.194
186 B   187 A   187 B   188 A   188 B   189 A   189 B   190 A                  
  6.213   6.546   6.564   6.704   6.751   9.497  10.663  11.909
190 B   191 A   191 B   192 A   192 B   193 A   193 B   194 A                  
 12.163  13.507  13.559  14.584  14.630
194 B   195 A   195 B   196 A   196 B                                          
 --------------------------------------------------------------
 
          Ground-State Mulliken Net Atomic Charges

     Atom                 Charge (a.u.)
  ----------------------------------------
      1 S                     0.130790
      2 C                    -0.239787
      3 C                    -0.191634
      4 C                    -0.194158
      5 C                    -0.040847
      6 H                     0.176821
      7 C                    -0.040847
      8 S                     0.130790
      9 C                    -0.194158
     10 C                    -0.239787
     11 C                    -0.191634
     12 H                     0.174563
     13 H                     0.184251
     14 H                     0.174563
     15 H                     0.184251
     16 H                     0.176821
  ----------------------------------------
  Sum of atomic charges =    -0.000000

 -----------------------------------------------------------------
                    Cartesian Multipole Moments
 -----------------------------------------------------------------
    Charge (ESU x 10^10)
                -0.0000
    Dipole Moment (Debye)
         X       0.0000      Y      -0.0000      Z      -0.5097
       Tot       0.5097
    Quadrupole Moments (Debye-Ang)
        XX     -61.3585     XY       0.7479     YY     -71.7399
        XZ       0.0000     YZ      -0.0000     ZZ     -73.8022
    Octopole Moments (Debye-Ang^2)
       XXX      -0.0000    XXY      -0.0000    XYY       0.0000
       YYY      -0.0000    XXZ       5.2954    XYZ     -12.4163
       YYZ      -4.6398    XZZ       0.0000    YZZ      -0.0000
       ZZZ       4.1139
    Hexadecapole Moments (Debye-Ang^3)
      XXXX   -1840.9760   XXXY      -6.4488   XXYY    -405.9979
      XYYY       6.4051   YYYY    -394.4988   XXXZ      -0.0000
      XXYZ       0.0000   XYYZ       0.0000   YYYZ      -0.0000
      XXZZ    -406.2224   XYZZ       6.3469   YYZZ    -101.6554
      XZZZ       0.0000   YZZZ      -0.0000   ZZZZ    -288.7509
 -----------------------------------------------------------------
Archival summary:
1\1\nid01261\OPT\MP2\BasisUnspecified\286\MonMar617:17:542017MonMar617:17:542017\0\\#,OPT,MP2,BasisUnspecified,\\0,1\S\C,1,1.70401\H,2,1.07192,1,120.495\C,2,1.37378,1,111.417,3,-179.971,0\H,4,1.07431,2,123.052,1,179.846,0\C,4,1.40427,2,112.544,1,0.197301,0\H,6,1.07506,4,124.755,2,179.495,0\C,6,1.37778,4,113.118,2,-0.293807,0\C,8,1.44799,6,128.586,4,177.999,0\C,9,1.37778,8,128.586,6,-100,0\H,10,1.07506,9,122.126,8,-1.79571,0\C,10,1.40427,9,113.118,8,177.999,0\H,12,1.07431,10,124.404,9,-179.937,0\C,12,1.37378,10,112.544,9,-0.293807,0\H,14,1.07192,12,128.088,10,-179.771,0\S,14,1.70401,12,111.417,10,0.197301,0\\HF=-1101.59663\MP2=-1103.41117\\@

 Total job time:  11854.45s(wall), 61473.37s(cpu) 
 Mon Mar  6 17:17:54 2017

        *************************************************************
        *                                                           *
        *  Thank you very much for using Q-Chem.  Have a nice day.  *
        *                                                           *
        *************************************************************


0 sent ACK to 0 
now end server 0 ... 
