srun -N 1 --ntasks-per-node 1 --cpus-per-task 64 --cpu_bind=cores --nodelist nid01244 /global/project/projectdirs/jcesr/qchem/qc44/cnl_qc441/dist/exe/qcprog.cori.haswell.exe .pt_mp2_-90.0.in.29089.qcin.1 /dev/shm/eg_qchem/qchem29089/
Process 0 of 1 is on nid01244 - thread support 0
initial socket setup ...start
initial socket setup ...done 
now start server 0 ... 
nid01244 10.128.4
Q-Chem Developer Version! Running on 10.128.4.*
                  Welcome to Q-Chem
     A Quantum Leap Into The Future Of Chemistry


 Q-Chem 4.4, Q-Chem, Inc., Pleasanton, CA (2016)

 Y. Shao,  Z. Gan,  E. Epifanovsky,  A. T. B. Gilbert,  M. Wormit,  
 J. Kussmann,  A. W. Lange,  A. Behn,  J. Deng,  X. Feng,  D. Ghosh,  
 M. Goldey,  P. R. Horn,  L. D. Jacobson,  I. Kaliman,  F.Rob,  
 R. Z. Khaliullin,  T. Kus,  A. Landau,  J. Liu,  E. I. Proynov,  Y. M. Rhee,  
 R. M. Richard,  M. A. Rohrdanz,  R. P. Steele,  E. J. Sundstrom,  
 H. L. Woodcock III,  P. M. Zimmerman,  D. Zuev,  B. Albrecht,  E. Alguire,  
 B. Austin,  S. A. Baeppler,  G. J. O. Beran,  Y. A. Bernard,  E. Berquist,  
 K. Brandhorst,  K. B. Bravaya,  S. T. Brown,  D. Casanova,  C.-M. Chang,  
 Y. Chen,  S. H. Chien,  K. D. Closser,  M. P. Coons,  D. L. Crittenden,  
 S. Dasgupta,  M. Diedenhofen,  R. A. DiStasio Jr.,  H. Do,  A. D. Dutoi,  
 R. G. Edgar,  P.-T. Fang,  S. Fatehi,  Q. Feng,  L. Fusti-Molnar,  
 A. Ghysels,  A. Golubeva-Zadorozhnaya,  J. Gomes,  A. Gunina,  
 M. W. D. Hanson-Heine,  P. H. P. Harbach,  A. W. Hauser,  E. G. Hohenstein,  
 Z. C. Holden,  K. Hui,  T.-C. Jagau,  H. Ji,  B. Kaduk,  K. Khistyaev,  
 Jaehoon Kim,  Jihan Kim,  R. A. King,  P. Klunzinger,  D. Kosenkov,  
 T. Kowalczyk,  C. M. Krauter,  A. Kunitsa,  K. U. Lao,  A. Laurent,  
 K. V. Lawler,  D. Lefrancois,  S. Lehtola,  S. V. Levchenko,  C. Y. Lin,  
 Y.-S. Lin,  F. Liu,  E. Livshits,  R. C. Lochan,  A. Luenser,  P. Manohar,  
 S. F. Manzer,  S.-P. Mao,  Y. Mao,  N. Mardirossian,  A. V. Marenich,  
 L. A. Martinez-Martinez,  S. A. Maurer,  N. J. Mayhall,  J.-M. Mewes,  
 A. F. Morrison,  K. Nanda,  C. M. Oana,  R. Olivares-Amaya,  D. P. O'Neill,  
 J. A. Parkhill,  T. M. Perrine,  R. Peverati,  P. A. Pieniazek,  F. Plasser,  
 A. Prociuk,  D. R. Rehn,  E. Rosta,  N. J. Russ,  N. Sergueev,  
 S. M. Sharada,  S. Sharma,  D. W. Small,  A. Sodt,  T. Stauch,  T. Stein,  
 D. Stuck,  Y.-C. Su,  A. J. W. Thom,  T. Tsuchimochi,  L. Vogt,  O. Vydrov,  
 T. Wang,  M. A. Watson,  J. Wenzel,  A. White,  C. F. Williams,  
 V. Vanovschi,  S. Yeganeh,  S. R. Yost,  Z.-Q. You,  I. Y. Zhang,  X. Zhang,  
 Y. Zhao,  B. R. Brooks,  G. K. L. Chan,  D. M. Chipman,  C. J. Cramer,  
 W. A. Goddard III,  M. S. Gordon,  W. J. Hehre,  A. Klamt,  
 H. F. Schaefer III,  M. W. Schmidt,  C. D. Sherrill,  D. G. Truhlar,  
 A. Warshel,  X. Xu,  A. Aspuru-Guzik,  R. Baer,  A. T. Bell,  N. A. Besley,  
 J.-D. Chai,  A. Dreuw,  B. D. Dunietz,  T. R. Furlani,  S. R. Gwaltney,  
 C.-P. Hsu,  Y. Jung,  J. Kong,  D. S. Lambrecht,  W. Liang,  C. Ochsenfeld,  
 V. A. Rassolov,  L. V. Slipchenko,  J. E. Subotnik,  T. Van Voorhis,  
 J. M. Herbert,  A. I. Krylov,  P. M. W. Gill,  M. Head-Gordon

 Contributors to earlier versions of Q-Chem not listed above: 
 R. D. Adamson,  J. Baker,  E. F. C. Byrd,  A. K. Chakraborty,  C.-L. Cheng,  
 H. Dachsel,  R. J. Doerksen,  G. Hawkins,  A. Heyden,  S. Hirata,  
 G. Kedziora,  F. J. Keil,  C. Kelley,  P. P. Korambath,  W. Kurlancheek,  
 A. M. Lee,  M. S. Lee,  D. Liotard,  I. Lotan,  P. E. Maslen,  N. Nair,  
 D. Neuhauser,  R. Olson,  B. Peters,  J. Ritchie,  N. E. Schultz,  
 N. Shenvi,  A. C. Simmonett,  K. S. Thanthiriwatte,  Q. Wu,  W. Zhang

 Please cite Q-Chem as follows:
 Y. Shao et al., Mol. Phys. 113, 184-215 (2015)
 DOI: 10.1080/00268976.2014.952696

 Q-Chem 4.4.1 for Intel X86 EM64T Linux

 Parts of Q-Chem use Armadillo 5.200.1 (Boston Tea Smuggler).
 http://arma.sourceforge.net/

 Q-Chem begins on Mon Mar  6 14:00:21 2017  

Host: nid01196
0

     Scratch files written to /dev/shm/eg_qchem/qchem29089//
 Parallel job on  1  processors

Checking the input file for inconsistencies... 	...done.

--------------------------------------------------------------
User input:
--------------------------------------------------------------
$molecule
 0  1
 S           1.80900300       -1.15938900        0.25896800
 C           3.16466000       -0.14246800        0.05606700
 C           2.78757500        1.14089100       -0.25226100
 C           1.39402000        1.28822000       -0.33563400
 C           0.70898100        0.11689900       -0.08798100
 H           0.89277600        2.20524100       -0.58940400
 C          -0.70898100       -0.11689900       -0.08798100
 S          -1.52038241       -0.59106662       -1.52885777
 C          -1.60419842       -0.01350842        0.95628883
 C          -3.03108999       -0.66762106       -0.73828515
 C          -2.92215826       -0.32465672        0.58639554
 H          -3.76005655       -0.30918911        1.25859320
 H           4.15569300       -0.53353100        0.17259300
 H           3.49202900        1.93475000       -0.41867900
 H          -3.91009177       -0.95601645       -1.27943111
 H          -1.29858955        0.25597851        1.95155376
$end


$rem
         jobtype = opt
        exchange = hf
           basis = cc-pvtz
  max_scf_cycles = 100
      mem_static = 6200
       mem_total = 62000
          method = mp2
$end


$opt
CONSTRAINT
tors 4 5 7 9 -90.0
ENDCONSTRAINT
$end

--------------------------------------------------------------
 Atom   8: (  1.6932018841,  0.8854924898,  0.7967173028)
         ->(  1.6932018869,  0.8854925522,  0.7967172387)
 Atom  10: (  3.1304300609,  0.1547009923,  0.2368762566)
         ->(  3.1304300569,  0.1547010081,  0.2368762397)
 Atom  11: (  2.8721552921, -0.7834418630, -0.7313446467)
         ->(  2.8721552869, -0.7834419181, -0.7313445868)
 Atom   9: (  1.5012955416, -0.9134168905, -1.0042960838)
         ->(  1.5012955445, -0.9134169668, -1.0042960161)
 Atom   7: (  0.7149601753, -0.0717731267, -0.2454049285)
         ->(  0.7149601740, -0.0717731475, -0.2454049227)
 Atom  16: (  1.0843575690, -1.6089474298, -1.7106757718)
         ->(  1.0843575722, -1.6089475658, -1.7106756506)
 Atom  14: ( -3.6430476708,  1.3559189512, -1.2131718170)
         ->( -3.6430476690,  1.3559188549, -1.2131719213)
 Atom  15: (  4.0786558637,  0.4477770869,  0.6413873319)
         ->(  4.0786558600,  0.4477771380,  0.6413872954)
 ----------------------------------------------------------------
             Standard Nuclear Orientation (Angstroms)
    I     Atom           X                Y                Z
 ----------------------------------------------------------------
    1      S      -1.6932018869    -0.8854925522     0.7967172387
    2      C      -3.1304300569    -0.1547010081     0.2368762397
    3      C      -2.8721552869     0.7834419181    -0.7313445868
    4      C      -1.5012955445     0.9134169668    -1.0042960161
    5      C      -0.7149601740     0.0717731475    -0.2454049227
    6      H      -1.0843575722     1.6089475658    -1.7106756506
    7      C       0.7149601740    -0.0717731475    -0.2454049227
    8      S       1.6932018869     0.8854925522     0.7967172387
    9      C       1.5012955445    -0.9134169668    -1.0042960161
   10      C       3.1304300569     0.1547010081     0.2368762397
   11      C       2.8721552869    -0.7834419181    -0.7313445868
   12      H       3.6430476690    -1.3559188549    -1.2131719213
   13      H      -4.0786558600    -0.4477771380     0.6413872954
   14      H      -3.6430476690     1.3559188549    -1.2131719213
   15      H       4.0786558600     0.4477771380     0.6413872954
   16      H       1.0843575722    -1.6089475658    -1.7106756506
 ----------------------------------------------------------------
 Molecular Point Group                 C2    NOp =  2
 Largest Abelian Subgroup              C2    NOp =  2
 Nuclear Repulsion Energy =   636.2493015272 hartrees
 There are       43 alpha and       43 beta electrons
 Requested basis set is cc-pVTZ
 There are 140 shells and 392 basis functions

 Total QAlloc Memory Limit  62000 MB
 Mega-Array Size      6061 MB
 MEM_STATIC part      6200 MB
 A cutoff of  1.0D-11 yielded   8051 shell pairs
 There are     62679 function pairs (     81730 Cartesian)
 
 -------------------------------------------------------
 OpenMP Integral Computing Module                       
 Release: version 1.0, May 2013, Q-Chem Inc. Pittsburgh 
 -------------------------------------------------------
 Integral Job Info:
 Integral job number is                      11
 Integral operator is                         1
 short-range coefficients                     0
 long-range coefficients              100000000
 Omega coefficients                           0
 if combine SR and LR in K                    0
 Integral screening is                        0
 Integral computing path is                   2
 max size of driver memory is            800000
 size of driver memory is                776718
 size of scratch memory is             26248924
 max col of scratch BK array              10000
 max len of scratch array in speh3          662
 max len of scratch index in speh4           32
 max int batch size is                      520
 min int batch size is                       52
 fixed nKL is                                52
 max L of basis functions is                  3
 order of int derivative is                   0
 number of shells is                        140
 number of basis is                         448
 number of cartesian basis is               448
 number of contracted shell pairs          8051
 number of primitive shell pairs          28567
 maxK2 (contraction) of shell pair          121
 max number of K2 of shell pair               1
 max number of CS2 of shell pair           1062
 max number of PS2 of shell pair           3066
 mem total for path MDJ                  225820
 -------------------------------------------------------
 Smallest overlap matrix eigenvalue = 9.70E-05

 Scale SEOQF with 1.000000e-01/1.000000e-01/1.000000e-01

 Standard Electronic Orientation quadrupole field applied
 Nucleus-field energy     =     0.0000000128 hartrees
 Guess from superposition of atomic densities
 Warning:  Energy on first SCF cycle will be non-variational
 A restricted Hartree-Fock SCF calculation will be
 performed using Pulay DIIS extrapolation
 SCF converges when DIIS error is below 1.0E-08
 using 16 threads for integral computing 
 ---------------------------------------
  Cycle       Energy         DIIS Error
 ---------------------------------------
    1   -1106.0701908799      2.98E-02
    2   -1091.3327141126      1.93E-02
    3   -1101.1302232129      4.54E-03
    4   -1101.5202060942      1.93E-03
    5   -1101.5899636520      4.60E-04
    6   -1101.5941226921      2.36E-04
    7   -1101.5954198049      5.06E-05
    8   -1101.5955969880      2.30E-05
    9   -1101.5956447167      1.04E-05
   10   -1101.5956572324      3.39E-06
   11   -1101.5956583346      9.49E-07
   12   -1101.5956583804      4.80E-07
   13   -1101.5956583908      1.95E-07
   14   -1101.5956583950      8.89E-08
   15   -1101.5956583951      3.34E-08
   16   -1101.5956583957      6.29E-09 Convergence criterion met
 ---------------------------------------
 SCF time:  CPU 634.23 s  wall 39.69 s
 SCF   energy in the final basis set = -1101.5956583957
 Total energy in the final basis set = -1101.5956583957
 
 Components of the MP2 correlation energy:
        aaaa  correlation energy =        -0.2321414245 au
        abab  correlation energy =        -1.3506927086 au
        bbbb  correlation energy =        -0.2321414245 au
        non-Brillouin singles    =        -0.0000000000 au

 Total  MP2   correlation energy =        -1.8149755576 au
        MP2         total energy =     -1103.4106339533 au

  Entering Z-vector solver.
   1         0           1      0.000266    0.000266
   2         0           1      0.000118    0.000118
   3         0           1      0.000049    0.000049
   4         0           1      0.000024    0.000024
   5         0           1      0.000007    0.000007
   6         0           1      0.000003    0.000003
   7         1           0      0.000000    0.000000    Roots Converged
 
 --------------------------------------------------------------
             Orbital Energies (a.u.) and Symmetries
 --------------------------------------------------------------
 
 Alpha MOs, Restricted
 -- Occupied --                  
-91.983 -91.983 -11.271 -11.270 -11.261 -11.261 -11.238 -11.238
  1 B     1 A     2 A     2 B     3 B     3 A     4 A     4 B                  
-11.236 -11.236  -8.985  -8.985  -6.666  -6.666  -6.665  -6.665
  5 B     5 A     6 B     6 A     7 A     7 B     8 A     8 B                  
 -6.665  -6.665  -1.194  -1.165  -1.034  -0.991  -0.991  -0.948
  9 B     9 A    10 A    10 B    11 A    11 B    12 A    12 B                  
 -0.808  -0.764  -0.761  -0.718  -0.703  -0.645  -0.570  -0.568
 13 A    13 B    14 A    14 B    15 A    15 B    16 A    16 B                  
 -0.566  -0.555  -0.538  -0.512  -0.510  -0.476  -0.475  -0.355
 17 A    17 B    18 A    18 B    19 A    19 B    20 A    21 A                  
 -0.343  -0.323  -0.322
 20 B    22 A    21 B                                                          
 -- Virtual --                   
  0.108   0.108   0.150   0.153   0.164   0.172   0.183   0.189
 23 A    22 B    23 B    24 A    25 A    24 B    26 A    27 A                  
  0.189   0.204   0.209   0.217   0.245   0.248   0.317   0.323
 25 B    28 A    26 B    27 B    28 B    29 A    30 A    29 B                  
  0.346   0.354   0.371   0.372   0.389   0.402   0.419   0.423
 30 B    31 A    31 B    32 A    33 A    32 B    33 B    34 A                  
  0.444   0.452   0.453   0.466   0.468   0.479   0.483   0.494
 35 A    36 A    34 B    35 B    37 A    36 B    38 A    37 B                  
  0.511   0.522   0.539   0.545   0.547   0.555   0.573   0.575
 38 B    39 A    39 B    40 B    40 A    41 A    41 B    42 A                  
  0.579   0.584   0.596   0.605   0.606   0.612   0.622   0.628
 43 A    42 B    44 A    43 B    45 A    44 B    46 A    45 B                  
  0.639   0.640   0.650   0.671   0.672   0.691   0.701   0.725
 46 B    47 A    47 B    48 A    48 B    49 A    50 A    49 B                  
  0.752   0.752   0.785   0.790   0.805   0.823   0.845   0.857
 51 A    50 B    51 B    52 A    52 B    53 A    53 B    54 A                  
  0.858   0.870   0.880   0.891   0.904   0.919   0.930   0.952
 54 B    55 A    55 B    56 B    56 A    57 A    57 B    58 A                  
  0.970   0.979   0.996   1.002   1.022   1.035   1.053   1.080
 59 A    58 B    59 B    60 A    61 A    60 B    61 B    62 A                  
  1.101   1.108   1.116   1.123   1.140   1.154   1.175   1.176
 62 B    63 A    63 B    64 A    65 A    64 B    66 A    65 B                  
  1.190   1.193   1.220   1.223   1.232   1.263   1.296   1.304
 67 A    66 B    68 A    67 B    69 A    68 B    70 A    69 B                  
  1.308   1.312   1.325   1.355   1.367   1.387   1.402   1.433
 70 B    71 A    71 B    72 A    72 B    73 A    73 B    74 A                  
  1.434   1.459   1.477   1.490   1.500   1.516   1.520   1.538
 74 B    75 B    75 A    76 A    76 B    77 B    77 A    78 B                  
  1.549   1.564   1.570   1.588   1.592   1.617   1.634   1.647
 79 B    78 A    79 A    80 A    80 B    81 A    81 B    82 A                  
  1.680   1.689   1.705   1.736   1.745   1.757   1.781   1.822
 82 B    83 A    83 B    84 B    84 A    85 B    85 A    86 A                  
  1.825   1.863   1.889   1.894   1.904   1.914   1.926   1.955
 86 B    87 B    87 A    88 B    88 A    89 B    89 A    90 B                  
  1.959   2.028   2.035   2.063   2.066   2.129   2.135   2.141
 90 A    91 B    91 A    92 B    92 A    93 A    93 B    94 A                  
  2.166   2.186   2.193   2.201   2.217   2.245   2.254   2.259
 94 B    95 A    95 B    96 A    96 B    97 A    97 B    98 A                  
  2.290   2.301   2.327   2.391   2.423   2.425   2.452   2.478
 98 B    99 B    99 A   100 A   101 A   100 B   102 A   101 B                  
  2.495   2.509   2.526   2.533   2.544   2.557   2.581   2.602
103 A   102 B   103 B   104 B   104 A   105 A   105 B   106 A                  
  2.609   2.641   2.664   2.690   2.715   2.722   2.746   2.767
106 B   107 B   107 A   108 A   108 B   109 B   109 A   110 B                  
  2.767   2.776   2.778   2.797   2.798   2.873   2.889   2.903
110 A   111 B   111 A   112 B   112 A   113 A   114 A   113 B                  
  2.917   2.930   2.936   2.969   3.006   3.011   3.017   3.027
114 B   115 B   115 A   116 A   117 A   116 B   118 A   117 B                  
  3.051   3.065   3.096   3.143   3.151   3.164   3.177   3.198
119 A   118 B   119 B   120 B   120 A   121 B   121 A   122 A                  
  3.213   3.220   3.235   3.239   3.255   3.272   3.282   3.284
122 B   123 A   123 B   124 A   124 B   125 A   125 B   126 A                  
  3.295   3.297   3.326   3.333   3.344   3.368   3.381   3.400
126 B   127 A   128 A   127 B   128 B   129 A   129 B   130 B                  
  3.411   3.418   3.425   3.449   3.451   3.457   3.468   3.478
130 A   131 B   131 A   132 A   133 A   132 B   134 A   133 B                  
  3.485   3.501   3.508   3.512   3.522   3.525   3.534   3.539
135 A   134 B   136 A   135 B   137 A   136 B   138 A   137 B                  
  3.550   3.579   3.591   3.594   3.610   3.620   3.658   3.660
138 B   139 A   140 A   139 B   140 B   141 A   142 A   141 B                  
  3.698   3.699   3.726   3.730   3.744   3.745   3.777   3.782
143 A   142 B   144 A   143 B   144 B   145 A   146 A   147 A                  
  3.799   3.841   3.868   3.877   3.896   3.913   3.921   3.938
145 B   146 B   147 B   148 A   148 B   149 A   149 B   150 A                  
  3.967   3.976   4.002   4.012   4.024   4.025   4.033   4.058
150 B   151 A   151 B   152 A   153 A   152 B   154 A   153 B                  
  4.073   4.106   4.120   4.161   4.167   4.168   4.188   4.197
154 B   155 B   155 A   156 A   156 B   157 A   158 A   157 B                  
  4.197   4.211   4.236   4.259   4.262   4.279   4.313   4.318
158 B   159 A   160 A   159 B   160 B   161 A   161 B   162 A                  
  4.349   4.380   4.401   4.411   4.452   4.478   4.521   4.521
162 B   163 A   163 B   164 A   164 B   165 A   166 A   165 B                  
  4.546   4.548   4.587   4.607   4.649   4.682   4.691   4.709
167 A   166 B   167 B   168 A   169 A   168 B   170 A   169 B                  
  4.722   4.722   4.747   4.768   4.788   4.828   4.849   4.887
170 B   171 A   171 B   172 B   172 A   173 A   173 B   174 A                  
  4.901   4.954   4.987   5.000   5.045   5.070   5.076   5.089
174 B   175 A   176 A   175 B   176 B   177 A   178 A   177 B                  
  5.093   5.098   5.193   5.239   5.248   5.297   5.303   5.379
179 A   178 B   179 B   180 A   180 B   181 A   181 B   182 A                  
  5.386   5.421   5.421   5.494   5.574   5.599   5.663   5.665
182 B   183 A   183 B   184 A   184 B   185 A   185 B   186 A                  
  5.818   5.871   5.955   6.020   6.097   6.129   6.182   6.190
186 B   187 A   187 B   188 A   188 B   189 A   189 B   190 A                  
  6.206   6.543   6.561   6.707   6.756   9.506  10.721  11.923
190 B   191 A   191 B   192 A   192 B   193 A   193 B   194 A                  
 12.247  13.497  13.578  14.569  14.657
194 B   195 A   195 B   196 A   196 B                                          
 
 Beta MOs, Restricted
 -- Occupied --                  
-91.983 -91.983 -11.271 -11.270 -11.261 -11.261 -11.238 -11.238
  1 B     1 A     2 A     2 B     3 B     3 A     4 A     4 B                  
-11.236 -11.236  -8.985  -8.985  -6.666  -6.666  -6.665  -6.665
  5 B     5 A     6 B     6 A     7 A     7 B     8 A     8 B                  
 -6.665  -6.665  -1.194  -1.165  -1.034  -0.991  -0.991  -0.948
  9 B     9 A    10 A    10 B    11 A    11 B    12 A    12 B                  
 -0.808  -0.764  -0.761  -0.718  -0.703  -0.645  -0.570  -0.568
 13 A    13 B    14 A    14 B    15 A    15 B    16 A    16 B                  
 -0.566  -0.555  -0.538  -0.512  -0.510  -0.476  -0.475  -0.355
 17 A    17 B    18 A    18 B    19 A    19 B    20 A    21 A                  
 -0.343  -0.323  -0.322
 20 B    22 A    21 B                                                          
 -- Virtual --                   
  0.108   0.108   0.150   0.153   0.164   0.172   0.183   0.189
 23 A    22 B    23 B    24 A    25 A    24 B    26 A    27 A                  
  0.189   0.204   0.209   0.217   0.245   0.248   0.317   0.323
 25 B    28 A    26 B    27 B    28 B    29 A    30 A    29 B                  
  0.346   0.354   0.371   0.372   0.389   0.402   0.419   0.423
 30 B    31 A    31 B    32 A    33 A    32 B    33 B    34 A                  
  0.444   0.452   0.453   0.466   0.468   0.479   0.483   0.494
 35 A    36 A    34 B    35 B    37 A    36 B    38 A    37 B                  
  0.511   0.522   0.539   0.545   0.547   0.555   0.573   0.575
 38 B    39 A    39 B    40 B    40 A    41 A    41 B    42 A                  
  0.579   0.584   0.596   0.605   0.606   0.612   0.622   0.628
 43 A    42 B    44 A    43 B    45 A    44 B    46 A    45 B                  
  0.639   0.640   0.650   0.671   0.672   0.691   0.701   0.725
 46 B    47 A    47 B    48 A    48 B    49 A    50 A    49 B                  
  0.752   0.752   0.785   0.790   0.805   0.823   0.845   0.857
 51 A    50 B    51 B    52 A    52 B    53 A    53 B    54 A                  
  0.858   0.870   0.880   0.891   0.904   0.919   0.930   0.952
 54 B    55 A    55 B    56 B    56 A    57 A    57 B    58 A                  
  0.970   0.979   0.996   1.002   1.022   1.035   1.053   1.080
 59 A    58 B    59 B    60 A    61 A    60 B    61 B    62 A                  
  1.101   1.108   1.116   1.123   1.140   1.154   1.175   1.176
 62 B    63 A    63 B    64 A    65 A    64 B    66 A    65 B                  
  1.190   1.193   1.220   1.223   1.232   1.263   1.296   1.304
 67 A    66 B    68 A    67 B    69 A    68 B    70 A    69 B                  
  1.308   1.312   1.325   1.355   1.367   1.387   1.402   1.433
 70 B    71 A    71 B    72 A    72 B    73 A    73 B    74 A                  
  1.434   1.459   1.477   1.490   1.500   1.516   1.520   1.538
 74 B    75 B    75 A    76 A    76 B    77 B    77 A    78 B                  
  1.549   1.564   1.570   1.588   1.592   1.617   1.634   1.647
 79 B    78 A    79 A    80 A    80 B    81 A    81 B    82 A                  
  1.680   1.689   1.705   1.736   1.745   1.757   1.781   1.822
 82 B    83 A    83 B    84 B    84 A    85 B    85 A    86 A                  
  1.825   1.863   1.889   1.894   1.904   1.914   1.926   1.955
 86 B    87 B    87 A    88 B    88 A    89 B    89 A    90 B                  
  1.959   2.028   2.035   2.063   2.066   2.129   2.135   2.141
 90 A    91 B    91 A    92 B    92 A    93 A    93 B    94 A                  
  2.166   2.186   2.193   2.201   2.217   2.245   2.254   2.259
 94 B    95 A    95 B    96 A    96 B    97 A    97 B    98 A                  
  2.290   2.301   2.327   2.391   2.423   2.425   2.452   2.478
 98 B    99 B    99 A   100 A   101 A   100 B   102 A   101 B                  
  2.495   2.509   2.526   2.533   2.544   2.557   2.581   2.602
103 A   102 B   103 B   104 B   104 A   105 A   105 B   106 A                  
  2.609   2.641   2.664   2.690   2.715   2.722   2.746   2.767
106 B   107 B   107 A   108 A   108 B   109 B   109 A   110 B                  
  2.767   2.776   2.778   2.797   2.798   2.873   2.889   2.903
110 A   111 B   111 A   112 B   112 A   113 A   114 A   113 B                  
  2.917   2.930   2.936   2.969   3.006   3.011   3.017   3.027
114 B   115 B   115 A   116 A   117 A   116 B   118 A   117 B                  
  3.051   3.065   3.096   3.143   3.151   3.164   3.177   3.198
119 A   118 B   119 B   120 B   120 A   121 B   121 A   122 A                  
  3.213   3.220   3.235   3.239   3.255   3.272   3.282   3.284
122 B   123 A   123 B   124 A   124 B   125 A   125 B   126 A                  
  3.295   3.297   3.326   3.333   3.344   3.368   3.381   3.400
126 B   127 A   128 A   127 B   128 B   129 A   129 B   130 B                  
  3.411   3.418   3.425   3.449   3.451   3.457   3.468   3.478
130 A   131 B   131 A   132 A   133 A   132 B   134 A   133 B                  
  3.485   3.501   3.508   3.512   3.522   3.525   3.534   3.539
135 A   134 B   136 A   135 B   137 A   136 B   138 A   137 B                  
  3.550   3.579   3.591   3.594   3.610   3.620   3.658   3.660
138 B   139 A   140 A   139 B   140 B   141 A   142 A   141 B                  
  3.698   3.699   3.726   3.730   3.744   3.745   3.777   3.782
143 A   142 B   144 A   143 B   144 B   145 A   146 A   147 A                  
  3.799   3.841   3.868   3.877   3.896   3.913   3.921   3.938
145 B   146 B   147 B   148 A   148 B   149 A   149 B   150 A                  
  3.967   3.976   4.002   4.012   4.024   4.025   4.033   4.058
150 B   151 A   151 B   152 A   153 A   152 B   154 A   153 B                  
  4.073   4.106   4.120   4.161   4.167   4.168   4.188   4.197
154 B   155 B   155 A   156 A   156 B   157 A   158 A   157 B                  
  4.197   4.211   4.236   4.259   4.262   4.279   4.313   4.318
158 B   159 A   160 A   159 B   160 B   161 A   161 B   162 A                  
  4.349   4.380   4.401   4.411   4.452   4.478   4.521   4.521
162 B   163 A   163 B   164 A   164 B   165 A   166 A   165 B                  
  4.546   4.548   4.587   4.607   4.649   4.682   4.691   4.709
167 A   166 B   167 B   168 A   169 A   168 B   170 A   169 B                  
  4.722   4.722   4.747   4.768   4.788   4.828   4.849   4.887
170 B   171 A   171 B   172 B   172 A   173 A   173 B   174 A                  
  4.901   4.954   4.987   5.000   5.045   5.070   5.076   5.089
174 B   175 A   176 A   175 B   176 B   177 A   178 A   177 B                  
  5.093   5.098   5.193   5.239   5.248   5.297   5.303   5.379
179 A   178 B   179 B   180 A   180 B   181 A   181 B   182 A                  
  5.386   5.421   5.421   5.494   5.574   5.599   5.663   5.665
182 B   183 A   183 B   184 A   184 B   185 A   185 B   186 A                  
  5.818   5.871   5.955   6.020   6.097   6.129   6.182   6.190
186 B   187 A   187 B   188 A   188 B   189 A   189 B   190 A                  
  6.206   6.543   6.561   6.707   6.756   9.506  10.721  11.923
190 B   191 A   191 B   192 A   192 B   193 A   193 B   194 A                  
 12.247  13.497  13.578  14.569  14.657
194 B   195 A   195 B   196 A   196 B                                          
 --------------------------------------------------------------
 
          Ground-State Mulliken Net Atomic Charges

     Atom                 Charge (a.u.)
  ----------------------------------------
      1 S                     0.130212
      2 C                    -0.239274
      3 C                    -0.190959
      4 C                    -0.192955
      5 C                    -0.041613
      6 H                     0.175797
      7 C                    -0.041613
      8 S                     0.130212
      9 C                    -0.192955
     10 C                    -0.239274
     11 C                    -0.190959
     12 H                     0.174755
     13 H                     0.184035
     14 H                     0.174755
     15 H                     0.184035
     16 H                     0.175797
  ----------------------------------------
  Sum of atomic charges =     0.000000

 -----------------------------------------------------------------
                    Cartesian Multipole Moments
 -----------------------------------------------------------------
    Charge (ESU x 10^10)
                 0.0000
    Dipole Moment (Debye)
         X      -0.0000      Y       0.0000      Z      -0.4774
       Tot       0.4774
    Quadrupole Moments (Debye-Ang)
        XX     -61.4597     XY      -1.0929     YY     -72.6779
        XZ      -0.0000     YZ       0.0000     ZZ     -72.7035
    Octopole Moments (Debye-Ang^2)
       XXX      -0.0000    XXY       0.0000    XYY      -0.0000
       YYY       0.0000    XXZ       7.0359    XYZ      12.9380
       YYZ      -4.2848    XZZ       0.0000    YZZ      -0.0000
       ZZZ       2.0453
    Hexadecapole Moments (Debye-Ang^3)
      XXXX   -1831.4228   XXXY       3.3823   XXYY    -402.8056
      XYYY       2.1309   YYYY    -346.9572   XXXZ      -0.0000
      XXYZ       0.0000   XYYZ      -0.0000   YYYZ       0.0000
      XXZZ    -401.4852   XYZZ      -5.3383   YYZZ    -100.7652
      XZZZ      -0.0000   YZZZ       0.0000   ZZZZ    -337.4743
 -----------------------------------------------------------------
 DrvMan is completing analytic gradient of the MP2 energy
 MP2 relaxed dipole moment
            1
    1  -0.0000000
    2   0.0000000
    3  -0.1878351
	Magnitude:	 0.188 au	 0.477 Debye
 MP2 energy read as -1103.410634
 Full Analytical Gradient of MP2 Energy (in au.)
             1             2             3             4             5
    1    0.00137524   -0.00095720    0.00029395   -0.00098124    0.00871239
    2   -0.00202232    0.00208608   -0.00076389   -0.00055985   -0.00012932
    3    0.00027249   -0.00071637   -0.00017661   -0.00161791    0.00153195
             6             7             8             9            10
    1   -0.00035086   -0.00871239   -0.00137524    0.00098124    0.00095720
    2    0.00083958    0.00012932    0.00202232    0.00055985   -0.00208608
    3    0.00022722    0.00153195    0.00027249   -0.00161791   -0.00071637
            11            12            13            14            15
    1   -0.00029395   -0.00004679    0.00031594    0.00004679   -0.00031594
    2    0.00076389   -0.00005036    0.00017242    0.00005036   -0.00017242
    3   -0.00017661    0.00000433    0.00047491    0.00000433    0.00047491
            16
    1    0.00035086
    2   -0.00083958
    3    0.00022722
 Gradient time:  CPU 1.59 s  wall 0.10 s
 Geometry Optimization Parameters
   NAtoms,    NIC,     NZ,  NCons,   NDum,   NFix, NCnnct, MaxDiis
       16     111       0       1       0       0       0       0


** CONSTRAINED OPTIMIZATION IN DELOCALIZED INTERNAL COORDINATES **
   Searching for a Minimum

   Optimization Cycle:   1

                       Coordinates (Angstroms)
     ATOM                X               Y               Z
      1  S        -1.6932018869   -0.8854925522    0.7967172387
      2  C        -3.1304300569   -0.1547010081    0.2368762397
      3  C        -2.8721552869    0.7834419181   -0.7313445868
      4  C        -1.5012955445    0.9134169668   -1.0042960161
      5  C        -0.7149601740    0.0717731475   -0.2454049227
      6  H        -1.0843575722    1.6089475658   -1.7106756506
      7  C         0.7149601740   -0.0717731475   -0.2454049227
      8  S         1.6932018869    0.8854925522    0.7967172387
      9  C         1.5012955445   -0.9134169668   -1.0042960161
     10  C         3.1304300569    0.1547010081    0.2368762397
     11  C         2.8721552869   -0.7834419181   -0.7313445868
     12  H         3.6430476690   -1.3559188549   -1.2131719213
     13  H        -4.0786558600   -0.4477771380    0.6413872954
     14  H        -3.6430476690    1.3559188549   -1.2131719213
     15  H         4.0786558600    0.4477771380    0.6413872954
     16  H         1.0843575722   -1.6089475658   -1.7106756506
   Point Group: c2    Number of degrees of freedom:    22


   Energy is  -1103.410633953

              Constraints and their Current Values
                                        Value     Constraint
   Dihedral:        4   5   7   9      -90.000      -90.000

 Attempting to Generate Delocalized Internal Coordinates

 21 Hessian modes will be used to form the next step
  Hessian Eigenvalues:
     0.045000    0.045000    0.045000    0.045002    0.045003    0.045012
     0.159945    0.159993    0.160000    0.221308    0.238060    0.249999
     0.326324    0.340049    0.365509    0.366895    0.370094    0.399848
     0.435412    0.463135    0.495504

 Minimum Search - Taking Simple RFO Step
 Searching for Lamda that Minimizes Along All modes
 Value Taken    Lamda =  -0.00036977
 Step Taken.  Stepsize is  0.060508

                             Maximum     Tolerance    Cnvgd?
         Gradient           0.004871      0.000300      NO
         Displacement       0.036652      0.001200      NO
         Energy change     *********      0.000001      NO


 New Cartesian Coordinates Obtained by Inverse Iteration

 Displacement from previous Coordinates is:  0.118793
 ----------------------------------------------------------------
             Standard Nuclear Orientation (Angstroms)
    I     Atom           X                Y                Z
 ----------------------------------------------------------------
    1      S      -1.7066102438    -0.8768275959     0.8062142454
    2      C      -3.1405807498    -0.1588796247     0.2283855750
    3      C      -2.8746431642     0.7858685199    -0.7322231150
    4      C      -1.5009278101     0.9177983825    -0.9935083772
    5      C      -0.7203419549     0.0740366358    -0.2339763693
    6      H      -1.0764537963     1.6075380955    -1.7005113333
    7      C       0.7203419549    -0.0740366358    -0.2339763693
    8      S       1.7066102438     0.8768275959     0.8062142454
    9      C       1.5009278101    -0.9177983825    -0.9935083772
   10      C       3.1405807498     0.1588796247     0.2283855750
   11      C       2.8746431642    -0.7858685199    -0.7322231150
   12      H       3.6426171413    -1.3552487293    -1.2223380538
   13      H      -4.0931848989    -0.4585734367     0.6180451043
   14      H      -3.6426171413     1.3552487293    -1.2223380538
   15      H       4.0931848989     0.4585734367     0.6180451043
   16      H       1.0764537963    -1.6075380955    -1.7005113333
 ----------------------------------------------------------------
 Molecular Point Group                 C2    NOp =  2
 Largest Abelian Subgroup              C2    NOp =  2
 Nuclear Repulsion Energy =   635.5546526362 hartrees
 There are       43 alpha and       43 beta electrons
 Applying Cartesian multipole field
    Component          Value
    ---------          -----
     (2,0,0)        1.00000E-11
     (0,2,0)        2.00000E-11
     (0,0,2)       -3.00000E-11
 Nucleus-field energy     =     0.0000000129 hartrees
 Requested basis set is cc-pVTZ
 There are 140 shells and 392 basis functions
 A cutoff of  1.0D-11 yielded   8050 shell pairs
 There are     62654 function pairs (     81694 Cartesian)
 Smallest overlap matrix eigenvalue = 9.83E-05
 Guess MOs from SCF MO coefficient file
 Reading MOs from coefficient file
 Reading MOs from coefficient file
 A restricted Hartree-Fock SCF calculation will be
 performed using Pulay DIIS extrapolation
 SCF converges when DIIS error is below 1.0E-08
 Geometry optimization detected.  Setting ReadMinima to 0
 Setting SaveMinima to 0
 using 16 threads for integral computing 
 ---------------------------------------
  Cycle       Energy         DIIS Error
 ---------------------------------------
    1   -1101.5964407449      2.74E-04
    2   -1101.5963351713      3.17E-05
    3   -1101.5963748967      1.29E-05
    4   -1101.5963809762      6.50E-06
    5   -1101.5963825933      2.29E-06
    6   -1101.5963827895      8.74E-07
    7   -1101.5963828292      3.30E-07
    8   -1101.5963828347      1.36E-07
    9   -1101.5963828359      4.99E-08
   10   -1101.5963828366      1.72E-08
   11   -1101.5963828364      7.57E-09 Convergence criterion met
 ---------------------------------------
 SCF time:  CPU 701.38 s  wall 43.87 s
 SCF   energy in the final basis set = -1101.5963828364
 Total energy in the final basis set = -1101.5963828364
 
 Components of the MP2 correlation energy:
        aaaa  correlation energy =        -0.2320336276 au
        abab  correlation energy =        -1.3503765193 au
        bbbb  correlation energy =        -0.2320336276 au
        non-Brillouin singles    =        -0.0000000000 au

 Total  MP2   correlation energy =        -1.8144437744 au
        MP2         total energy =     -1103.4108266108 au

  Entering Z-vector solver.
   1         0           1      0.000265    0.000265
   2         0           1      0.000117    0.000117
   3         0           1      0.000048    0.000048
   4         0           1      0.000024    0.000024
   5         0           1      0.000007    0.000007
   6         0           1      0.000002    0.000002
   7         1           0      0.000000    0.000000    Roots Converged
 
 --------------------------------------------------------------
             Orbital Energies (a.u.) and Symmetries
 --------------------------------------------------------------
 
 Alpha MOs, Restricted
 -- Occupied --                  
-91.983 -91.983 -11.272 -11.271 -11.261 -11.261 -11.238 -11.238
  1 B     1 A     2 A     2 B     3 B     3 A     4 A     4 B                  
-11.236 -11.236  -8.985  -8.985  -6.666  -6.666  -6.665  -6.665
  5 B     5 A     6 B     6 A     7 A     7 B     8 A     8 B                  
 -6.665  -6.665  -1.194  -1.166  -1.032  -0.991  -0.991  -0.948
  9 B     9 A    10 A    10 B    11 A    11 B    12 A    12 B                  
 -0.806  -0.764  -0.762  -0.718  -0.703  -0.645  -0.571  -0.568
 13 A    13 B    14 A    14 B    15 A    15 B    16 A    16 B                  
 -0.565  -0.554  -0.538  -0.512  -0.511  -0.475  -0.475  -0.354
 17 A    17 B    18 A    18 B    19 A    19 B    20 A    21 A                  
 -0.343  -0.323  -0.322
 20 B    22 A    21 B                                                          
 -- Virtual --                   
  0.108   0.109   0.150   0.153   0.164   0.173   0.184   0.188
 23 A    22 B    23 B    24 A    25 A    24 B    26 A    27 A                  
  0.189   0.204   0.208   0.218   0.245   0.247   0.318   0.322
 25 B    28 A    26 B    27 B    28 B    29 A    30 A    29 B                  
  0.345   0.354   0.370   0.372   0.389   0.401   0.417   0.424
 30 B    31 A    31 B    32 A    33 A    32 B    33 B    34 A                  
  0.443   0.452   0.454   0.467   0.467   0.479   0.483   0.493
 35 A    36 A    34 B    37 A    35 B    36 B    38 A    37 B                  
  0.511   0.522   0.538   0.545   0.547   0.556   0.573   0.575
 38 B    39 A    39 B    40 B    40 A    41 A    41 B    42 A                  
  0.579   0.584   0.597   0.604   0.606   0.612   0.622   0.627
 43 A    42 B    44 A    43 B    45 A    44 B    46 A    45 B                  
  0.639   0.640   0.648   0.671   0.671   0.692   0.701   0.725
 47 A    46 B    47 B    48 A    48 B    49 A    50 A    49 B                  
  0.751   0.751   0.784   0.790   0.806   0.823   0.845   0.857
 51 A    50 B    51 B    52 A    52 B    53 A    53 B    54 A                  
  0.858   0.870   0.881   0.888   0.904   0.919   0.932   0.951
 54 B    55 A    55 B    56 B    56 A    57 A    57 B    58 A                  
  0.967   0.978   0.993   1.002   1.021   1.034   1.055   1.080
 59 A    58 B    59 B    60 A    61 A    60 B    61 B    62 A                  
  1.100   1.108   1.115   1.123   1.140   1.153   1.176   1.176
 62 B    63 A    63 B    64 A    65 A    64 B    66 A    65 B                  
  1.189   1.192   1.220   1.223   1.233   1.264   1.295   1.303
 67 A    66 B    68 A    67 B    69 A    68 B    70 A    69 B                  
  1.308   1.311   1.323   1.355   1.365   1.385   1.401   1.433
 70 B    71 A    71 B    72 A    72 B    73 A    73 B    74 A                  
  1.434   1.460   1.477   1.491   1.500   1.514   1.519   1.540
 74 B    75 B    75 A    76 A    76 B    77 B    77 A    78 B                  
  1.548   1.563   1.570   1.589   1.589   1.617   1.634   1.646
 79 B    78 A    79 A    80 B    80 A    81 A    81 B    82 A                  
  1.680   1.687   1.705   1.736   1.745   1.757   1.781   1.823
 82 B    83 A    83 B    84 B    84 A    85 B    85 A    86 A                  
  1.826   1.862   1.891   1.893   1.903   1.912   1.925   1.954
 86 B    87 B    87 A    88 B    88 A    89 B    89 A    90 B                  
  1.957   2.027   2.034   2.062   2.067   2.130   2.133   2.140
 90 A    91 B    91 A    92 B    92 A    93 A    93 B    94 A                  
  2.166   2.185   2.193   2.202   2.217   2.242   2.254   2.259
 94 B    95 A    95 B    96 A    96 B    97 A    97 B    98 A                  
  2.290   2.301   2.325   2.391   2.423   2.424   2.451   2.478
 98 B    99 B    99 A   100 A   101 A   100 B   102 A   101 B                  
  2.493   2.507   2.524   2.535   2.545   2.557   2.581   2.603
103 A   102 B   103 B   104 B   104 A   105 A   105 B   106 A                  
  2.607   2.641   2.662   2.690   2.712   2.722   2.745   2.768
106 B   107 B   107 A   108 A   108 B   109 B   109 A   110 A                  
  2.769   2.775   2.780   2.798   2.798   2.872   2.888   2.902
110 B   111 B   111 A   112 A   112 B   113 A   114 A   113 B                  
  2.919   2.926   2.934   2.969   3.006   3.011   3.016   3.028
114 B   115 B   115 A   116 A   117 A   116 B   118 A   117 B                  
  3.047   3.066   3.093   3.142   3.150   3.162   3.176   3.197
119 A   118 B   119 B   120 B   120 A   121 B   121 A   122 A                  
  3.213   3.220   3.234   3.238   3.255   3.272   3.282   3.285
122 B   123 A   123 B   124 A   124 B   125 A   125 B   126 A                  
  3.295   3.299   3.326   3.333   3.344   3.363   3.376   3.399
126 B   127 A   128 A   127 B   128 B   129 A   129 B   130 B                  
  3.412   3.421   3.426   3.448   3.449   3.457   3.467   3.477
130 A   131 B   131 A   132 A   133 A   132 B   134 A   133 B                  
  3.484   3.499   3.509   3.510   3.523   3.525   3.536   3.539
135 A   134 B   136 A   135 B   137 A   136 B   138 A   137 B                  
  3.551   3.579   3.587   3.594   3.607   3.615   3.655   3.660
138 B   139 A   140 A   139 B   140 B   141 A   142 A   141 B                  
  3.697   3.699   3.727   3.729   3.743   3.746   3.775   3.778
143 A   142 B   144 A   143 B   144 B   145 A   146 A   147 A                  
  3.796   3.840   3.868   3.878   3.894   3.909   3.922   3.938
145 B   146 B   147 B   148 A   148 B   149 A   149 B   150 A                  
  3.966   3.973   3.999   4.011   4.023   4.023   4.032   4.056
150 B   151 A   151 B   152 A   152 B   153 A   154 A   153 B                  
  4.073   4.106   4.118   4.157   4.166   4.167   4.189   4.194
154 B   155 B   155 A   156 A   157 A   156 B   158 A   157 B                  
  4.196   4.211   4.235   4.256   4.262   4.280   4.313   4.317
158 B   159 A   160 A   159 B   160 B   161 A   161 B   162 A                  
  4.347   4.378   4.400   4.409   4.453   4.476   4.519   4.521
162 B   163 A   163 B   164 A   164 B   165 A   165 B   166 A                  
  4.543   4.547   4.584   4.607   4.648   4.681   4.692   4.705
167 A   166 B   167 B   168 A   169 A   168 B   170 A   169 B                  
  4.720   4.723   4.747   4.768   4.786   4.823   4.848   4.885
171 A   170 B   171 B   172 B   172 A   173 A   173 B   174 A                  
  4.900   4.951   4.978   4.989   5.044   5.069   5.074   5.085
174 B   175 A   176 A   175 B   176 B   177 A   178 A   177 B                  
  5.090   5.098   5.192   5.238   5.244   5.295   5.301   5.378
179 A   178 B   179 B   180 A   180 B   181 A   181 B   182 A                  
  5.385   5.418   5.422   5.493   5.571   5.598   5.662   5.663
182 B   183 A   183 B   184 A   184 B   185 A   185 B   186 A                  
  5.814   5.868   5.953   6.019   6.093   6.129   6.181   6.188
186 B   187 A   187 B   188 A   188 B   189 A   189 B   190 A                  
  6.210   6.546   6.563   6.702   6.753   9.499  10.656  11.915
190 B   191 A   191 B   192 A   192 B   193 A   193 B   194 A                  
 12.156  13.501  13.553  14.565  14.644
194 B   195 A   195 B   196 A   196 B                                          
 
 Beta MOs, Restricted
 -- Occupied --                  
-91.983 -91.983 -11.272 -11.271 -11.261 -11.261 -11.238 -11.238
  1 B     1 A     2 A     2 B     3 B     3 A     4 A     4 B                  
-11.236 -11.236  -8.985  -8.985  -6.666  -6.666  -6.665  -6.665
  5 B     5 A     6 B     6 A     7 A     7 B     8 A     8 B                  
 -6.665  -6.665  -1.194  -1.166  -1.032  -0.991  -0.991  -0.948
  9 B     9 A    10 A    10 B    11 A    11 B    12 A    12 B                  
 -0.806  -0.764  -0.762  -0.718  -0.703  -0.645  -0.571  -0.568
 13 A    13 B    14 A    14 B    15 A    15 B    16 A    16 B                  
 -0.565  -0.554  -0.538  -0.512  -0.511  -0.475  -0.475  -0.354
 17 A    17 B    18 A    18 B    19 A    19 B    20 A    21 A                  
 -0.343  -0.323  -0.322
 20 B    22 A    21 B                                                          
 -- Virtual --                   
  0.108   0.109   0.150   0.153   0.164   0.173   0.184   0.188
 23 A    22 B    23 B    24 A    25 A    24 B    26 A    27 A                  
  0.189   0.204   0.208   0.218   0.245   0.247   0.318   0.322
 25 B    28 A    26 B    27 B    28 B    29 A    30 A    29 B                  
  0.345   0.354   0.370   0.372   0.389   0.401   0.417   0.424
 30 B    31 A    31 B    32 A    33 A    32 B    33 B    34 A                  
  0.443   0.452   0.454   0.467   0.467   0.479   0.483   0.493
 35 A    36 A    34 B    37 A    35 B    36 B    38 A    37 B                  
  0.511   0.522   0.538   0.545   0.547   0.556   0.573   0.575
 38 B    39 A    39 B    40 B    40 A    41 A    41 B    42 A                  
  0.579   0.584   0.597   0.604   0.606   0.612   0.622   0.627
 43 A    42 B    44 A    43 B    45 A    44 B    46 A    45 B                  
  0.639   0.640   0.648   0.671   0.671   0.692   0.701   0.725
 47 A    46 B    47 B    48 A    48 B    49 A    50 A    49 B                  
  0.751   0.751   0.784   0.790   0.806   0.823   0.845   0.857
 51 A    50 B    51 B    52 A    52 B    53 A    53 B    54 A                  
  0.858   0.870   0.881   0.888   0.904   0.919   0.932   0.951
 54 B    55 A    55 B    56 B    56 A    57 A    57 B    58 A                  
  0.967   0.978   0.993   1.002   1.021   1.034   1.055   1.080
 59 A    58 B    59 B    60 A    61 A    60 B    61 B    62 A                  
  1.100   1.108   1.115   1.123   1.140   1.153   1.176   1.176
 62 B    63 A    63 B    64 A    65 A    64 B    66 A    65 B                  
  1.189   1.192   1.220   1.223   1.233   1.264   1.295   1.303
 67 A    66 B    68 A    67 B    69 A    68 B    70 A    69 B                  
  1.308   1.311   1.323   1.355   1.365   1.385   1.401   1.433
 70 B    71 A    71 B    72 A    72 B    73 A    73 B    74 A                  
  1.434   1.460   1.477   1.491   1.500   1.514   1.519   1.540
 74 B    75 B    75 A    76 A    76 B    77 B    77 A    78 B                  
  1.548   1.563   1.570   1.589   1.589   1.617   1.634   1.646
 79 B    78 A    79 A    80 B    80 A    81 A    81 B    82 A                  
  1.680   1.687   1.705   1.736   1.745   1.757   1.781   1.823
 82 B    83 A    83 B    84 B    84 A    85 B    85 A    86 A                  
  1.826   1.862   1.891   1.893   1.903   1.912   1.925   1.954
 86 B    87 B    87 A    88 B    88 A    89 B    89 A    90 B                  
  1.957   2.027   2.034   2.062   2.067   2.130   2.133   2.140
 90 A    91 B    91 A    92 B    92 A    93 A    93 B    94 A                  
  2.166   2.185   2.193   2.202   2.217   2.242   2.254   2.259
 94 B    95 A    95 B    96 A    96 B    97 A    97 B    98 A                  
  2.290   2.301   2.325   2.391   2.423   2.424   2.451   2.478
 98 B    99 B    99 A   100 A   101 A   100 B   102 A   101 B                  
  2.493   2.507   2.524   2.535   2.545   2.557   2.581   2.603
103 A   102 B   103 B   104 B   104 A   105 A   105 B   106 A                  
  2.607   2.641   2.662   2.690   2.712   2.722   2.745   2.768
106 B   107 B   107 A   108 A   108 B   109 B   109 A   110 A                  
  2.769   2.775   2.780   2.798   2.798   2.872   2.888   2.902
110 B   111 B   111 A   112 A   112 B   113 A   114 A   113 B                  
  2.919   2.926   2.934   2.969   3.006   3.011   3.016   3.028
114 B   115 B   115 A   116 A   117 A   116 B   118 A   117 B                  
  3.047   3.066   3.093   3.142   3.150   3.162   3.176   3.197
119 A   118 B   119 B   120 B   120 A   121 B   121 A   122 A                  
  3.213   3.220   3.234   3.238   3.255   3.272   3.282   3.285
122 B   123 A   123 B   124 A   124 B   125 A   125 B   126 A                  
  3.295   3.299   3.326   3.333   3.344   3.363   3.376   3.399
126 B   127 A   128 A   127 B   128 B   129 A   129 B   130 B                  
  3.412   3.421   3.426   3.448   3.449   3.457   3.467   3.477
130 A   131 B   131 A   132 A   133 A   132 B   134 A   133 B                  
  3.484   3.499   3.509   3.510   3.523   3.525   3.536   3.539
135 A   134 B   136 A   135 B   137 A   136 B   138 A   137 B                  
  3.551   3.579   3.587   3.594   3.607   3.615   3.655   3.660
138 B   139 A   140 A   139 B   140 B   141 A   142 A   141 B                  
  3.697   3.699   3.727   3.729   3.743   3.746   3.775   3.778
143 A   142 B   144 A   143 B   144 B   145 A   146 A   147 A                  
  3.796   3.840   3.868   3.878   3.894   3.909   3.922   3.938
145 B   146 B   147 B   148 A   148 B   149 A   149 B   150 A                  
  3.966   3.973   3.999   4.011   4.023   4.023   4.032   4.056
150 B   151 A   151 B   152 A   152 B   153 A   154 A   153 B                  
  4.073   4.106   4.118   4.157   4.166   4.167   4.189   4.194
154 B   155 B   155 A   156 A   157 A   156 B   158 A   157 B                  
  4.196   4.211   4.235   4.256   4.262   4.280   4.313   4.317
158 B   159 A   160 A   159 B   160 B   161 A   161 B   162 A                  
  4.347   4.378   4.400   4.409   4.453   4.476   4.519   4.521
162 B   163 A   163 B   164 A   164 B   165 A   165 B   166 A                  
  4.543   4.547   4.584   4.607   4.648   4.681   4.692   4.705
167 A   166 B   167 B   168 A   169 A   168 B   170 A   169 B                  
  4.720   4.723   4.747   4.768   4.786   4.823   4.848   4.885
171 A   170 B   171 B   172 B   172 A   173 A   173 B   174 A                  
  4.900   4.951   4.978   4.989   5.044   5.069   5.074   5.085
174 B   175 A   176 A   175 B   176 B   177 A   178 A   177 B                  
  5.090   5.098   5.192   5.238   5.244   5.295   5.301   5.378
179 A   178 B   179 B   180 A   180 B   181 A   181 B   182 A                  
  5.385   5.418   5.422   5.493   5.571   5.598   5.662   5.663
182 B   183 A   183 B   184 A   184 B   185 A   185 B   186 A                  
  5.814   5.868   5.953   6.019   6.093   6.129   6.181   6.188
186 B   187 A   187 B   188 A   188 B   189 A   189 B   190 A                  
  6.210   6.546   6.563   6.702   6.753   9.499  10.656  11.915
190 B   191 A   191 B   192 A   192 B   193 A   193 B   194 A                  
 12.156  13.501  13.553  14.565  14.644
194 B   195 A   195 B   196 A   196 B                                          
 --------------------------------------------------------------
 
          Ground-State Mulliken Net Atomic Charges

     Atom                 Charge (a.u.)
  ----------------------------------------
      1 S                     0.130613
      2 C                    -0.239508
      3 C                    -0.190958
      4 C                    -0.192109
      5 C                    -0.043310
      6 H                     0.176245
      7 C                    -0.043310
      8 S                     0.130613
      9 C                    -0.192109
     10 C                    -0.239508
     11 C                    -0.190958
     12 H                     0.174676
     13 H                     0.184351
     14 H                     0.174676
     15 H                     0.184351
     16 H                     0.176245
  ----------------------------------------
  Sum of atomic charges =     0.000000

 -----------------------------------------------------------------
                    Cartesian Multipole Moments
 -----------------------------------------------------------------
    Charge (ESU x 10^10)
                 0.0000
    Dipole Moment (Debye)
         X      -0.0000      Y       0.0000      Z      -0.5030
       Tot       0.5030
    Quadrupole Moments (Debye-Ang)
        XX     -61.3434     XY      -0.9729     YY     -72.7484
        XZ       0.0000     YZ       0.0000     ZZ     -72.7238
    Octopole Moments (Debye-Ang^2)
       XXX       0.0000    XXY      -0.0000    XYY      -0.0000
       YYY       0.0000    XXZ       6.1809    XYZ      12.8895
       YYZ      -4.6474    XZZ      -0.0000    YZZ       0.0000
       ZZZ       0.9706
    Hexadecapole Moments (Debye-Ang^3)
      XXXX   -1839.3522   XXXY       6.1551   XXYY    -404.8473
      XYYY       2.3134   YYYY    -345.9012   XXXZ       0.0000
      XXYZ      -0.0000   XYYZ      -0.0000   YYYZ       0.0000
      XXZZ    -404.2407   XYZZ      -5.4226   YYZZ    -100.6839
      XZZZ       0.0000   YZZZ       0.0000   ZZZZ    -337.5094
 -----------------------------------------------------------------
 DrvMan is completing analytic gradient of the MP2 energy
 MP2 relaxed dipole moment
            1
    1  -0.0000000
    2   0.0000000
    3  -0.1979023
	Magnitude:	 0.198 au	 0.503 Debye
 MP2 energy read as -1103.410827
 Full Analytical Gradient of MP2 Energy (in au.)
             1             2             3             4             5
    1   -0.00000574   -0.00083109    0.00005988   -0.00027994    0.00135274
    2    0.00008406    0.00024445   -0.00017643   -0.00069868    0.00072204
    3    0.00030285   -0.00048426    0.00040894   -0.00041324   -0.00030603
             6             7             8             9            10
    1   -0.00003568   -0.00135274    0.00000574    0.00027994    0.00083109
    2    0.00031842   -0.00072204   -0.00008406    0.00069868   -0.00024445
    3    0.00029852   -0.00030603    0.00030285   -0.00041324   -0.00048426
            11            12            13            14            15
    1   -0.00005988    0.00002759    0.00002933   -0.00002759   -0.00002934
    2    0.00017643   -0.00000478   -0.00003236    0.00000478    0.00003236
    3    0.00040895    0.00002026    0.00017296    0.00002026    0.00017296
            16
    1    0.00003568
    2   -0.00031842
    3    0.00029852
 Gradient time:  CPU 1.53 s  wall 0.10 s
 Geometry Optimization Parameters
   NAtoms,    NIC,     NZ,  NCons,   NDum,   NFix, NCnnct, MaxDiis
       16     111       0       1       0       0       0       0

 Cartesian Hessian Update
 Hessian Updated using BFGS Update


** CONSTRAINED OPTIMIZATION IN DELOCALIZED INTERNAL COORDINATES **
   Searching for a Minimum

   Optimization Cycle:   2

                       Coordinates (Angstroms)
     ATOM                X               Y               Z
      1  S        -1.7066102438   -0.8768275959    0.8062142454
      2  C        -3.1405807498   -0.1588796247    0.2283855750
      3  C        -2.8746431642    0.7858685199   -0.7322231150
      4  C        -1.5009278101    0.9177983825   -0.9935083772
      5  C        -0.7203419549    0.0740366358   -0.2339763693
      6  H        -1.0764537963    1.6075380955   -1.7005113333
      7  C         0.7203419549   -0.0740366358   -0.2339763693
      8  S         1.7066102438    0.8768275959    0.8062142454
      9  C         1.5009278101   -0.9177983825   -0.9935083772
     10  C         3.1405807498    0.1588796247    0.2283855750
     11  C         2.8746431642   -0.7858685199   -0.7322231150
     12  H         3.6426171413   -1.3552487293   -1.2223380538
     13  H        -4.0931848989   -0.4585734367    0.6180451043
     14  H        -3.6426171413    1.3552487293   -1.2223380538
     15  H         4.0931848989    0.4585734367    0.6180451043
     16  H         1.0764537963   -1.6075380955   -1.7005113333
   Point Group: c2    Number of degrees of freedom:    22


   Energy is  -1103.410826611

              Constraints and their Current Values
                                        Value     Constraint
   Dihedral:        4   5   7   9      -90.000      -90.000
 Hessian Updated using BFGS Update

 21 Hessian modes will be used to form the next step
  Hessian Eigenvalues:
     0.039669    0.045000    0.045000    0.045001    0.045003    0.048606
     0.157756    0.159986    0.160190    0.221567    0.238623    0.249466
     0.323179    0.338363    0.365553    0.366893    0.370109    0.405220
     0.444194    0.459679    0.497821

 Minimum Search - Taking Simple RFO Step
 Searching for Lamda that Minimizes Along All modes
 Value Taken    Lamda =  -0.00002842
 Step Taken.  Stepsize is  0.019005

                             Maximum     Tolerance    Cnvgd?
         Gradient           0.001029      0.000300      NO
         Displacement       0.012104      0.001200      NO
         Energy change     -0.000193      0.000001      NO


 New Cartesian Coordinates Obtained by Inverse Iteration

 Displacement from previous Coordinates is:  0.035848
 ----------------------------------------------------------------
             Standard Nuclear Orientation (Angstroms)
    I     Atom           X                Y                Z
 ----------------------------------------------------------------
    1      S      -1.7078903927    -0.8782395508     0.8084853938
    2      C      -3.1391550745    -0.1594755139     0.2271113865
    3      C      -2.8721486802     0.7858841114    -0.7332015364
    4      C      -1.4980342038     0.9185796460    -0.9901369135
    5      C      -0.7209360352     0.0737612818    -0.2288004680
    6      H      -1.0707985731     1.6047367786    -1.6989333267
    7      C       0.7209360352    -0.0737612818    -0.2288004680
    8      S       1.7078903927     0.8782395508     0.8084853938
    9      C       1.4980342038    -0.9185796460    -0.9901369135
   10      C       3.1391550745     0.1594755139     0.2271113865
   11      C       2.8721486802    -0.7858841114    -0.7332015364
   12      H       3.6392727022    -1.3536821165    -1.2264332875
   13      H      -4.0932760607    -0.4603200801     0.6119964278
   14      H      -3.6392727022     1.3536821165    -1.2264332875
   15      H       4.0932760607     0.4603200801     0.6119964278
   16      H       1.0707985731    -1.6047367786    -1.6989333267
 ----------------------------------------------------------------
 Molecular Point Group                 C2    NOp =  2
 Largest Abelian Subgroup              C2    NOp =  2
 Nuclear Repulsion Energy =   635.6324082056 hartrees
 There are       43 alpha and       43 beta electrons
 Applying Cartesian multipole field
    Component          Value
    ---------          -----
     (2,0,0)        1.00000E-11
     (0,2,0)        2.00000E-11
     (0,0,2)       -3.00000E-11
 Nucleus-field energy     =     0.0000000129 hartrees
 Requested basis set is cc-pVTZ
 There are 140 shells and 392 basis functions
 A cutoff of  1.0D-11 yielded   8052 shell pairs
 There are     62656 function pairs (     81696 Cartesian)
 Smallest overlap matrix eigenvalue = 9.86E-05
 Guess MOs from SCF MO coefficient file
 Reading MOs from coefficient file
 Reading MOs from coefficient file
 A restricted Hartree-Fock SCF calculation will be
 performed using Pulay DIIS extrapolation
 SCF converges when DIIS error is below 1.0E-08
 Geometry optimization detected.  Setting ReadMinima to 0
 Setting SaveMinima to 0
 using 16 threads for integral computing 
 ---------------------------------------
  Cycle       Energy         DIIS Error
 ---------------------------------------
    1   -1101.5964189216      6.57E-05
    2   -1101.5963904685      1.01E-05
    3   -1101.5963935371      5.30E-06
    4   -1101.5963942325      1.89E-06
    5   -1101.5963943926      8.19E-07
    6   -1101.5963944124      2.48E-07
    7   -1101.5963944155      9.76E-08
    8   -1101.5963944152      3.31E-08
    9   -1101.5963944160      1.23E-08
   10   -1101.5963944168      4.62E-09 Convergence criterion met
 ---------------------------------------
 SCF time:  CPU 617.35 s  wall 38.62 s
 SCF   energy in the final basis set = -1101.5963944168
 Total energy in the final basis set = -1101.5963944168
 
 Components of the MP2 correlation energy:
        aaaa  correlation energy =        -0.2320408359 au
        abab  correlation energy =        -1.3503670456 au
        bbbb  correlation energy =        -0.2320408359 au
        non-Brillouin singles    =        -0.0000000000 au

 Total  MP2   correlation energy =        -1.8144487173 au
        MP2         total energy =     -1103.4108431341 au

  Entering Z-vector solver.
   1         0           1      0.000265    0.000265
   2         0           1      0.000117    0.000117
   3         0           1      0.000048    0.000048
   4         0           1      0.000024    0.000024
   5         0           1      0.000007    0.000007
   6         0           1      0.000002    0.000002
   7         1           0      0.000000    0.000000    Roots Converged
 
 --------------------------------------------------------------
             Orbital Energies (a.u.) and Symmetries
 --------------------------------------------------------------
 
 Alpha MOs, Restricted
 -- Occupied --                  
-91.984 -91.984 -11.271 -11.271 -11.261 -11.261 -11.238 -11.238
  1 B     1 A     2 A     2 B     3 B     3 A     4 A     4 B                  
-11.236 -11.236  -8.985  -8.985  -6.666  -6.666  -6.666  -6.666
  5 B     5 A     6 B     6 A     7 A     7 B     8 A     8 B                  
 -6.665  -6.665  -1.194  -1.166  -1.032  -0.991  -0.991  -0.948
  9 B     9 A    10 A    10 B    11 A    11 B    12 A    12 B                  
 -0.805  -0.764  -0.762  -0.718  -0.703  -0.645  -0.570  -0.568
 13 A    13 B    14 A    14 B    15 A    15 B    16 A    16 B                  
 -0.565  -0.555  -0.537  -0.513  -0.511  -0.476  -0.475  -0.354
 17 A    17 B    18 A    18 B    19 A    19 B    20 A    21 A                  
 -0.343  -0.323  -0.322
 20 B    22 A    21 B                                                          
 -- Virtual --                   
  0.108   0.110   0.150   0.153   0.164   0.173   0.184   0.188
 23 A    22 B    23 B    24 A    25 A    24 B    26 A    27 A                  
  0.189   0.204   0.208   0.218   0.245   0.247   0.318   0.322
 25 B    28 A    26 B    27 B    28 B    29 A    30 A    29 B                  
  0.345   0.354   0.370   0.372   0.389   0.401   0.417   0.424
 30 B    31 A    31 B    32 A    33 A    32 B    33 B    34 A                  
  0.443   0.452   0.454   0.467   0.467   0.479   0.483   0.493
 35 A    36 A    34 B    37 A    35 B    36 B    38 A    37 B                  
  0.511   0.522   0.538   0.545   0.548   0.556   0.573   0.574
 38 B    39 A    39 B    40 B    40 A    41 A    41 B    42 A                  
  0.579   0.584   0.597   0.604   0.606   0.613   0.622   0.626
 43 A    42 B    44 A    43 B    45 A    44 B    46 A    45 B                  
  0.638   0.640   0.648   0.671   0.672   0.692   0.701   0.725
 47 A    46 B    47 B    48 A    48 B    49 A    50 A    49 B                  
  0.751   0.751   0.784   0.790   0.805   0.823   0.846   0.857
 51 A    50 B    51 B    52 A    52 B    53 A    53 B    54 A                  
  0.858   0.870   0.881   0.888   0.904   0.920   0.932   0.952
 54 B    55 A    55 B    56 B    56 A    57 A    57 B    58 A                  
  0.968   0.978   0.994   1.001   1.021   1.034   1.056   1.080
 59 A    58 B    59 B    60 A    61 A    60 B    61 B    62 A                  
  1.100   1.108   1.115   1.123   1.141   1.153   1.176   1.176
 62 B    63 A    63 B    64 A    65 A    64 B    65 B    66 A                  
  1.189   1.193   1.220   1.223   1.234   1.264   1.294   1.303
 67 A    66 B    68 A    67 B    69 A    68 B    70 A    69 B                  
  1.309   1.311   1.323   1.355   1.365   1.385   1.402   1.434
 70 B    71 A    71 B    72 A    72 B    73 A    73 B    74 A                  
  1.434   1.460   1.477   1.491   1.500   1.514   1.519   1.540
 74 B    75 B    75 A    76 A    76 B    77 B    77 A    78 B                  
  1.548   1.563   1.570   1.589   1.590   1.617   1.634   1.645
 79 B    78 A    79 A    80 B    80 A    81 A    81 B    82 A                  
  1.679   1.687   1.704   1.736   1.744   1.757   1.781   1.822
 82 B    83 A    83 B    84 B    84 A    85 B    85 A    86 A                  
  1.826   1.862   1.891   1.893   1.903   1.912   1.926   1.954
 86 B    87 B    87 A    88 B    88 A    89 B    89 A    90 B                  
  1.957   2.027   2.035   2.062   2.067   2.131   2.133   2.141
 90 A    91 B    91 A    92 B    92 A    93 A    93 B    94 A                  
  2.166   2.185   2.194   2.202   2.217   2.242   2.254   2.260
 94 B    95 A    95 B    96 A    96 B    97 A    97 B    98 A                  
  2.289   2.301   2.325   2.391   2.423   2.424   2.452   2.479
 98 B    99 B    99 A   100 A   101 A   100 B   102 A   101 B                  
  2.493   2.508   2.524   2.536   2.545   2.558   2.581   2.603
103 A   102 B   103 B   104 B   104 A   105 A   105 B   106 A                  
  2.607   2.642   2.662   2.689   2.711   2.722   2.745   2.768
106 B   107 B   107 A   108 A   108 B   109 B   109 A   110 A                  
  2.770   2.776   2.780   2.798   2.800   2.873   2.889   2.902
110 B   111 B   111 A   112 A   112 B   113 A   114 A   113 B                  
  2.920   2.926   2.934   2.970   3.006   3.012   3.016   3.028
114 B   115 B   115 A   116 A   117 A   116 B   118 A   117 B                  
  3.047   3.067   3.094   3.143   3.150   3.162   3.177   3.197
119 A   118 B   119 B   120 B   120 A   121 B   121 A   122 A                  
  3.213   3.221   3.234   3.238   3.255   3.272   3.284   3.285
122 B   123 A   123 B   124 A   124 B   125 A   125 B   126 A                  
  3.295   3.299   3.327   3.334   3.344   3.363   3.376   3.399
126 B   127 A   128 A   127 B   128 B   129 A   129 B   130 B                  
  3.412   3.422   3.426   3.448   3.450   3.458   3.467   3.477
130 A   131 B   131 A   132 A   133 A   132 B   134 A   133 B                  
  3.484   3.500   3.510   3.510   3.523   3.525   3.537   3.539
135 A   134 B   136 A   135 B   137 A   136 B   138 A   137 B                  
  3.552   3.580   3.587   3.595   3.607   3.615   3.656   3.660
138 B   139 A   140 A   139 B   140 B   141 A   142 A   141 B                  
  3.697   3.699   3.728   3.731   3.743   3.746   3.776   3.779
143 A   142 B   144 A   143 B   144 B   145 A   146 A   147 A                  
  3.795   3.841   3.868   3.878   3.895   3.909   3.924   3.938
145 B   146 B   147 B   148 A   148 B   149 A   149 B   150 A                  
  3.966   3.973   4.000   4.012   4.022   4.024   4.032   4.056
150 B   151 A   151 B   152 A   152 B   153 A   154 A   153 B                  
  4.074   4.107   4.118   4.157   4.167   4.167   4.190   4.194
154 B   155 B   155 A   156 A   157 A   156 B   158 A   157 B                  
  4.196   4.211   4.235   4.256   4.263   4.281   4.313   4.318
158 B   159 A   160 A   159 B   160 B   161 A   161 B   162 A                  
  4.346   4.378   4.400   4.410   4.454   4.476   4.519   4.522
162 B   163 A   163 B   164 A   164 B   165 A   165 B   166 A                  
  4.543   4.547   4.584   4.607   4.648   4.681   4.693   4.705
167 A   166 B   167 B   168 A   169 A   168 B   170 A   169 B                  
  4.720   4.724   4.747   4.766   4.785   4.824   4.848   4.886
171 A   170 B   171 B   172 B   172 A   173 A   173 B   174 A                  
  4.900   4.951   4.977   4.986   5.043   5.068   5.075   5.084
174 B   175 A   176 A   175 B   176 B   177 A   178 A   177 B                  
  5.090   5.098   5.193   5.238   5.244   5.295   5.300   5.377
179 A   178 B   179 B   180 A   180 B   181 A   181 B   182 A                  
  5.385   5.418   5.421   5.494   5.571   5.597   5.662   5.662
182 B   183 A   183 B   184 A   184 B   185 A   185 B   186 A                  
  5.814   5.869   5.953   6.021   6.093   6.128   6.183   6.190
186 B   187 A   187 B   188 A   188 B   189 A   189 B   190 A                  
  6.211   6.546   6.562   6.702   6.753   9.499  10.649  11.919
190 B   191 A   191 B   192 A   192 B   193 A   193 B   194 A                  
 12.151  13.504  13.547  14.567  14.646
194 B   195 A   195 B   196 A   196 B                                          
 
 Beta MOs, Restricted
 -- Occupied --                  
-91.984 -91.984 -11.271 -11.271 -11.261 -11.261 -11.238 -11.238
  1 B     1 A     2 A     2 B     3 B     3 A     4 A     4 B                  
-11.236 -11.236  -8.985  -8.985  -6.666  -6.666  -6.666  -6.666
  5 B     5 A     6 B     6 A     7 A     7 B     8 A     8 B                  
 -6.665  -6.665  -1.194  -1.166  -1.032  -0.991  -0.991  -0.948
  9 B     9 A    10 A    10 B    11 A    11 B    12 A    12 B                  
 -0.805  -0.764  -0.762  -0.718  -0.703  -0.645  -0.570  -0.568
 13 A    13 B    14 A    14 B    15 A    15 B    16 A    16 B                  
 -0.565  -0.555  -0.537  -0.513  -0.511  -0.476  -0.475  -0.354
 17 A    17 B    18 A    18 B    19 A    19 B    20 A    21 A                  
 -0.343  -0.323  -0.322
 20 B    22 A    21 B                                                          
 -- Virtual --                   
  0.108   0.110   0.150   0.153   0.164   0.173   0.184   0.188
 23 A    22 B    23 B    24 A    25 A    24 B    26 A    27 A                  
  0.189   0.204   0.208   0.218   0.245   0.247   0.318   0.322
 25 B    28 A    26 B    27 B    28 B    29 A    30 A    29 B                  
  0.345   0.354   0.370   0.372   0.389   0.401   0.417   0.424
 30 B    31 A    31 B    32 A    33 A    32 B    33 B    34 A                  
  0.443   0.452   0.454   0.467   0.467   0.479   0.483   0.493
 35 A    36 A    34 B    37 A    35 B    36 B    38 A    37 B                  
  0.511   0.522   0.538   0.545   0.548   0.556   0.573   0.574
 38 B    39 A    39 B    40 B    40 A    41 A    41 B    42 A                  
  0.579   0.584   0.597   0.604   0.606   0.613   0.622   0.626
 43 A    42 B    44 A    43 B    45 A    44 B    46 A    45 B                  
  0.638   0.640   0.648   0.671   0.672   0.692   0.701   0.725
 47 A    46 B    47 B    48 A    48 B    49 A    50 A    49 B                  
  0.751   0.751   0.784   0.790   0.805   0.823   0.846   0.857
 51 A    50 B    51 B    52 A    52 B    53 A    53 B    54 A                  
  0.858   0.870   0.881   0.888   0.904   0.920   0.932   0.952
 54 B    55 A    55 B    56 B    56 A    57 A    57 B    58 A                  
  0.968   0.978   0.994   1.001   1.021   1.034   1.056   1.080
 59 A    58 B    59 B    60 A    61 A    60 B    61 B    62 A                  
  1.100   1.108   1.115   1.123   1.141   1.153   1.176   1.176
 62 B    63 A    63 B    64 A    65 A    64 B    65 B    66 A                  
  1.189   1.193   1.220   1.223   1.234   1.264   1.294   1.303
 67 A    66 B    68 A    67 B    69 A    68 B    70 A    69 B                  
  1.309   1.311   1.323   1.355   1.365   1.385   1.402   1.434
 70 B    71 A    71 B    72 A    72 B    73 A    73 B    74 A                  
  1.434   1.460   1.477   1.491   1.500   1.514   1.519   1.540
 74 B    75 B    75 A    76 A    76 B    77 B    77 A    78 B                  
  1.548   1.563   1.570   1.589   1.590   1.617   1.634   1.645
 79 B    78 A    79 A    80 B    80 A    81 A    81 B    82 A                  
  1.679   1.687   1.704   1.736   1.744   1.757   1.781   1.822
 82 B    83 A    83 B    84 B    84 A    85 B    85 A    86 A                  
  1.826   1.862   1.891   1.893   1.903   1.912   1.926   1.954
 86 B    87 B    87 A    88 B    88 A    89 B    89 A    90 B                  
  1.957   2.027   2.035   2.062   2.067   2.131   2.133   2.141
 90 A    91 B    91 A    92 B    92 A    93 A    93 B    94 A                  
  2.166   2.185   2.194   2.202   2.217   2.242   2.254   2.260
 94 B    95 A    95 B    96 A    96 B    97 A    97 B    98 A                  
  2.289   2.301   2.325   2.391   2.423   2.424   2.452   2.479
 98 B    99 B    99 A   100 A   101 A   100 B   102 A   101 B                  
  2.493   2.508   2.524   2.536   2.545   2.558   2.581   2.603
103 A   102 B   103 B   104 B   104 A   105 A   105 B   106 A                  
  2.607   2.642   2.662   2.689   2.711   2.722   2.745   2.768
106 B   107 B   107 A   108 A   108 B   109 B   109 A   110 A                  
  2.770   2.776   2.780   2.798   2.800   2.873   2.889   2.902
110 B   111 B   111 A   112 A   112 B   113 A   114 A   113 B                  
  2.920   2.926   2.934   2.970   3.006   3.012   3.016   3.028
114 B   115 B   115 A   116 A   117 A   116 B   118 A   117 B                  
  3.047   3.067   3.094   3.143   3.150   3.162   3.177   3.197
119 A   118 B   119 B   120 B   120 A   121 B   121 A   122 A                  
  3.213   3.221   3.234   3.238   3.255   3.272   3.284   3.285
122 B   123 A   123 B   124 A   124 B   125 A   125 B   126 A                  
  3.295   3.299   3.327   3.334   3.344   3.363   3.376   3.399
126 B   127 A   128 A   127 B   128 B   129 A   129 B   130 B                  
  3.412   3.422   3.426   3.448   3.450   3.458   3.467   3.477
130 A   131 B   131 A   132 A   133 A   132 B   134 A   133 B                  
  3.484   3.500   3.510   3.510   3.523   3.525   3.537   3.539
135 A   134 B   136 A   135 B   137 A   136 B   138 A   137 B                  
  3.552   3.580   3.587   3.595   3.607   3.615   3.656   3.660
138 B   139 A   140 A   139 B   140 B   141 A   142 A   141 B                  
  3.697   3.699   3.728   3.731   3.743   3.746   3.776   3.779
143 A   142 B   144 A   143 B   144 B   145 A   146 A   147 A                  
  3.795   3.841   3.868   3.878   3.895   3.909   3.924   3.938
145 B   146 B   147 B   148 A   148 B   149 A   149 B   150 A                  
  3.966   3.973   4.000   4.012   4.022   4.024   4.032   4.056
150 B   151 A   151 B   152 A   152 B   153 A   154 A   153 B                  
  4.074   4.107   4.118   4.157   4.167   4.167   4.190   4.194
154 B   155 B   155 A   156 A   157 A   156 B   158 A   157 B                  
  4.196   4.211   4.235   4.256   4.263   4.281   4.313   4.318
158 B   159 A   160 A   159 B   160 B   161 A   161 B   162 A                  
  4.346   4.378   4.400   4.410   4.454   4.476   4.519   4.522
162 B   163 A   163 B   164 A   164 B   165 A   165 B   166 A                  
  4.543   4.547   4.584   4.607   4.648   4.681   4.693   4.705
167 A   166 B   167 B   168 A   169 A   168 B   170 A   169 B                  
  4.720   4.724   4.747   4.766   4.785   4.824   4.848   4.886
171 A   170 B   171 B   172 B   172 A   173 A   173 B   174 A                  
  4.900   4.951   4.977   4.986   5.043   5.068   5.075   5.084
174 B   175 A   176 A   175 B   176 B   177 A   178 A   177 B                  
  5.090   5.098   5.193   5.238   5.244   5.295   5.300   5.377
179 A   178 B   179 B   180 A   180 B   181 A   181 B   182 A                  
  5.385   5.418   5.421   5.494   5.571   5.597   5.662   5.662
182 B   183 A   183 B   184 A   184 B   185 A   185 B   186 A                  
  5.814   5.869   5.953   6.021   6.093   6.128   6.183   6.190
186 B   187 A   187 B   188 A   188 B   189 A   189 B   190 A                  
  6.211   6.546   6.562   6.702   6.753   9.499  10.649  11.919
190 B   191 A   191 B   192 A   192 B   193 A   193 B   194 A                  
 12.151  13.504  13.547  14.567  14.646
194 B   195 A   195 B   196 A   196 B                                          
 --------------------------------------------------------------
 
          Ground-State Mulliken Net Atomic Charges

     Atom                 Charge (a.u.)
  ----------------------------------------
      1 S                     0.131215
      2 C                    -0.239699
      3 C                    -0.191108
      4 C                    -0.192010
      5 C                    -0.043688
      6 H                     0.176358
      7 C                    -0.043688
      8 S                     0.131215
      9 C                    -0.192010
     10 C                    -0.239699
     11 C                    -0.191108
     12 H                     0.174707
     13 H                     0.184226
     14 H                     0.174707
     15 H                     0.184226
     16 H                     0.176358
  ----------------------------------------
  Sum of atomic charges =    -0.000000

 -----------------------------------------------------------------
                    Cartesian Multipole Moments
 -----------------------------------------------------------------
    Charge (ESU x 10^10)
                -0.0000
    Dipole Moment (Debye)
         X      -0.0000      Y       0.0000      Z      -0.5128
       Tot       0.5128
    Quadrupole Moments (Debye-Ang)
        XX     -61.3960     XY      -0.9235     YY     -72.7470
        XZ      -0.0000     YZ      -0.0000     ZZ     -72.6979
    Octopole Moments (Debye-Ang^2)
       XXX      -0.0000    XXY       0.0000    XYY      -0.0000
       YYY      -0.0000    XXZ       5.8464    XYZ      12.8890
       YYZ      -4.7251    XZZ      -0.0000    YZZ      -0.0000
       ZZZ       0.5592
    Hexadecapole Moments (Debye-Ang^3)
      XXXX   -1838.7872   XXXY       6.2093   XXYY    -404.6929
      XYYY       1.9781   YYYY    -346.3294   XXXZ       0.0000
      XXYZ      -0.0000   XYYZ       0.0000   YYYZ      -0.0000
      XXZZ    -404.0083   XYZZ      -5.6484   YYZZ    -100.7338
      XZZZ      -0.0000   YZZZ      -0.0000   ZZZZ    -337.3329
 -----------------------------------------------------------------
 DrvMan is completing analytic gradient of the MP2 energy
 MP2 relaxed dipole moment
            1
    1  -0.0000000
    2   0.0000000
    3  -0.2017444
	Magnitude:	 0.202 au	 0.513 Debye
 MP2 energy read as -1103.410843
 Full Analytical Gradient of MP2 Energy (in au.)
             1             2             3             4             5
    1   -0.00008145    0.00001999    0.00018394   -0.00018904   -0.00025298
    2   -0.00011208   -0.00000762    0.00010212   -0.00037922    0.00056518
    3    0.00036236   -0.00011439    0.00005859   -0.00017789   -0.00025506
             6             7             8             9            10
    1   -0.00001479    0.00025298    0.00008145    0.00018904   -0.00001999
    2    0.00016467   -0.00056518    0.00011208    0.00037922    0.00000762
    3    0.00013668   -0.00025506    0.00036236   -0.00017789   -0.00011439
            11            12            13            14            15
    1   -0.00018394   -0.00002317    0.00005565    0.00002317   -0.00005565
    2   -0.00010212   -0.00000337   -0.00002104    0.00000337    0.00002104
    3    0.00005859   -0.00007303    0.00006274   -0.00007303    0.00006274
            16
    1    0.00001479
    2   -0.00016467
    3    0.00013668
 Gradient time:  CPU 1.44 s  wall 0.09 s
 Geometry Optimization Parameters
   NAtoms,    NIC,     NZ,  NCons,   NDum,   NFix, NCnnct, MaxDiis
       16     111       0       1       0       0       0       0

 Cartesian Hessian Update
 Hessian Updated using BFGS Update


** CONSTRAINED OPTIMIZATION IN DELOCALIZED INTERNAL COORDINATES **
   Searching for a Minimum

   Optimization Cycle:   3

[...]
         Gradient           0.000073      0.000300     YES
         Displacement       0.003107      0.001200      NO
         Energy change     -0.000001      0.000001     YES

 Final energy is   -1103.41084753178     


 ******************************
 **  OPTIMIZATION CONVERGED  **
 ******************************

                       Coordinates (Angstroms)
     ATOM                X               Y               Z
      1  S        -1.7099757454   -0.8801093514    0.8082121244
      2  C        -3.1400246416   -0.1604518656    0.2251677984
      3  C        -2.8709900914    0.7859528515   -0.7335558927
      4  C        -1.4960033788    0.9192342740   -0.9868747050
      5  C        -0.7207758808    0.0735448515   -0.2242458825
      6  H        -1.0668526075    1.6028783269   -1.6969099830
      7  C         0.7207758808   -0.0735448515   -0.2242458825
      8  S         1.7099757454    0.8801093514    0.8082121244
      9  C         1.4960033788   -0.9192342740   -0.9868747050
     10  C         3.1400246416    0.1604518656    0.2251677984
     11  C         2.8709900914   -0.7859528515   -0.7335558927
     12  H         3.6374227663   -1.3537134911   -1.2278310786
     13  H        -4.0954773292   -0.4621499594    0.6061252952
     14  H        -3.6374227663    1.3537134911   -1.2278310786
     15  H         4.0954773292    0.4621499594    0.6061252952
     16  H         1.0668526075   -1.6028783269   -1.6969099830

Z-matrix Print:
$molecule
0 1
S 
C  1 1.703786
H  2 1.071933 1 120.506181
C  2 1.373759 1 111.434336 3 179.897120 0
H  4 1.074281 2 123.056875 1 -179.910340 0
C  4 1.404465 2 112.518383 1 0.034726 0
H  6 1.075030 4 124.770954 2 179.848767 0
C  6 1.377596 4 113.130146 2 -0.135141 0
C  8 1.449037 6 128.473126 4 -179.408787 0
C  9 1.377596 8 128.473126 6 90.000004 0
H  10 1.075030 9 122.098898 8 0.606817 0
C  10 1.404465 9 113.130146 8 -179.408787 0
H  12 1.074281 10 124.424718 9 179.809042 0
C  12 1.373759 10 112.518383 9 -0.135141 0
H  14 1.071933 12 128.059389 10 179.922151 0
S  14 1.703786 12 111.434336 10 0.034726 0
$end

 
 --------------------------------------------------------------
             Orbital Energies (a.u.) and Symmetries
 --------------------------------------------------------------
 
 Alpha MOs, Restricted
 -- Occupied --                  
-91.984 -91.984 -11.271 -11.270 -11.261 -11.261 -11.238 -11.238
  1 B     1 A     2 A     2 B     3 B     3 A     4 A     4 B                  
-11.236 -11.236  -8.985  -8.985  -6.666  -6.666  -6.666  -6.666
  5 B     5 A     6 B     6 A     7 A     7 B     8 A     8 B                  
 -6.665  -6.665  -1.194  -1.166  -1.032  -0.991  -0.991  -0.948
  9 B     9 A    10 A    10 B    11 A    11 B    12 A    12 B                  
 -0.805  -0.764  -0.761  -0.718  -0.703  -0.645  -0.570  -0.568
 13 A    13 B    14 A    14 B    15 A    15 B    16 A    16 B                  
 -0.565  -0.555  -0.537  -0.513  -0.511  -0.476  -0.475  -0.354
 17 A    17 B    18 A    18 B    19 A    19 B    20 A    21 A                  
 -0.343  -0.323  -0.322
 20 B    22 A    21 B                                                          
 -- Virtual --                   
  0.108   0.110   0.150   0.153   0.164   0.173   0.184   0.189
 23 A    22 B    23 B    24 A    25 A    24 B    26 A    27 A                  
  0.189   0.204   0.208   0.218   0.245   0.247   0.318   0.322
 25 B    28 A    26 B    27 B    28 B    29 A    30 A    29 B                  
  0.345   0.354   0.370   0.372   0.388   0.402   0.417   0.425
 30 B    31 A    31 B    32 A    33 A    32 B    33 B    34 A                  
  0.443   0.453   0.454   0.467   0.467   0.479   0.484   0.493
 35 A    36 A    34 B    37 A    35 B    36 B    38 A    37 B                  
  0.511   0.522   0.538   0.546   0.548   0.556   0.573   0.574
 38 B    39 A    39 B    40 B    40 A    41 A    41 B    42 A                  
  0.579   0.584   0.597   0.604   0.606   0.613   0.622   0.626
 43 A    42 B    44 A    43 B    45 A    44 B    46 A    45 B                  
  0.638   0.640   0.648   0.671   0.672   0.692   0.701   0.726
 47 A    46 B    47 B    48 A    48 B    49 A    50 A    49 B                  
  0.751   0.751   0.784   0.790   0.805   0.824   0.846   0.857
 50 B    51 A    51 B    52 A    52 B    53 A    53 B    54 A                  
  0.857   0.870   0.881   0.888   0.904   0.920   0.933   0.952
 54 B    55 A    55 B    56 B    56 A    57 A    57 B    58 A                  
  0.968   0.978   0.994   1.001   1.021   1.034   1.056   1.081
 59 A    58 B    59 B    60 A    61 A    60 B    61 B    62 A                  
  1.100   1.107   1.115   1.122   1.141   1.152   1.176   1.176
 62 B    63 A    63 B    64 A    65 A    64 B    65 B    66 A                  
  1.189   1.193   1.220   1.223   1.235   1.264   1.294   1.304
 67 A    66 B    68 A    67 B    69 A    68 B    70 A    69 B                  
  1.309   1.311   1.323   1.355   1.365   1.385   1.402   1.434
 70 B    71 A    71 B    72 A    72 B    73 A    73 B    74 A                  
  1.434   1.460   1.477   1.491   1.500   1.514   1.519   1.541
 74 B    75 B    75 A    76 A    76 B    77 B    77 A    78 B                  
  1.548   1.562   1.570   1.588   1.590   1.617   1.634   1.645
 79 B    78 A    79 A    80 B    80 A    81 A    81 B    82 A                  
  1.679   1.688   1.705   1.736   1.744   1.758   1.781   1.822
 82 B    83 A    83 B    84 B    84 A    85 B    85 A    86 A                  
  1.826   1.862   1.891   1.893   1.904   1.912   1.926   1.953
 86 B    87 B    87 A    88 B    88 A    89 B    89 A    90 B                  
  1.957   2.027   2.035   2.062   2.067   2.131   2.133   2.142
 90 A    91 B    91 A    92 B    92 A    93 A    93 B    94 A                  
  2.166   2.185   2.194   2.202   2.216   2.242   2.254   2.260
 94 B    95 A    95 B    96 A    96 B    97 A    97 B    98 A                  
  2.289   2.301   2.326   2.390   2.423   2.424   2.452   2.479
 98 B    99 B    99 A   100 A   101 A   100 B   102 A   101 B                  
  2.492   2.509   2.525   2.536   2.545   2.558   2.582   2.603
103 A   102 B   103 B   104 B   104 A   105 A   105 B   106 A                  
  2.606   2.642   2.662   2.689   2.710   2.722   2.745   2.768
106 B   107 B   107 A   108 A   108 B   109 B   109 A   110 A                  
  2.769   2.776   2.779   2.799   2.801   2.873   2.889   2.902
110 B   111 B   111 A   112 A   112 B   113 A   114 A   113 B                  
  2.920   2.926   2.934   2.970   3.006   3.012   3.016   3.027
114 B   115 B   115 A   116 A   117 A   116 B   118 A   117 B                  
  3.048   3.067   3.094   3.144   3.149   3.162   3.177   3.196
119 A   118 B   119 B   120 B   120 A   121 B   121 A   122 A                  
  3.213   3.221   3.235   3.238   3.255   3.272   3.284   3.285
122 B   123 A   123 B   124 A   124 B   125 A   125 B   126 A                  
  3.295   3.298   3.327   3.334   3.344   3.363   3.375   3.399
126 B   127 A   128 A   127 B   128 B   129 A   129 B   130 B                  
  3.411   3.422   3.427   3.448   3.450   3.458   3.467   3.477
130 A   131 B   131 A   132 A   133 A   132 B   134 A   133 B                  
  3.484   3.500   3.510   3.510   3.523   3.525   3.537   3.539
135 A   134 B   135 B   136 A   137 A   136 B   138 A   137 B                  
  3.552   3.580   3.587   3.596   3.607   3.614   3.657   3.660
138 B   139 A   140 A   139 B   140 B   141 A   142 A   141 B                  
  3.697   3.699   3.728   3.731   3.742   3.746   3.777   3.779
143 A   142 B   144 A   143 B   144 B   145 A   146 A   147 A                  
  3.793   3.840   3.868   3.877   3.895   3.909   3.925   3.939
145 B   146 B   147 B   148 A   148 B   149 A   149 B   150 A                  
  3.966   3.972   4.000   4.012   4.022   4.024   4.032   4.056
150 B   151 A   151 B   152 A   152 B   153 A   154 A   153 B                  
  4.074   4.107   4.118   4.158   4.167   4.168   4.190   4.195
154 B   155 B   155 A   156 A   157 A   156 B   158 A   157 B                  
  4.196   4.211   4.235   4.256   4.263   4.281   4.313   4.318
158 B   159 A   160 A   159 B   160 B   161 A   161 B   162 A                  
  4.346   4.378   4.400   4.411   4.454   4.477   4.518   4.523
162 B   163 A   163 B   164 A   164 B   165 A   165 B   166 A                  
  4.543   4.547   4.584   4.608   4.647   4.681   4.693   4.705
167 A   166 B   167 B   168 A   169 A   168 B   170 A   169 B                  
  4.719   4.725   4.747   4.765   4.784   4.824   4.849   4.886
171 A   170 B   171 B   172 B   172 A   173 A   173 B   174 A                  
  4.900   4.951   4.976   4.986   5.043   5.068   5.075   5.084
174 B   175 A   176 A   175 B   176 B   177 A   178 A   177 B                  
  5.090   5.097   5.193   5.238   5.244   5.295   5.300   5.377
179 A   178 B   179 B   180 A   180 B   181 A   181 B   182 A                  
  5.385   5.418   5.421   5.494   5.571   5.597   5.662   5.662
182 B   183 A   183 B   184 A   184 B   185 A   186 A   185 B                  
  5.814   5.870   5.952   6.022   6.093   6.128   6.184   6.190
186 B   187 A   187 B   188 A   188 B   189 A   189 B   190 A                  
  6.212   6.547   6.562   6.701   6.751   9.499  10.651  11.917
190 B   191 A   191 B   192 A   192 B   193 A   193 B   194 A                  
 12.152  13.505  13.544  14.564  14.644
194 B   195 A   195 B   196 A   196 B                                          
 
 Beta MOs, Restricted
 -- Occupied --                  
-91.984 -91.984 -11.271 -11.270 -11.261 -11.261 -11.238 -11.238
  1 B     1 A     2 A     2 B     3 B     3 A     4 A     4 B                  
-11.236 -11.236  -8.985  -8.985  -6.666  -6.666  -6.666  -6.666
  5 B     5 A     6 B     6 A     7 A     7 B     8 A     8 B                  
 -6.665  -6.665  -1.194  -1.166  -1.032  -0.991  -0.991  -0.948
  9 B     9 A    10 A    10 B    11 A    11 B    12 A    12 B                  
 -0.805  -0.764  -0.761  -0.718  -0.703  -0.645  -0.570  -0.568
 13 A    13 B    14 A    14 B    15 A    15 B    16 A    16 B                  
 -0.565  -0.555  -0.537  -0.513  -0.511  -0.476  -0.475  -0.354
 17 A    17 B    18 A    18 B    19 A    19 B    20 A    21 A                  
 -0.343  -0.323  -0.322
 20 B    22 A    21 B                                                          
 -- Virtual --                   
  0.108   0.110   0.150   0.153   0.164   0.173   0.184   0.189
 23 A    22 B    23 B    24 A    25 A    24 B    26 A    27 A                  
  0.189   0.204   0.208   0.218   0.245   0.247   0.318   0.322
 25 B    28 A    26 B    27 B    28 B    29 A    30 A    29 B                  
  0.345   0.354   0.370   0.372   0.388   0.402   0.417   0.425
 30 B    31 A    31 B    32 A    33 A    32 B    33 B    34 A                  
  0.443   0.453   0.454   0.467   0.467   0.479   0.484   0.493
 35 A    36 A    34 B    37 A    35 B    36 B    38 A    37 B                  
  0.511   0.522   0.538   0.546   0.548   0.556   0.573   0.574
 38 B    39 A    39 B    40 B    40 A    41 A    41 B    42 A                  
  0.579   0.584   0.597   0.604   0.606   0.613   0.622   0.626
 43 A    42 B    44 A    43 B    45 A    44 B    46 A    45 B                  
  0.638   0.640   0.648   0.671   0.672   0.692   0.701   0.726
 47 A    46 B    47 B    48 A    48 B    49 A    50 A    49 B                  
  0.751   0.751   0.784   0.790   0.805   0.824   0.846   0.857
 50 B    51 A    51 B    52 A    52 B    53 A    53 B    54 A                  
  0.857   0.870   0.881   0.888   0.904   0.920   0.933   0.952
 54 B    55 A    55 B    56 B    56 A    57 A    57 B    58 A                  
  0.968   0.978   0.994   1.001   1.021   1.034   1.056   1.081
 59 A    58 B    59 B    60 A    61 A    60 B    61 B    62 A                  
  1.100   1.107   1.115   1.122   1.141   1.152   1.176   1.176
 62 B    63 A    63 B    64 A    65 A    64 B    65 B    66 A                  
  1.189   1.193   1.220   1.223   1.235   1.264   1.294   1.304
 67 A    66 B    68 A    67 B    69 A    68 B    70 A    69 B                  
  1.309   1.311   1.323   1.355   1.365   1.385   1.402   1.434
 70 B    71 A    71 B    72 A    72 B    73 A    73 B    74 A                  
  1.434   1.460   1.477   1.491   1.500   1.514   1.519   1.541
 74 B    75 B    75 A    76 A    76 B    77 B    77 A    78 B                  
  1.548   1.562   1.570   1.588   1.590   1.617   1.634   1.645
 79 B    78 A    79 A    80 B    80 A    81 A    81 B    82 A                  
  1.679   1.688   1.705   1.736   1.744   1.758   1.781   1.822
 82 B    83 A    83 B    84 B    84 A    85 B    85 A    86 A                  
  1.826   1.862   1.891   1.893   1.904   1.912   1.926   1.953
 86 B    87 B    87 A    88 B    88 A    89 B    89 A    90 B                  
  1.957   2.027   2.035   2.062   2.067   2.131   2.133   2.142
 90 A    91 B    91 A    92 B    92 A    93 A    93 B    94 A                  
  2.166   2.185   2.194   2.202   2.216   2.242   2.254   2.260
 94 B    95 A    95 B    96 A    96 B    97 A    97 B    98 A                  
  2.289   2.301   2.326   2.390   2.423   2.424   2.452   2.479
 98 B    99 B    99 A   100 A   101 A   100 B   102 A   101 B                  
  2.492   2.509   2.525   2.536   2.545   2.558   2.582   2.603
103 A   102 B   103 B   104 B   104 A   105 A   105 B   106 A                  
  2.606   2.642   2.662   2.689   2.710   2.722   2.745   2.768
106 B   107 B   107 A   108 A   108 B   109 B   109 A   110 A                  
  2.769   2.776   2.779   2.799   2.801   2.873   2.889   2.902
110 B   111 B   111 A   112 A   112 B   113 A   114 A   113 B                  
  2.920   2.926   2.934   2.970   3.006   3.012   3.016   3.027
114 B   115 B   115 A   116 A   117 A   116 B   118 A   117 B                  
  3.048   3.067   3.094   3.144   3.149   3.162   3.177   3.196
119 A   118 B   119 B   120 B   120 A   121 B   121 A   122 A                  
  3.213   3.221   3.235   3.238   3.255   3.272   3.284   3.285
122 B   123 A   123 B   124 A   124 B   125 A   125 B   126 A                  
  3.295   3.298   3.327   3.334   3.344   3.363   3.375   3.399
126 B   127 A   128 A   127 B   128 B   129 A   129 B   130 B                  
  3.411   3.422   3.427   3.448   3.450   3.458   3.467   3.477
130 A   131 B   131 A   132 A   133 A   132 B   134 A   133 B                  
  3.484   3.500   3.510   3.510   3.523   3.525   3.537   3.539
135 A   134 B   135 B   136 A   137 A   136 B   138 A   137 B                  
  3.552   3.580   3.587   3.596   3.607   3.614   3.657   3.660
138 B   139 A   140 A   139 B   140 B   141 A   142 A   141 B                  
  3.697   3.699   3.728   3.731   3.742   3.746   3.777   3.779
143 A   142 B   144 A   143 B   144 B   145 A   146 A   147 A                  
  3.793   3.840   3.868   3.877   3.895   3.909   3.925   3.939
145 B   146 B   147 B   148 A   148 B   149 A   149 B   150 A                  
  3.966   3.972   4.000   4.012   4.022   4.024   4.032   4.056
150 B   151 A   151 B   152 A   152 B   153 A   154 A   153 B                  
  4.074   4.107   4.118   4.158   4.167   4.168   4.190   4.195
154 B   155 B   155 A   156 A   157 A   156 B   158 A   157 B                  
  4.196   4.211   4.235   4.256   4.263   4.281   4.313   4.318
158 B   159 A   160 A   159 B   160 B   161 A   161 B   162 A                  
  4.346   4.378   4.400   4.411   4.454   4.477   4.518   4.523
162 B   163 A   163 B   164 A   164 B   165 A   165 B   166 A                  
  4.543   4.547   4.584   4.608   4.647   4.681   4.693   4.705
167 A   166 B   167 B   168 A   169 A   168 B   170 A   169 B                  
  4.719   4.725   4.747   4.765   4.784   4.824   4.849   4.886
171 A   170 B   171 B   172 B   172 A   173 A   173 B   174 A                  
  4.900   4.951   4.976   4.986   5.043   5.068   5.075   5.084
174 B   175 A   176 A   175 B   176 B   177 A   178 A   177 B                  
  5.090   5.097   5.193   5.238   5.244   5.295   5.300   5.377
179 A   178 B   179 B   180 A   180 B   181 A   181 B   182 A                  
  5.385   5.418   5.421   5.494   5.571   5.597   5.662   5.662
182 B   183 A   183 B   184 A   184 B   185 A   186 A   185 B                  
  5.814   5.870   5.952   6.022   6.093   6.128   6.184   6.190
186 B   187 A   187 B   188 A   188 B   189 A   189 B   190 A                  
  6.212   6.547   6.562   6.701   6.751   9.499  10.651  11.917
190 B   191 A   191 B   192 A   192 B   193 A   193 B   194 A                  
 12.152  13.505  13.544  14.564  14.644
194 B   195 A   195 B   196 A   196 B                                          
 --------------------------------------------------------------
 
          Ground-State Mulliken Net Atomic Charges

     Atom                 Charge (a.u.)
  ----------------------------------------
      1 S                     0.131447
      2 C                    -0.239762
      3 C                    -0.191233
      4 C                    -0.192070
      5 C                    -0.043750
      6 H                     0.176367
      7 C                    -0.043750
      8 S                     0.131447
      9 C                    -0.192070
     10 C                    -0.239762
     11 C                    -0.191233
     12 H                     0.174736
     13 H                     0.184265
     14 H                     0.174736
     15 H                     0.184265
     16 H                     0.176367
  ----------------------------------------
  Sum of atomic charges =     0.000000

 -----------------------------------------------------------------
                    Cartesian Multipole Moments
 -----------------------------------------------------------------
    Charge (ESU x 10^10)
                 0.0000
    Dipole Moment (Debye)
         X      -0.0000      Y       0.0000      Z      -0.5224
       Tot       0.5224
    Quadrupole Moments (Debye-Ang)
        XX     -61.3807     XY      -0.8925     YY     -72.7543
        XZ      -0.0000     YZ       0.0000     ZZ     -72.7064
    Octopole Moments (Debye-Ang^2)
       XXX      -0.0000    XXY      -0.0000    XYY       0.0000
       YYY       0.0000    XXZ       5.6711    XYZ      12.8620
       YYZ      -4.7476    XZZ       0.0000    YZZ       0.0000
       ZZZ       0.3722
    Hexadecapole Moments (Debye-Ang^3)
      XXXX   -1838.5861   XXXY       6.0721   XXYY    -404.8431
      XYYY       1.4717   YYYY    -346.9935   XXXZ      -0.0000
      XXYZ       0.0000   XYYZ      -0.0000   YYYZ       0.0000
      XXZZ    -404.2096   XYZZ      -5.8876   YYZZ    -100.7535
      XZZZ      -0.0000   YZZZ       0.0000   ZZZZ    -336.5858
 -----------------------------------------------------------------
Archival summary:
1\1\nid01244\OPT\MP2\BasisUnspecified\286\MonMar616:02:522017MonMar616:02:522017\0\\#,OPT,MP2,BasisUnspecified,\\0,1\S\C,1,1.70379\H,2,1.07193,1,120.506\C,2,1.37376,1,111.434,3,179.897,0\H,4,1.07428,2,123.057,1,-179.91,0\C,4,1.40447,2,112.518,1,0.034726,0\H,6,1.07503,4,124.771,2,179.849,0\C,6,1.3776,4,113.13,2,-0.135141,0\C,8,1.44904,6,128.473,4,-179.409,0\C,9,1.3776,8,128.473,6,90,0\H,10,1.07503,9,122.099,8,0.606817,0\C,10,1.40447,9,113.13,8,-179.409,0\H,12,1.07428,10,124.425,9,179.809,0\C,12,1.37376,10,112.518,9,-0.135141,0\H,14,1.07193,12,128.059,10,179.922,0\S,14,1.70379,12,111.434,10,0.034726,0\\HF=-1101.5964\MP2=-1103.41085\\@

 Total job time:  7350.68s(wall), 38004.67s(cpu) 
 Mon Mar  6 16:02:52 2017

        *************************************************************
        *                                                           *
        *  Thank you very much for using Q-Chem.  Have a nice day.  *
        *                                                           *
        *************************************************************


0 sent ACK to 0 
now end server 0 ... 
