srun -N 1 --ntasks-per-node 1 --cpus-per-task 64 --cpu_bind=cores --nodelist nid01264 /global/project/projectdirs/jcesr/qchem/qc44/cnl_qc441/dist/exe/qcprog.cori.haswell.exe .pt_mp2_110.0.in.29794.qcin.1 /dev/shm/eg_qchem/qchem29794/
Process 0 of 1 is on nid01264 - thread support 0
initial socket setup ...start
initial socket setup ...done 
now start server 0 ... 
nid01264 10.128.4
Q-Chem Developer Version! Running on 10.128.4.*
                  Welcome to Q-Chem
     A Quantum Leap Into The Future Of Chemistry


 Q-Chem 4.4, Q-Chem, Inc., Pleasanton, CA (2016)

 Y. Shao,  Z. Gan,  E. Epifanovsky,  A. T. B. Gilbert,  M. Wormit,  
 J. Kussmann,  A. W. Lange,  A. Behn,  J. Deng,  X. Feng,  D. Ghosh,  
 M. Goldey,  P. R. Horn,  L. D. Jacobson,  I. Kaliman,  F.Rob,  
 R. Z. Khaliullin,  T. Kus,  A. Landau,  J. Liu,  E. I. Proynov,  Y. M. Rhee,  
 R. M. Richard,  M. A. Rohrdanz,  R. P. Steele,  E. J. Sundstrom,  
 H. L. Woodcock III,  P. M. Zimmerman,  D. Zuev,  B. Albrecht,  E. Alguire,  
 B. Austin,  S. A. Baeppler,  G. J. O. Beran,  Y. A. Bernard,  E. Berquist,  
 K. Brandhorst,  K. B. Bravaya,  S. T. Brown,  D. Casanova,  C.-M. Chang,  
 Y. Chen,  S. H. Chien,  K. D. Closser,  M. P. Coons,  D. L. Crittenden,  
 S. Dasgupta,  M. Diedenhofen,  R. A. DiStasio Jr.,  H. Do,  A. D. Dutoi,  
 R. G. Edgar,  P.-T. Fang,  S. Fatehi,  Q. Feng,  L. Fusti-Molnar,  
 A. Ghysels,  A. Golubeva-Zadorozhnaya,  J. Gomes,  A. Gunina,  
 M. W. D. Hanson-Heine,  P. H. P. Harbach,  A. W. Hauser,  E. G. Hohenstein,  
 Z. C. Holden,  K. Hui,  T.-C. Jagau,  H. Ji,  B. Kaduk,  K. Khistyaev,  
 Jaehoon Kim,  Jihan Kim,  R. A. King,  P. Klunzinger,  D. Kosenkov,  
 T. Kowalczyk,  C. M. Krauter,  A. Kunitsa,  K. U. Lao,  A. Laurent,  
 K. V. Lawler,  D. Lefrancois,  S. Lehtola,  S. V. Levchenko,  C. Y. Lin,  
 Y.-S. Lin,  F. Liu,  E. Livshits,  R. C. Lochan,  A. Luenser,  P. Manohar,  
 S. F. Manzer,  S.-P. Mao,  Y. Mao,  N. Mardirossian,  A. V. Marenich,  
 L. A. Martinez-Martinez,  S. A. Maurer,  N. J. Mayhall,  J.-M. Mewes,  
 A. F. Morrison,  K. Nanda,  C. M. Oana,  R. Olivares-Amaya,  D. P. O'Neill,  
 J. A. Parkhill,  T. M. Perrine,  R. Peverati,  P. A. Pieniazek,  F. Plasser,  
 A. Prociuk,  D. R. Rehn,  E. Rosta,  N. J. Russ,  N. Sergueev,  
 S. M. Sharada,  S. Sharma,  D. W. Small,  A. Sodt,  T. Stauch,  T. Stein,  
 D. Stuck,  Y.-C. Su,  A. J. W. Thom,  T. Tsuchimochi,  L. Vogt,  O. Vydrov,  
 T. Wang,  M. A. Watson,  J. Wenzel,  A. White,  C. F. Williams,  
 V. Vanovschi,  S. Yeganeh,  S. R. Yost,  Z.-Q. You,  I. Y. Zhang,  X. Zhang,  
 Y. Zhao,  B. R. Brooks,  G. K. L. Chan,  D. M. Chipman,  C. J. Cramer,  
 W. A. Goddard III,  M. S. Gordon,  W. J. Hehre,  A. Klamt,  
 H. F. Schaefer III,  M. W. Schmidt,  C. D. Sherrill,  D. G. Truhlar,  
 A. Warshel,  X. Xu,  A. Aspuru-Guzik,  R. Baer,  A. T. Bell,  N. A. Besley,  
 J.-D. Chai,  A. Dreuw,  B. D. Dunietz,  T. R. Furlani,  S. R. Gwaltney,  
 C.-P. Hsu,  Y. Jung,  J. Kong,  D. S. Lambrecht,  W. Liang,  C. Ochsenfeld,  
 V. A. Rassolov,  L. V. Slipchenko,  J. E. Subotnik,  T. Van Voorhis,  
 J. M. Herbert,  A. I. Krylov,  P. M. W. Gill,  M. Head-Gordon

 Contributors to earlier versions of Q-Chem not listed above: 
 R. D. Adamson,  J. Baker,  E. F. C. Byrd,  A. K. Chakraborty,  C.-L. Cheng,  
 H. Dachsel,  R. J. Doerksen,  G. Hawkins,  A. Heyden,  S. Hirata,  
 G. Kedziora,  F. J. Keil,  C. Kelley,  P. P. Korambath,  W. Kurlancheek,  
 A. M. Lee,  M. S. Lee,  D. Liotard,  I. Lotan,  P. E. Maslen,  N. Nair,  
 D. Neuhauser,  R. Olson,  B. Peters,  J. Ritchie,  N. E. Schultz,  
 N. Shenvi,  A. C. Simmonett,  K. S. Thanthiriwatte,  Q. Wu,  W. Zhang

 Please cite Q-Chem as follows:
 Y. Shao et al., Mol. Phys. 113, 184-215 (2015)
 DOI: 10.1080/00268976.2014.952696

 Q-Chem 4.4.1 for Intel X86 EM64T Linux

 Parts of Q-Chem use Armadillo 5.200.1 (Boston Tea Smuggler).
 http://arma.sourceforge.net/

 Q-Chem begins on Mon Mar  6 14:00:22 2017  

Host: nid01196
0

     Scratch files written to /dev/shm/eg_qchem/qchem29794//
 Parallel job on  1  processors

Checking the input file for inconsistencies... 	...done.

--------------------------------------------------------------
User input:
--------------------------------------------------------------
$molecule
 0  1
 S           1.80900300       -1.15938900        0.25896800
 C           3.16466000       -0.14246800        0.05606700
 C           2.78757500        1.14089100       -0.25226100
 C           1.39402000        1.28822000       -0.33563400
 C           0.70898100        0.11689900       -0.08798100
 H           0.89277600        2.20524100       -0.58940400
 C          -0.70898100       -0.11689900       -0.08798100
 S          -1.70653614        0.53793754        1.15113397
 C          -1.46794326       -0.83988267       -0.98457134
 C          -3.11953426       -0.13121518        0.46646325
 C          -2.83570222       -0.84900413       -0.66865259
 H          -3.58836635       -1.35047338       -1.24846962
 H           4.15569300       -0.53353100        0.17259300
 H           3.49202900        1.93475000       -0.41867900
 H          -4.07331480        0.03391530        0.92656063
 H          -1.03873816       -1.31999477       -1.84587711
$end


$rem
         jobtype = opt
        exchange = hf
           basis = cc-pvtz
  max_scf_cycles = 100
      mem_static = 6200
       mem_total = 62000
          method = mp2
$end


$opt
CONSTRAINT
tors 4 5 7 9 110.0
ENDCONSTRAINT
$end

--------------------------------------------------------------
 Atom  11: ( -2.8436115393, -0.9232828634, -0.5979143907)
         ->( -2.8436115358, -0.9232828602, -0.5979143932)
 Atom   9: ( -1.4639795793, -1.0686240635, -0.8127259842)
         ->( -1.4639795760, -1.0686240578, -0.8127259877)
 Atom  16: ( -1.0193529807, -1.8425822183, -1.4126161728)
         ->( -1.0193529800, -1.8425822104, -1.4126161803)
 Atom  14: (  3.5921476385,  1.5810712185, -0.9993750752)
         ->(  3.5921476378,  1.5810712237, -0.9993750638)
 Atom  15: ( -4.1091163100,  0.5166440868,  0.4888445010)
         ->( -4.1091163120,  0.5166440786,  0.4888444988)
 ----------------------------------------------------------------
             Standard Nuclear Orientation (Angstroms)
    I     Atom           X                Y                Z
 ----------------------------------------------------------------
    1      S       1.7336506655    -1.0017128369     0.6561289716
    2      C       3.1443122668    -0.1679662928     0.1786317626
    3      C       2.8436115358     0.9232828602    -0.5979143932
    4      C       1.4639795760     1.0686240578    -0.8127259877
    5      C       0.7130248484     0.0889662794    -0.1971441821
    6      H       1.0193529800     1.8425822104    -1.4126161803
    7      C      -0.7130248502    -0.0889662784    -0.1971441814
    8      S      -1.7336506630     1.0017128401     0.6561289701
    9      C      -1.4639795760    -1.0686240578    -0.8127259877
   10      C      -3.1443122651     0.1679662932     0.1786317608
   11      C      -2.8436115358    -0.9232828602    -0.5979143932
   12      H      -3.5921476378    -1.5810712237    -0.9993750638
   13      H       4.1091163120    -0.5166440786     0.4888444988
   14      H       3.5921476378     1.5810712237    -0.9993750638
   15      H      -4.1091163120     0.5166440786     0.4888444988
   16      H      -1.0193529800    -1.8425822104    -1.4126161803
 ----------------------------------------------------------------
 Molecular Point Group                 C2    NOp =  2
 Largest Abelian Subgroup              C2    NOp =  2
 Nuclear Repulsion Energy =   635.8889561626 hartrees
 There are       43 alpha and       43 beta electrons
 Requested basis set is cc-pVTZ
 There are 140 shells and 392 basis functions

 Total QAlloc Memory Limit  62000 MB
 Mega-Array Size      6061 MB
 MEM_STATIC part      6200 MB
 A cutoff of  1.0D-11 yielded   8052 shell pairs
 There are     62660 function pairs (     81672 Cartesian)
 
 -------------------------------------------------------
 OpenMP Integral Computing Module                       
 Release: version 1.0, May 2013, Q-Chem Inc. Pittsburgh 
 -------------------------------------------------------
 Integral Job Info:
 Integral job number is                      11
 Integral operator is                         1
 short-range coefficients                     0
 long-range coefficients              100000000
 Omega coefficients                           0
 if combine SR and LR in K                    0
 Integral screening is                        0
 Integral computing path is                   2
 max size of driver memory is            800000
 size of driver memory is                776718
 size of scratch memory is             26248924
 max col of scratch BK array              10000
 max len of scratch array in speh3          662
 max len of scratch index in speh4           32
 max int batch size is                      520
 min int batch size is                       52
 fixed nKL is                                52
 max L of basis functions is                  3
 order of int derivative is                   0
 number of shells is                        140
 number of basis is                         448
 number of cartesian basis is               448
 number of contracted shell pairs          8052
 number of primitive shell pairs          28590
 maxK2 (contraction) of shell pair          121
 max number of K2 of shell pair               1
 max number of CS2 of shell pair           1070
 max number of PS2 of shell pair           3066
 mem total for path MDJ                  225820
 -------------------------------------------------------
 Smallest overlap matrix eigenvalue = 9.39E-05

 Scale SEOQF with 1.000000e-01/1.000000e-01/1.000000e+00

 Standard Electronic Orientation quadrupole field applied
 Nucleus-field energy     =    -0.0000000163 hartrees
 Guess from superposition of atomic densities
 Warning:  Energy on first SCF cycle will be non-variational
 A restricted Hartree-Fock SCF calculation will be
 performed using Pulay DIIS extrapolation
 SCF converges when DIIS error is below 1.0E-08
 using 16 threads for integral computing 
 ---------------------------------------
  Cycle       Energy         DIIS Error
 ---------------------------------------
    1   -1106.0605028414      2.98E-02
    2   -1092.1827601105      1.84E-02
    3   -1101.0891378041      4.75E-03
    4   -1101.4549550104      2.61E-03
    5   -1101.5858107257      6.63E-04
    6   -1101.5948524371      2.59E-04
    7   -1101.5964635524      4.88E-05
    8   -1101.5966420769      2.41E-05
    9   -1101.5966911827      1.12E-05
   10   -1101.5967042284      3.93E-06
   11   -1101.5967057683      1.12E-06
   12   -1101.5967058472      5.37E-07
   13   -1101.5967058623      2.13E-07
   14   -1101.5967058668      8.87E-08
   15   -1101.5967058669      2.63E-08
   16   -1101.5967058646      7.24E-09 Convergence criterion met
 ---------------------------------------
 SCF time:  CPU 646.79 s  wall 40.47 s
 SCF   energy in the final basis set = -1101.5967058646
 Total energy in the final basis set = -1101.5967058646
 
 Components of the MP2 correlation energy:
        aaaa  correlation energy =        -0.2321739060 au
        abab  correlation energy =        -1.3505407848 au
        bbbb  correlation energy =        -0.2321739060 au
        non-Brillouin singles    =        -0.0000000000 au

 Total  MP2   correlation energy =        -1.8148885967 au
        MP2         total energy =     -1103.4115944613 au

  Entering Z-vector solver.
   1         0           1      0.000265    0.000265
   2         0           1      0.000117    0.000117
   3         0           1      0.000049    0.000049
   4         0           1      0.000024    0.000024
   5         0           1      0.000007    0.000007
   6         0           1      0.000002    0.000002
   7         1           0      0.000000    0.000000    Roots Converged
 
 --------------------------------------------------------------
             Orbital Energies (a.u.) and Symmetries
 --------------------------------------------------------------
 Warning : Irrep of orbital(   1) could not be determined
 Warning : Irrep of orbital(   2) could not be determined
 
 Alpha MOs, Restricted
 -- Occupied --                  
-91.984 -91.984 -11.272 -11.271 -11.261 -11.261 -11.238 -11.238
  0 xxx   0 xxx   1 A     1 B     2 B     2 A     3 A     3 B                  
-11.236 -11.236  -8.985  -8.985  -6.666  -6.666  -6.666  -6.666
  4 B     4 A     5 B     5 A     6 B     6 A     7 A     7 B                  
 -6.665  -6.665  -1.195  -1.166  -1.034  -0.993  -0.988  -0.948
  8 B     8 A     9 A     9 B    10 A    10 B    11 A    11 B                  
 -0.808  -0.769  -0.756  -0.718  -0.704  -0.645  -0.571  -0.569
 12 A    12 B    13 A    13 B    14 A    14 B    15 A    15 B                  
 -0.563  -0.556  -0.540  -0.512  -0.511  -0.478  -0.473  -0.354
 16 A    16 B    17 A    17 B    18 A    18 B    19 A    20 A                  
 -0.345  -0.340  -0.306
 19 B    21 A    20 B                                                          
 -- Virtual --                   
  0.097   0.122   0.150   0.153   0.163   0.171   0.184   0.185
 22 A    21 B    22 B    23 A    24 A    23 B    25 A    24 B                  
  0.191   0.201   0.208   0.231   0.240   0.251   0.318   0.323
 26 A    25 B    27 A    26 B    27 B    28 A    28 B    29 A                  
  0.348   0.353   0.366   0.377   0.391   0.403   0.422   0.429
 29 B    30 A    30 B    31 A    32 A    31 B    32 B    33 A                  
  0.440   0.450   0.454   0.462   0.467   0.488   0.497   0.501
 34 A    33 B    35 A    34 B    36 A    35 B    37 A    36 B                  
  0.509   0.521   0.539   0.540   0.548   0.556   0.567   0.572
 37 B    38 A    38 B    39 B    39 A    40 A    40 B    41 A                  
  0.575   0.581   0.601   0.601   0.608   0.609   0.622   0.623
 41 B    42 A    43 A    42 B    44 A    43 B    44 B    45 A                  
  0.641   0.646   0.658   0.669   0.677   0.681   0.704   0.715
 45 B    46 A    46 B    47 B    47 A    48 A    49 A    48 B                  
  0.756   0.757   0.782   0.786   0.808   0.827   0.842   0.845
 49 B    50 A    50 B    51 A    51 B    52 A    52 B    53 B                  
  0.863   0.868   0.878   0.898   0.906   0.919   0.926   0.939
 53 A    54 B    54 A    55 B    55 A    56 A    56 B    57 A                  
  0.972   0.996   1.005   1.013   1.024   1.029   1.067   1.088
 58 A    57 B    59 A    58 B    60 A    59 B    60 B    61 A                  
  1.099   1.106   1.106   1.120   1.129   1.153   1.171   1.181
 61 B    62 B    62 A    63 A    64 A    63 B    65 A    64 B                  
  1.190   1.194   1.217   1.227   1.244   1.246   1.288   1.293
 66 A    65 B    67 A    66 B    67 B    68 A    68 B    69 A                  
  1.303   1.313   1.343   1.345   1.378   1.381   1.405   1.438
 69 B    70 A    70 B    71 A    72 A    71 B    72 B    73 A                  
  1.448   1.458   1.485   1.493   1.494   1.510   1.518   1.538
 73 B    74 B    74 A    75 A    75 B    76 B    76 A    77 B                  
  1.550   1.557   1.560   1.592   1.592   1.621   1.633   1.644
 77 A    78 B    78 A    79 B    79 A    80 A    80 B    81 A                  
  1.677   1.710   1.711   1.744   1.749   1.750   1.775   1.828
 81 B    82 A    82 B    83 B    83 A    84 B    84 A    85 A                  
  1.833   1.860   1.862   1.894   1.906   1.911   1.921   1.942
 85 B    86 A    86 B    87 B    87 A    88 B    88 A    89 B                  
  1.956   2.012   2.047   2.065   2.071   2.121   2.126   2.147
 89 A    90 B    90 A    91 B    91 A    92 A    92 B    93 A                  
  2.170   2.192   2.206   2.209   2.223   2.238   2.254   2.264
 94 A    93 B    94 B    95 B    95 A    96 A    96 B    97 A                  
  2.287   2.310   2.334   2.401   2.406   2.423   2.453   2.473
 97 B    98 B    98 A    99 A    99 B   100 A   101 A   100 B                  
  2.489   2.502   2.524   2.528   2.545   2.563   2.565   2.595
102 A   101 B   102 B   103 B   103 A   104 B   104 A   105 A                  
  2.624   2.663   2.676   2.689   2.712   2.719   2.748   2.764
105 B   106 B   106 A   107 A   107 B   108 B   108 A   109 B                  
  2.768   2.773   2.782   2.796   2.797   2.864   2.895   2.903
110 B   109 A   110 A   111 A   111 B   112 A   113 A   112 B                  
  2.916   2.928   2.934   2.984   2.996   3.014   3.017   3.028
113 B   114 B   114 A   115 A   116 A   115 B   117 A   116 B                  
  3.048   3.060   3.068   3.133   3.161   3.161   3.165   3.188
118 A   117 B   118 B   119 A   119 B   120 A   120 B   121 A                  
  3.212   3.213   3.244   3.248   3.263   3.274   3.278   3.287
122 A   121 B   123 A   122 B   124 A   125 A   123 B   124 B                  
  3.290   3.298   3.332   3.343   3.359   3.360   3.369   3.404
126 A   125 B   127 A   126 B   128 A   127 B   128 B   129 B                  
  3.406   3.429   3.431   3.450   3.455   3.459   3.473   3.479
129 A   130 A   130 B   131 A   132 A   131 B   133 A   132 B                  
  3.483   3.493   3.510   3.510   3.516   3.524   3.532   3.545
134 A   133 B   134 B   135 A   136 A   135 B   136 B   137 B                  
  3.554   3.568   3.581   3.593   3.605   3.618   3.640   3.658
137 A   138 A   139 A   138 B   140 A   139 B   141 A   140 B                  
  3.694   3.702   3.731   3.735   3.746   3.755   3.787   3.792
142 A   141 B   143 A   142 B   144 A   143 B   145 A   144 B                  
  3.812   3.852   3.869   3.881   3.888   3.916   3.916   3.925
146 A   145 B   146 B   147 A   147 B   148 B   148 A   149 A                  
  3.968   3.973   4.006   4.007   4.023   4.025   4.037   4.060
149 B   150 A   151 A   150 B   151 B   152 A   153 A   152 B                  
  4.069   4.113   4.121   4.143   4.163   4.165   4.178   4.190
153 B   154 B   154 A   155 A   155 B   156 A   156 B   157 A                  
  4.206   4.215   4.227   4.259   4.274   4.288   4.329   4.330
157 B   158 A   159 A   158 B   160 A   159 B   160 B   161 A                  
  4.341   4.375   4.392   4.404   4.440   4.467   4.521   4.533
161 B   162 A   163 A   162 B   163 B   164 A   164 B   165 A                  
  4.551   4.556   4.586   4.608   4.660   4.662   4.694   4.702
165 B   166 A   166 B   167 A   167 B   168 A   169 A   168 B                  
  4.718   4.746   4.761   4.764   4.787   4.825   4.851   4.895
169 B   170 A   170 B   171 B   171 A   172 A   172 B   173 B                  
  4.900   4.940   4.983   5.009   5.055   5.069   5.070   5.072
173 A   174 A   174 B   175 A   175 B   176 A   176 B   177 A                  
  5.091   5.101   5.186   5.243   5.244   5.299   5.308   5.381
177 B   178 A   178 B   179 B   179 A   180 B   180 A   181 A                  
  5.389   5.422   5.427   5.508   5.566   5.601   5.652   5.671
181 B   182 A   182 B   183 A   183 B   184 A   185 A   184 B                  
  5.791   5.900   5.948   6.028   6.089   6.131   6.181   6.202
185 B   186 A   186 B   187 A   187 B   188 A   188 B   189 A                  
  6.208   6.542   6.565   6.720   6.746   9.521  10.735  11.880
189 B   190 A   190 B   191 A   191 B   192 A   192 B   193 A                  
 12.254  13.499  13.600  14.604  14.630
193 B   194 A   194 B   195 A   195 B                                          
 
 Beta MOs, Restricted
 -- Occupied --                  
-91.984 -91.984 -11.272 -11.271 -11.261 -11.261 -11.238 -11.238
  0 xxx   0 xxx   1 A     1 B     2 B     2 A     3 A     3 B                  
-11.236 -11.236  -8.985  -8.985  -6.666  -6.666  -6.666  -6.666
  4 B     4 A     5 B     5 A     6 B     6 A     7 A     7 B                  
 -6.665  -6.665  -1.195  -1.166  -1.034  -0.993  -0.988  -0.948
  8 B     8 A     9 A     9 B    10 A    10 B    11 A    11 B                  
 -0.808  -0.769  -0.756  -0.718  -0.704  -0.645  -0.571  -0.569
 12 A    12 B    13 A    13 B    14 A    14 B    15 A    15 B                  
 -0.563  -0.556  -0.540  -0.512  -0.511  -0.478  -0.473  -0.354
 16 A    16 B    17 A    17 B    18 A    18 B    19 A    20 A                  
 -0.345  -0.340  -0.306
 19 B    21 A    20 B                                                          
 -- Virtual --                   
  0.097   0.122   0.150   0.153   0.163   0.171   0.184   0.185
 22 A    21 B    22 B    23 A    24 A    23 B    25 A    24 B                  
  0.191   0.201   0.208   0.231   0.240   0.251   0.318   0.323
 26 A    25 B    27 A    26 B    27 B    28 A    28 B    29 A                  
  0.348   0.353   0.366   0.377   0.391   0.403   0.422   0.429
 29 B    30 A    30 B    31 A    32 A    31 B    32 B    33 A                  
  0.440   0.450   0.454   0.462   0.467   0.488   0.497   0.501
 34 A    33 B    35 A    34 B    36 A    35 B    37 A    36 B                  
  0.509   0.521   0.539   0.540   0.548   0.556   0.567   0.572
 37 B    38 A    38 B    39 B    39 A    40 A    40 B    41 A                  
  0.575   0.581   0.601   0.601   0.608   0.609   0.622   0.623
 41 B    42 A    43 A    42 B    44 A    43 B    44 B    45 A                  
  0.641   0.646   0.658   0.669   0.677   0.681   0.704   0.715
 45 B    46 A    46 B    47 B    47 A    48 A    49 A    48 B                  
  0.756   0.757   0.782   0.786   0.808   0.827   0.842   0.845
 49 B    50 A    50 B    51 A    51 B    52 A    52 B    53 B                  
  0.863   0.868   0.878   0.898   0.906   0.919   0.926   0.939
 53 A    54 B    54 A    55 B    55 A    56 A    56 B    57 A                  
  0.972   0.996   1.005   1.013   1.024   1.029   1.067   1.088
 58 A    57 B    59 A    58 B    60 A    59 B    60 B    61 A                  
  1.099   1.106   1.106   1.120   1.129   1.153   1.171   1.181
 61 B    62 B    62 A    63 A    64 A    63 B    65 A    64 B                  
  1.190   1.194   1.217   1.227   1.244   1.246   1.288   1.293
 66 A    65 B    67 A    66 B    67 B    68 A    68 B    69 A                  
  1.303   1.313   1.343   1.345   1.378   1.381   1.405   1.438
 69 B    70 A    70 B    71 A    72 A    71 B    72 B    73 A                  
  1.448   1.458   1.485   1.493   1.494   1.510   1.518   1.538
 73 B    74 B    74 A    75 A    75 B    76 B    76 A    77 B                  
  1.550   1.557   1.560   1.592   1.592   1.621   1.633   1.644
 77 A    78 B    78 A    79 B    79 A    80 A    80 B    81 A                  
  1.677   1.710   1.711   1.744   1.749   1.750   1.775   1.828
 81 B    82 A    82 B    83 B    83 A    84 B    84 A    85 A                  
  1.833   1.860   1.862   1.894   1.906   1.911   1.921   1.942
 85 B    86 A    86 B    87 B    87 A    88 B    88 A    89 B                  
  1.956   2.012   2.047   2.065   2.071   2.121   2.126   2.147
 89 A    90 B    90 A    91 B    91 A    92 A    92 B    93 A                  
  2.170   2.192   2.206   2.209   2.223   2.238   2.254   2.264
 94 A    93 B    94 B    95 B    95 A    96 A    96 B    97 A                  
  2.287   2.310   2.334   2.401   2.406   2.423   2.453   2.473
 97 B    98 B    98 A    99 A    99 B   100 A   101 A   100 B                  
  2.489   2.502   2.524   2.528   2.545   2.563   2.565   2.595
102 A   101 B   102 B   103 B   103 A   104 B   104 A   105 A                  
  2.624   2.663   2.676   2.689   2.712   2.719   2.748   2.764
105 B   106 B   106 A   107 A   107 B   108 B   108 A   109 B                  
  2.768   2.773   2.782   2.796   2.797   2.864   2.895   2.903
110 B   109 A   110 A   111 A   111 B   112 A   113 A   112 B                  
  2.916   2.928   2.934   2.984   2.996   3.014   3.017   3.028
113 B   114 B   114 A   115 A   116 A   115 B   117 A   116 B                  
  3.048   3.060   3.068   3.133   3.161   3.161   3.165   3.188
118 A   117 B   118 B   119 A   119 B   120 A   120 B   121 A                  
  3.212   3.213   3.244   3.248   3.263   3.274   3.278   3.287
122 A   121 B   123 A   122 B   124 A   125 A   123 B   124 B                  
  3.290   3.298   3.332   3.343   3.359   3.360   3.369   3.404
126 A   125 B   127 A   126 B   128 A   127 B   128 B   129 B                  
  3.406   3.429   3.431   3.450   3.455   3.459   3.473   3.479
129 A   130 A   130 B   131 A   132 A   131 B   133 A   132 B                  
  3.483   3.493   3.510   3.510   3.516   3.524   3.532   3.545
134 A   133 B   134 B   135 A   136 A   135 B   136 B   137 B                  
  3.554   3.568   3.581   3.593   3.605   3.618   3.640   3.658
137 A   138 A   139 A   138 B   140 A   139 B   141 A   140 B                  
  3.694   3.702   3.731   3.735   3.746   3.755   3.787   3.792
142 A   141 B   143 A   142 B   144 A   143 B   145 A   144 B                  
  3.812   3.852   3.869   3.881   3.888   3.916   3.916   3.925
146 A   145 B   146 B   147 A   147 B   148 B   148 A   149 A                  
  3.968   3.973   4.006   4.007   4.023   4.025   4.037   4.060
149 B   150 A   151 A   150 B   151 B   152 A   153 A   152 B                  
  4.069   4.113   4.121   4.143   4.163   4.165   4.178   4.190
153 B   154 B   154 A   155 A   155 B   156 A   156 B   157 A                  
  4.206   4.215   4.227   4.259   4.274   4.288   4.329   4.330
157 B   158 A   159 A   158 B   160 A   159 B   160 B   161 A                  
  4.341   4.375   4.392   4.404   4.440   4.467   4.521   4.533
161 B   162 A   163 A   162 B   163 B   164 A   164 B   165 A                  
  4.551   4.556   4.586   4.608   4.660   4.662   4.694   4.702
165 B   166 A   166 B   167 A   167 B   168 A   169 A   168 B                  
  4.718   4.746   4.761   4.764   4.787   4.825   4.851   4.895
169 B   170 A   170 B   171 B   171 A   172 A   172 B   173 B                  
  4.900   4.940   4.983   5.009   5.055   5.069   5.070   5.072
173 A   174 A   174 B   175 A   175 B   176 A   176 B   177 A                  
  5.091   5.101   5.186   5.243   5.244   5.299   5.308   5.381
177 B   178 A   178 B   179 B   179 A   180 B   180 A   181 A                  
  5.389   5.422   5.427   5.508   5.566   5.601   5.652   5.671
181 B   182 A   182 B   183 A   183 B   184 A   185 A   184 B                  
  5.791   5.900   5.948   6.028   6.089   6.131   6.181   6.202
185 B   186 A   186 B   187 A   187 B   188 A   188 B   189 A                  
  6.208   6.542   6.565   6.720   6.746   9.521  10.735  11.880
189 B   190 A   190 B   191 A   191 B   192 A   192 B   193 A                  
 12.254  13.499  13.600  14.604  14.630
193 B   194 A   194 B   195 A   195 B                                          
 --------------------------------------------------------------
 
          Ground-State Mulliken Net Atomic Charges

     Atom                 Charge (a.u.)
  ----------------------------------------
      1 S                     0.128551
      2 C                    -0.239317
      3 C                    -0.190403
      4 C                    -0.200803
      5 C                    -0.032451
      6 H                     0.176176
      7 C                    -0.032450
      8 S                     0.128551
      9 C                    -0.200802
     10 C                    -0.239318
     11 C                    -0.190402
     12 H                     0.174440
     13 H                     0.183806
     14 H                     0.174440
     15 H                     0.183805
     16 H                     0.176176
  ----------------------------------------
  Sum of atomic charges =    -0.000000

 -----------------------------------------------------------------
                    Cartesian Multipole Moments
 -----------------------------------------------------------------
    Charge (ESU x 10^10)
                 0.0000
    Dipole Moment (Debye)
         X       0.0000      Y      -0.0000      Z      -0.4445
       Tot       0.4445
    Quadrupole Moments (Debye-Ang)
        XX     -61.3920     XY       0.9235     YY     -71.1614
        XZ      -0.0000     YZ      -0.0000     ZZ     -74.3628
    Octopole Moments (Debye-Ang^2)
       XXX      -0.0000    XXY       0.0000    XYY      -0.0000
       YYY      -0.0000    XXZ       5.6306    XYZ     -11.9506
       YYZ      -5.5035    XZZ       0.0000    YZZ      -0.0000
       ZZZ       3.2367
    Hexadecapole Moments (Debye-Ang^3)
      XXXX   -1833.0826   XXXY     -11.6876   XXYY    -404.0079
      XYYY       1.9818   YYYY    -421.7065   XXXZ      -0.0000
      XXYZ       0.0000   XYYZ      -0.0000   YYYZ      -0.0000
      XXZZ    -404.6063   XYZZ       1.7042   YYZZ    -102.9380
      XZZZ      -0.0000   YZZZ       0.0000   ZZZZ    -260.4661
 -----------------------------------------------------------------
 DrvMan is completing analytic gradient of the MP2 energy
 MP2 relaxed dipole moment
            1
    1   0.0000000
    2  -0.0000000
    3  -0.1748929
	Magnitude:	 0.175 au	 0.445 Debye
 MP2 energy read as -1103.411594
 Full Analytical Gradient of MP2 Energy (in au.)
             1             2             3             4             5
    1   -0.00104406    0.00087202   -0.00015780    0.00068297   -0.00711859
    2   -0.00057779    0.00129532   -0.00015508    0.00028998   -0.00081595
    3    0.00169486   -0.00145546    0.00051422   -0.00036624    0.00031097
             6             7             8             9            10
    1    0.00040332    0.00711858    0.00104406   -0.00068297   -0.00087202
    2   -0.00004297    0.00081595    0.00057779   -0.00028998   -0.00129532
    3   -0.00077570    0.00031097    0.00169485   -0.00036624   -0.00145546
            11            12            13            14            15
    1    0.00015780    0.00005087   -0.00024652   -0.00005087    0.00024652
    2    0.00015508   -0.00006204   -0.00023913    0.00006204    0.00023914
    3    0.00051422    0.00006497    0.00001239    0.00006497    0.00001239
            16
    1   -0.00040332
    2    0.00004297
    3   -0.00077570
 Gradient time:  CPU 1.55 s  wall 0.10 s
 Geometry Optimization Parameters
   NAtoms,    NIC,     NZ,  NCons,   NDum,   NFix, NCnnct, MaxDiis
       16     111       0       1       0       0       0       0


** CONSTRAINED OPTIMIZATION IN DELOCALIZED INTERNAL COORDINATES **
   Searching for a Minimum

   Optimization Cycle:   1

                       Coordinates (Angstroms)
     ATOM                X               Y               Z
      1  S         1.7336506643   -1.0017128385    0.6561289708
      2  C         3.1443122659   -0.1679662930    0.1786317617
      3  C         2.8436115358    0.9232828602   -0.5979143932
      4  C         1.4639795760    1.0686240578   -0.8127259877
      5  C         0.7130248493    0.0889662789   -0.1971441817
      6  H         1.0193529800    1.8425822104   -1.4126161803
      7  C        -0.7130248493   -0.0889662789   -0.1971441817
      8  S        -1.7336506643    1.0017128385    0.6561289708
      9  C        -1.4639795760   -1.0686240578   -0.8127259877
     10  C        -3.1443122659    0.1679662930    0.1786317617
     11  C        -2.8436115358   -0.9232828602   -0.5979143932
     12  H        -3.5921476378   -1.5810712237   -0.9993750638
     13  H         4.1091163120   -0.5166440786    0.4888444988
     14  H         3.5921476378    1.5810712237   -0.9993750638
     15  H        -4.1091163120    0.5166440786    0.4888444988
     16  H        -1.0193529800   -1.8425822104   -1.4126161803
   Point Group: c2    Number of degrees of freedom:    22


   Energy is  -1103.411594461

              Constraints and their Current Values
                                        Value     Constraint
   Dihedral:        4   5   7   9      110.000      110.000

 Attempting to Generate Delocalized Internal Coordinates

 21 Hessian modes will be used to form the next step
  Hessian Eigenvalues:
     0.045000    0.045000    0.045000    0.045002    0.045003    0.045012
     0.159945    0.159993    0.160000    0.221308    0.238060    0.249999
     0.326324    0.340049    0.365509    0.366895    0.370094    0.399848
     0.435412    0.463135    0.495504

 Minimum Search - Taking Simple RFO Step
 Searching for Lamda that Minimizes Along All modes
 Value Taken    Lamda =  -0.00023304
 Step Taken.  Stepsize is  0.048410

                             Maximum     Tolerance    Cnvgd?
         Gradient           0.003413      0.000300      NO
         Displacement       0.031244      0.001200      NO
         Energy change     *********      0.000001      NO


 New Cartesian Coordinates Obtained by Inverse Iteration

 Displacement from previous Coordinates is:  0.082676
 ----------------------------------------------------------------
             Standard Nuclear Orientation (Angstroms)
    I     Atom           X                Y                Z
 ----------------------------------------------------------------
    1      S       1.7427690673    -1.0082564316     0.6461239726
    2      C       3.1505602903    -0.1710203306     0.1730762984
    3      C       2.8462137540     0.9230483046    -0.5993743617
    4      C       1.4650325100     1.0700480197    -0.8065236227
    5      C       0.7173208168     0.0899503402    -0.1907268793
    6      H       1.0144731695     1.8482052604    -1.3958543512
    7      C      -0.7173208168    -0.0899503402    -0.1907268793
    8      S      -1.7427690673     1.0082564316     0.6461239726
    9      C      -1.4650325100    -1.0700480197    -0.8065236227
   10      C      -3.1505602903     0.1710203306     0.1730762984
   11      C      -2.8462137540    -0.9230483046    -0.5993743617
   12      H      -3.5931049254    -1.5828320850    -1.0007100368
   13      H       4.1174395268    -0.5193894638     0.4778184056
   14      H       3.5931049254     1.5828320850    -1.0007100368
   15      H      -4.1174395268     0.5193894638     0.4778184056
   16      H      -1.0144731695    -1.8482052604    -1.3958543512
 ----------------------------------------------------------------
 Molecular Point Group                 C2    NOp =  2
 Largest Abelian Subgroup              C2    NOp =  2
 Nuclear Repulsion Energy =   635.4023766337 hartrees
 There are       43 alpha and       43 beta electrons
 Applying Cartesian multipole field
    Component          Value
    ---------          -----
     (2,0,0)        1.00000E-11
     (0,2,0)        2.00000E-11
     (0,0,2)       -3.00000E-10
 Nucleus-field energy     =    -0.0000000155 hartrees
 Requested basis set is cc-pVTZ
 There are 140 shells and 392 basis functions
 A cutoff of  1.0D-11 yielded   8045 shell pairs
 There are     62549 function pairs (     81527 Cartesian)
 Smallest overlap matrix eigenvalue = 9.49E-05
 Guess MOs from SCF MO coefficient file
 Reading MOs from coefficient file
 Reading MOs from coefficient file
 A restricted Hartree-Fock SCF calculation will be
 performed using Pulay DIIS extrapolation
 SCF converges when DIIS error is below 1.0E-08
 Geometry optimization detected.  Setting ReadMinima to 0
 Setting SaveMinima to 0
 using 16 threads for integral computing 
 ---------------------------------------
  Cycle       Energy         DIIS Error
 ---------------------------------------
    1   -1101.5977391875      2.08E-04
    2   -1101.5972323394      2.34E-05
    3   -1101.5972541297      1.02E-05
    4   -1101.5972575875      5.14E-06
    5   -1101.5972586113      1.89E-06
    6   -1101.5972587296      5.76E-07
    7   -1101.5972587458      2.30E-07
    8   -1101.5972587476      7.72E-08
    9   -1101.5972587480      2.57E-08
   10   -1101.5972587472      7.66E-09 Convergence criterion met
 ---------------------------------------
 SCF time:  CPU 656.83 s  wall 41.09 s
 SCF   energy in the final basis set = -1101.5972587472
 Total energy in the final basis set = -1101.5972587472
 
 Components of the MP2 correlation energy:
        aaaa  correlation energy =        -0.2320972464 au
        abab  correlation energy =        -1.3503042211 au
        bbbb  correlation energy =        -0.2320972464 au
        non-Brillouin singles    =        -0.0000000000 au

 Total  MP2   correlation energy =        -1.8144987139 au
        MP2         total energy =     -1103.4117574611 au

  Entering Z-vector solver.
   1         0           1      0.000264    0.000264
   2         0           1      0.000116    0.000116
   3         0           1      0.000048    0.000048
   4         0           1      0.000024    0.000024
   5         0           1      0.000007    0.000007
   6         0           1      0.000002    0.000002
   7         1           0      0.000000    0.000000    Roots Converged
 
 --------------------------------------------------------------
             Orbital Energies (a.u.) and Symmetries
 --------------------------------------------------------------
 
 Alpha MOs, Restricted
 -- Occupied --                  
-91.984 -91.984 -11.272 -11.271 -11.261 -11.261 -11.238 -11.238
  1 B     1 A     2 A     2 B     3 B     3 A     4 A     4 B                  
-11.236 -11.236  -8.986  -8.986  -6.666  -6.666  -6.666  -6.666
  5 B     5 A     6 B     6 A     7 B     7 A     8 A     8 B                  
 -6.665  -6.665  -1.195  -1.166  -1.033  -0.994  -0.988  -0.948
  9 B     9 A    10 A    10 B    11 A    11 B    12 A    12 B                  
 -0.806  -0.770  -0.756  -0.718  -0.704  -0.645  -0.571  -0.569
 13 A    13 B    14 A    14 B    15 A    15 B    16 A    16 B                  
 -0.563  -0.555  -0.539  -0.513  -0.511  -0.478  -0.473  -0.354
 17 A    17 B    18 A    18 B    19 A    19 B    20 A    21 A                  
 -0.345  -0.341  -0.306
 20 B    22 A    21 B                                                          
 -- Virtual --                   
  0.097   0.122   0.150   0.154   0.163   0.171   0.184   0.185
 23 A    22 B    23 B    24 A    25 A    24 B    26 A    25 B                  
  0.191   0.201   0.208   0.232   0.239   0.251   0.318   0.323
 27 A    26 B    28 A    27 B    28 B    29 A    29 B    30 A                  
  0.347   0.353   0.366   0.377   0.391   0.403   0.422   0.429
 30 B    31 A    31 B    32 A    33 A    32 B    33 B    34 A                  
  0.440   0.450   0.454   0.462   0.468   0.490   0.498   0.502
 35 A    34 B    36 A    35 B    37 A    36 B    38 A    37 B                  
  0.508   0.522   0.538   0.540   0.548   0.556   0.566   0.571
 38 B    39 A    39 B    40 B    40 A    41 A    41 B    42 A                  
  0.574   0.581   0.600   0.602   0.608   0.608   0.621   0.623
 42 B    43 A    44 A    43 B    45 A    44 B    45 B    46 A                  
  0.640   0.645   0.658   0.669   0.677   0.681   0.703   0.714
 46 B    47 A    47 B    48 B    48 A    49 A    50 A    49 B                  
  0.756   0.757   0.782   0.786   0.808   0.829   0.841   0.845
 50 B    51 A    51 B    52 A    52 B    53 A    53 B    54 B                  
  0.863   0.867   0.878   0.898   0.905   0.918   0.926   0.939
 54 A    55 B    55 A    56 B    56 A    57 A    57 B    58 A                  
  0.970   0.996   1.005   1.013   1.023   1.029   1.067   1.090
 59 A    58 B    60 A    59 B    61 A    60 B    61 B    62 A                  
  1.100   1.105   1.106   1.118   1.129   1.152   1.171   1.181
 62 B    63 B    63 A    64 A    65 A    64 B    66 A    65 B                  
  1.189   1.194   1.218   1.227   1.243   1.246   1.287   1.293
 67 A    66 B    68 A    67 B    68 B    69 A    69 B    70 A                  
  1.302   1.312   1.344   1.345   1.377   1.380   1.405   1.438
 70 B    71 A    71 B    72 A    73 A    72 B    73 B    74 A                  
  1.447   1.458   1.485   1.493   1.493   1.510   1.517   1.538
 74 B    75 B    75 A    76 A    76 B    77 B    77 A    78 B                  
  1.549   1.558   1.560   1.590   1.592   1.620   1.633   1.644
 78 A    79 B    79 A    80 A    80 B    81 A    81 B    82 A                  
  1.675   1.710   1.710   1.743   1.747   1.750   1.775   1.827
 82 B    83 B    83 A    84 B    85 B    84 A    85 A    86 A                  
  1.834   1.860   1.864   1.892   1.906   1.913   1.920   1.941
 86 B    87 A    87 B    88 B    88 A    89 B    89 A    90 B                  
  1.954   2.009   2.046   2.066   2.071   2.118   2.128   2.147
 90 A    91 B    91 A    92 B    92 A    93 A    93 B    94 A                  
  2.169   2.192   2.206   2.208   2.224   2.238   2.253   2.265
 95 A    94 B    95 B    96 B    96 A    97 A    97 B    98 A                  
  2.286   2.311   2.334   2.399   2.405   2.423   2.452   2.472
 98 B    99 B    99 A   100 A   100 B   101 A   102 A   101 B                  
  2.489   2.499   2.524   2.528   2.543   2.564   2.566   2.595
103 A   102 B   103 B   104 B   104 A   105 B   105 A   106 A                  
  2.624   2.663   2.676   2.691   2.708   2.719   2.750   2.764
106 B   107 B   107 A   108 A   108 B   109 B   109 A   110 B                  
  2.768   2.773   2.782   2.795   2.798   2.866   2.895   2.903
111 B   110 A   111 A   112 A   112 B   113 A   114 A   113 B                  
  2.913   2.927   2.933   2.983   2.994   3.015   3.017   3.028
114 B   115 B   115 A   116 A   117 A   116 B   118 A   117 B                  
  3.045   3.061   3.066   3.132   3.160   3.161   3.165   3.186
119 A   118 B   119 B   120 A   120 B   121 A   121 B   122 A                  
  3.210   3.214   3.244   3.249   3.263   3.273   3.279   3.288
123 A   122 B   124 A   123 B   125 A   126 A   124 B   125 B                  
  3.290   3.298   3.333   3.343   3.355   3.357   3.366   3.404
127 A   126 B   128 A   127 B   129 A   128 B   129 B   130 B                  
  3.405   3.430   3.431   3.450   3.455   3.459   3.472   3.479
130 A   131 A   131 B   132 A   133 A   132 B   134 A   133 B                  
  3.483   3.494   3.508   3.509   3.515   3.524   3.532   3.544
135 A   134 B   136 A   135 B   137 A   136 B   137 B   138 B                  
  3.553   3.567   3.580   3.592   3.603   3.618   3.638   3.658
138 A   139 A   140 A   139 B   141 A   140 B   142 A   141 B                  
  3.693   3.703   3.731   3.735   3.745   3.755   3.786   3.790
143 A   142 B   144 A   143 B   145 A   144 B   146 A   145 B                  
  3.812   3.852   3.868   3.884   3.888   3.913   3.914   3.923
147 A   146 B   147 B   148 A   148 B   149 B   149 A   150 A                  
  3.967   3.973   4.005   4.005   4.021   4.026   4.036   4.058
150 B   151 A   152 A   151 B   152 B   153 A   154 A   153 B                  
  4.068   4.112   4.119   4.142   4.161   4.166   4.179   4.188
154 B   155 B   155 A   156 A   156 B   157 A   157 B   158 A                  
  4.207   4.215   4.228   4.257   4.274   4.286   4.330   4.331
158 B   159 A   160 A   159 B   161 A   160 B   161 B   162 A                  
  4.340   4.373   4.390   4.403   4.438   4.466   4.521   4.531
162 B   163 A   164 A   163 B   164 B   165 A   165 B   166 A                  
  4.551   4.555   4.585   4.608   4.659   4.660   4.693   4.702
166 B   167 A   167 B   168 A   169 A   168 B   170 A   169 B                  
  4.715   4.745   4.760   4.765   4.786   4.823   4.848   4.893
170 B   171 A   171 B   172 B   172 A   173 A   173 B   174 B                  
  4.898   4.936   4.977   5.007   5.053   5.068   5.069   5.072
174 A   175 A   175 B   176 A   176 B   177 A   177 B   178 A                  
  5.090   5.098   5.186   5.241   5.243   5.296   5.306   5.380
178 B   179 A   179 B   180 B   180 A   181 B   181 A   182 A                  
  5.387   5.420   5.427   5.508   5.564   5.600   5.651   5.669
182 B   183 A   183 B   184 A   184 B   185 A   186 A   185 B                  
  5.791   5.896   5.945   6.028   6.087   6.131   6.180   6.202
186 B   187 A   187 B   188 A   188 B   189 A   189 B   190 A                  
  6.210   6.545   6.566   6.715   6.745   9.513  10.687  11.875
190 B   191 A   191 B   192 A   192 B   193 A   193 B   194 A                  
 12.184  13.502  13.578  14.604  14.619
194 B   195 A   195 B   196 A   196 B                                          
 
 Beta MOs, Restricted
 -- Occupied --                  
-91.984 -91.984 -11.272 -11.271 -11.261 -11.261 -11.238 -11.238
  1 B     1 A     2 A     2 B     3 B     3 A     4 A     4 B                  
-11.236 -11.236  -8.986  -8.986  -6.666  -6.666  -6.666  -6.666
  5 B     5 A     6 B     6 A     7 B     7 A     8 A     8 B                  
 -6.665  -6.665  -1.195  -1.166  -1.033  -0.994  -0.988  -0.948
  9 B     9 A    10 A    10 B    11 A    11 B    12 A    12 B                  
 -0.806  -0.770  -0.756  -0.718  -0.704  -0.645  -0.571  -0.569
 13 A    13 B    14 A    14 B    15 A    15 B    16 A    16 B                  
 -0.563  -0.555  -0.539  -0.513  -0.511  -0.478  -0.473  -0.354
 17 A    17 B    18 A    18 B    19 A    19 B    20 A    21 A                  
 -0.345  -0.341  -0.306
 20 B    22 A    21 B                                                          
 -- Virtual --                   
  0.097   0.122   0.150   0.154   0.163   0.171   0.184   0.185
 23 A    22 B    23 B    24 A    25 A    24 B    26 A    25 B                  
  0.191   0.201   0.208   0.232   0.239   0.251   0.318   0.323
 27 A    26 B    28 A    27 B    28 B    29 A    29 B    30 A                  
  0.347   0.353   0.366   0.377   0.391   0.403   0.422   0.429
 30 B    31 A    31 B    32 A    33 A    32 B    33 B    34 A                  
  0.440   0.450   0.454   0.462   0.468   0.490   0.498   0.502
 35 A    34 B    36 A    35 B    37 A    36 B    38 A    37 B                  
  0.508   0.522   0.538   0.540   0.548   0.556   0.566   0.571
 38 B    39 A    39 B    40 B    40 A    41 A    41 B    42 A                  
  0.574   0.581   0.600   0.602   0.608   0.608   0.621   0.623
 42 B    43 A    44 A    43 B    45 A    44 B    45 B    46 A                  
  0.640   0.645   0.658   0.669   0.677   0.681   0.703   0.714
 46 B    47 A    47 B    48 B    48 A    49 A    50 A    49 B                  
  0.756   0.757   0.782   0.786   0.808   0.829   0.841   0.845
 50 B    51 A    51 B    52 A    52 B    53 A    53 B    54 B                  
  0.863   0.867   0.878   0.898   0.905   0.918   0.926   0.939
 54 A    55 B    55 A    56 B    56 A    57 A    57 B    58 A                  
  0.970   0.996   1.005   1.013   1.023   1.029   1.067   1.090
 59 A    58 B    60 A    59 B    61 A    60 B    61 B    62 A                  
  1.100   1.105   1.106   1.118   1.129   1.152   1.171   1.181
 62 B    63 B    63 A    64 A    65 A    64 B    66 A    65 B                  
  1.189   1.194   1.218   1.227   1.243   1.246   1.287   1.293
 67 A    66 B    68 A    67 B    68 B    69 A    69 B    70 A                  
  1.302   1.312   1.344   1.345   1.377   1.380   1.405   1.438
 70 B    71 A    71 B    72 A    73 A    72 B    73 B    74 A                  
  1.447   1.458   1.485   1.493   1.493   1.510   1.517   1.538
 74 B    75 B    75 A    76 A    76 B    77 B    77 A    78 B                  
  1.549   1.558   1.560   1.590   1.592   1.620   1.633   1.644
 78 A    79 B    79 A    80 A    80 B    81 A    81 B    82 A                  
  1.675   1.710   1.710   1.743   1.747   1.750   1.775   1.827
 82 B    83 B    83 A    84 B    85 B    84 A    85 A    86 A                  
  1.834   1.860   1.864   1.892   1.906   1.913   1.920   1.941
 86 B    87 A    87 B    88 B    88 A    89 B    89 A    90 B                  
  1.954   2.009   2.046   2.066   2.071   2.118   2.128   2.147
 90 A    91 B    91 A    92 B    92 A    93 A    93 B    94 A                  
  2.169   2.192   2.206   2.208   2.224   2.238   2.253   2.265
 95 A    94 B    95 B    96 B    96 A    97 A    97 B    98 A                  
  2.286   2.311   2.334   2.399   2.405   2.423   2.452   2.472
 98 B    99 B    99 A   100 A   100 B   101 A   102 A   101 B                  
  2.489   2.499   2.524   2.528   2.543   2.564   2.566   2.595
103 A   102 B   103 B   104 B   104 A   105 B   105 A   106 A                  
  2.624   2.663   2.676   2.691   2.708   2.719   2.750   2.764
106 B   107 B   107 A   108 A   108 B   109 B   109 A   110 B                  
  2.768   2.773   2.782   2.795   2.798   2.866   2.895   2.903
111 B   110 A   111 A   112 A   112 B   113 A   114 A   113 B                  
  2.913   2.927   2.933   2.983   2.994   3.015   3.017   3.028
114 B   115 B   115 A   116 A   117 A   116 B   118 A   117 B                  
  3.045   3.061   3.066   3.132   3.160   3.161   3.165   3.186
119 A   118 B   119 B   120 A   120 B   121 A   121 B   122 A                  
  3.210   3.214   3.244   3.249   3.263   3.273   3.279   3.288
123 A   122 B   124 A   123 B   125 A   126 A   124 B   125 B                  
  3.290   3.298   3.333   3.343   3.355   3.357   3.366   3.404
127 A   126 B   128 A   127 B   129 A   128 B   129 B   130 B                  
  3.405   3.430   3.431   3.450   3.455   3.459   3.472   3.479
130 A   131 A   131 B   132 A   133 A   132 B   134 A   133 B                  
  3.483   3.494   3.508   3.509   3.515   3.524   3.532   3.544
135 A   134 B   136 A   135 B   137 A   136 B   137 B   138 B                  
  3.553   3.567   3.580   3.592   3.603   3.618   3.638   3.658
138 A   139 A   140 A   139 B   141 A   140 B   142 A   141 B                  
  3.693   3.703   3.731   3.735   3.745   3.755   3.786   3.790
143 A   142 B   144 A   143 B   145 A   144 B   146 A   145 B                  
  3.812   3.852   3.868   3.884   3.888   3.913   3.914   3.923
147 A   146 B   147 B   148 A   148 B   149 B   149 A   150 A                  
  3.967   3.973   4.005   4.005   4.021   4.026   4.036   4.058
150 B   151 A   152 A   151 B   152 B   153 A   154 A   153 B                  
  4.068   4.112   4.119   4.142   4.161   4.166   4.179   4.188
154 B   155 B   155 A   156 A   156 B   157 A   157 B   158 A                  
  4.207   4.215   4.228   4.257   4.274   4.286   4.330   4.331
158 B   159 A   160 A   159 B   161 A   160 B   161 B   162 A                  
  4.340   4.373   4.390   4.403   4.438   4.466   4.521   4.531
162 B   163 A   164 A   163 B   164 B   165 A   165 B   166 A                  
  4.551   4.555   4.585   4.608   4.659   4.660   4.693   4.702
166 B   167 A   167 B   168 A   169 A   168 B   170 A   169 B                  
  4.715   4.745   4.760   4.765   4.786   4.823   4.848   4.893
170 B   171 A   171 B   172 B   172 A   173 A   173 B   174 B                  
  4.898   4.936   4.977   5.007   5.053   5.068   5.069   5.072
174 A   175 A   175 B   176 A   176 B   177 A   177 B   178 A                  
  5.090   5.098   5.186   5.241   5.243   5.296   5.306   5.380
178 B   179 A   179 B   180 B   180 A   181 B   181 A   182 A                  
  5.387   5.420   5.427   5.508   5.564   5.600   5.651   5.669
182 B   183 A   183 B   184 A   184 B   185 A   186 A   185 B                  
  5.791   5.896   5.945   6.028   6.087   6.131   6.180   6.202
186 B   187 A   187 B   188 A   188 B   189 A   189 B   190 A                  
  6.210   6.545   6.566   6.715   6.745   9.513  10.687  11.875
190 B   191 A   191 B   192 A   192 B   193 A   193 B   194 A                  
 12.184  13.502  13.578  14.604  14.619
194 B   195 A   195 B   196 A   196 B                                          
 --------------------------------------------------------------
 
          Ground-State Mulliken Net Atomic Charges

     Atom                 Charge (a.u.)
  ----------------------------------------
      1 S                     0.128899
      2 C                    -0.239249
      3 C                    -0.190912
      4 C                    -0.200484
      5 C                    -0.033724
      6 H                     0.176785
      7 C                    -0.033724
      8 S                     0.128899
      9 C                    -0.200484
     10 C                    -0.239249
     11 C                    -0.190912
     12 H                     0.174435
     13 H                     0.184250
     14 H                     0.174435
     15 H                     0.184250
     16 H                     0.176785
  ----------------------------------------
  Sum of atomic charges =     0.000000

 -----------------------------------------------------------------
                    Cartesian Multipole Moments
 -----------------------------------------------------------------
    Charge (ESU x 10^10)
                 0.0000
    Dipole Moment (Debye)
         X      -0.0000      Y       0.0000      Z      -0.4475
       Tot       0.4475
    Quadrupole Moments (Debye-Ang)
        XX     -61.3277     XY       0.8803     YY     -71.1206
        XZ      -0.0000     YZ      -0.0000     ZZ     -74.4622
    Octopole Moments (Debye-Ang^2)
       XXX      -0.0000    XXY       0.0000    XYY       0.0000
       YYY       0.0000    XXZ       5.6989    XYZ     -11.8619
       YYZ      -5.3074    XZZ       0.0000    YZZ       0.0000
       ZZZ       3.8985
    Hexadecapole Moments (Debye-Ang^3)
      XXXX   -1839.4921   XXXY     -10.7632   XXYY    -405.8046
      XYYY       3.6789   YYYY    -423.8854   XXXZ      -0.0000
      XXYZ      -0.0000   XYYZ       0.0000   YYYZ      -0.0000
      XXZZ    -406.1712   XYZZ       2.3436   YYZZ    -103.0682
      XZZZ      -0.0000   YZZZ      -0.0000   ZZZZ    -257.4541
 -----------------------------------------------------------------
 DrvMan is completing analytic gradient of the MP2 energy
 MP2 relaxed dipole moment
            1
    1  -0.0000000
    2   0.0000000
    3  -0.1760431
	Magnitude:	 0.176 au	 0.447 Debye
 MP2 energy read as -1103.411757
 Full Analytical Gradient of MP2 Energy (in au.)
             1             2             3             4             5
    1    0.00015444    0.00060172   -0.00005096    0.00015376   -0.00118281
    2    0.00005608    0.00046605   -0.00031057   -0.00052593    0.00099602
    3    0.00041249   -0.00010940    0.00011363   -0.00050193    0.00036724
             6             7             8             9            10
    1    0.00009965    0.00118281   -0.00015444   -0.00015376   -0.00060172
    2   -0.00023258   -0.00099602   -0.00005608    0.00052593   -0.00046605
    3   -0.00038898    0.00036724    0.00041249   -0.00050193   -0.00010940
            11            12            13            14            15
    1    0.00005096   -0.00000197   -0.00001855    0.00000197    0.00001855
    2    0.00031057   -0.00002555   -0.00012223    0.00002555    0.00012223
    3    0.00011363    0.00003557    0.00007138    0.00003557    0.00007138
            16
    1   -0.00009965
    2    0.00023258
    3   -0.00038898
 Gradient time:  CPU 1.52 s  wall 0.10 s
 Geometry Optimization Parameters
   NAtoms,    NIC,     NZ,  NCons,   NDum,   NFix, NCnnct, MaxDiis
       16     111       0       1       0       0       0       0

 Cartesian Hessian Update
 Hessian Updated using BFGS Update


** CONSTRAINED OPTIMIZATION IN DELOCALIZED INTERNAL COORDINATES **
   Searching for a Minimum

   Optimization Cycle:   2

                       Coordinates (Angstroms)
     ATOM                X               Y               Z
      1  S         1.7427690673   -1.0082564316    0.6461239726
      2  C         3.1505602903   -0.1710203306    0.1730762984
      3  C         2.8462137540    0.9230483046   -0.5993743617
      4  C         1.4650325100    1.0700480197   -0.8065236227
      5  C         0.7173208168    0.0899503402   -0.1907268793
      6  H         1.0144731695    1.8482052604   -1.3958543512
      7  C        -0.7173208168   -0.0899503402   -0.1907268793
      8  S        -1.7427690673    1.0082564316    0.6461239726
      9  C        -1.4650325100   -1.0700480197   -0.8065236227
     10  C        -3.1505602903    0.1710203306    0.1730762984
     11  C        -2.8462137540   -0.9230483046   -0.5993743617
     12  H        -3.5931049254   -1.5828320850   -1.0007100368
     13  H         4.1174395268   -0.5193894638    0.4778184056
     14  H         3.5931049254    1.5828320850   -1.0007100368
     15  H        -4.1174395268    0.5193894638    0.4778184056
     16  H        -1.0144731695   -1.8482052604   -1.3958543512
   Point Group: c2    Number of degrees of freedom:    22


   Energy is  -1103.411757461

              Constraints and their Current Values
                                        Value     Constraint
   Dihedral:        4   5   7   9      110.000      110.000
 Hessian Updated using BFGS Update

 21 Hessian modes will be used to form the next step
  Hessian Eigenvalues:
     0.027860    0.045000    0.045000    0.045002    0.045011    0.047594
     0.158211    0.159989    0.160308    0.222068    0.240538    0.251753
     0.321680    0.340401    0.365575    0.366896    0.370123    0.428307
     0.456158    0.474291    0.502243

 Minimum Search - Taking Simple RFO Step
 Searching for Lamda that Minimizes Along All modes
 Value Taken    Lamda =  -0.00007960
 Step Taken.  Stepsize is  0.050521

                             Maximum     Tolerance    Cnvgd?
         Gradient           0.001216      0.000300      NO
         Displacement       0.038528      0.001200      NO
         Energy change     -0.000163      0.000001      NO


 New Cartesian Coordinates Obtained by Inverse Iteration

 Displacement from previous Coordinates is:  0.118249
 ----------------------------------------------------------------
             Standard Nuclear Orientation (Angstroms)
    I     Atom           X                Y                Z
 ----------------------------------------------------------------
    1      S       1.7469983733    -1.0159414006     0.6387712039
    2      C       3.1510780496    -0.1770000732     0.1613994459
    3      C       2.8435503610     0.9239526233    -0.6009041580
    4      C       1.4611843888     1.0742408867    -0.7961867546
    5      C       0.7184478613     0.0916444926    -0.1795018120
    6      H       1.0048973907     1.8588156282    -1.3722811229
    7      C      -0.7184478613    -0.0916444926    -0.1795018120
    8      S      -1.7469983733     1.0159414006     0.6387712039
    9      C      -1.4611843888    -1.0742408867    -0.7961867546
   10      C      -3.1510780496     0.1770000732     0.1613994459
   11      C      -2.8435503610    -0.9239526233    -0.6009041580
   12      H      -3.5886348358    -1.5854109922    -1.0028472835
   13      H       4.1203562990    -0.5278520647     0.4553799059
   14      H       3.5886348358     1.5854109922    -1.0028472835
   15      H      -4.1203562990     0.5278520647     0.4553799059
   16      H      -1.0048973907    -1.8588156282    -1.3722811229
 ----------------------------------------------------------------
 Molecular Point Group                 C2    NOp =  2
 Largest Abelian Subgroup              C2    NOp =  2
 Nuclear Repulsion Energy =   635.4139074988 hartrees
 There are       43 alpha and       43 beta electrons
 Applying Cartesian multipole field
    Component          Value
    ---------          -----
     (2,0,0)        1.00000E-11
     (0,2,0)        2.00000E-11
     (0,0,2)       -3.00000E-10
 Nucleus-field energy     =    -0.0000000146 hartrees
 Requested basis set is cc-pVTZ
 There are 140 shells and 392 basis functions
 A cutoff of  1.0D-11 yielded   8046 shell pairs
 There are     62594 function pairs (     81594 Cartesian)
 Smallest overlap matrix eigenvalue = 9.61E-05
 Guess MOs from SCF MO coefficient file
 Reading MOs from coefficient file
 Reading MOs from coefficient file
 A restricted Hartree-Fock SCF calculation will be
 performed using Pulay DIIS extrapolation
 SCF converges when DIIS error is below 1.0E-08
 Geometry optimization detected.  Setting ReadMinima to 0
 Setting SaveMinima to 0
 using 16 threads for integral computing 
 ---------------------------------------
  Cycle       Energy         DIIS Error
 ---------------------------------------
    1   -1101.5966987720      2.42E-04
    2   -1101.5972983538      2.91E-05
    3   -1101.5973371113      1.22E-05
    4   -1101.5973435980      6.81E-06
    5   -1101.5973453290      2.05E-06
    6   -1101.5973454958      8.31E-07
    7   -1101.5973455295      3.03E-07
    8   -1101.5973455344      9.94E-08
    9   -1101.5973455347      4.46E-08
   10   -1101.5973455341      1.29E-08
   11   -1101.5973455344      4.71E-09 Convergence criterion met
 ---------------------------------------
 SCF time:  CPU 707.80 s  wall 44.28 s
 SCF   energy in the final basis set = -1101.5973455344
 Total energy in the final basis set = -1101.5973455344
 
 Components of the MP2 correlation energy:
        aaaa  correlation energy =        -0.2321014588 au
        abab  correlation energy =        -1.3502652748 au
        bbbb  correlation energy =        -0.2321014588 au
        non-Brillouin singles    =        -0.0000000000 au

 Total  MP2   correlation energy =        -1.8144681923 au
        MP2         total energy =     -1103.4118137267 au

  Entering Z-vector solver.
   1         0           1      0.000264    0.000264
   2         0           1      0.000116    0.000116
   3         0           1      0.000048    0.000048
   4         0           1      0.000024    0.000024
   5         0           1      0.000007    0.000007
   6         0           1      0.000002    0.000002
   7         1           0      0.000000    0.000000    Roots Converged
 
 --------------------------------------------------------------
             Orbital Energies (a.u.) and Symmetries
 --------------------------------------------------------------
 
 Alpha MOs, Restricted
 -- Occupied --                  
-91.984 -91.984 -11.272 -11.271 -11.261 -11.261 -11.238 -11.238
  1 B     1 A     2 A     2 B     3 B     3 A     4 A     4 B                  
-11.236 -11.236  -8.986  -8.986  -6.667  -6.667  -6.666  -6.666
  5 B     5 A     6 B     6 A     7 B     7 A     8 A     8 B                  
 -6.665  -6.665  -1.195  -1.166  -1.033  -0.994  -0.989  -0.948
  9 B     9 A    10 A    10 B    11 A    11 B    12 A    12 B                  
 -0.806  -0.770  -0.756  -0.718  -0.704  -0.645  -0.570  -0.569
 13 A    13 B    14 A    14 B    15 A    15 B    16 A    16 B                  
 -0.562  -0.555  -0.539  -0.513  -0.511  -0.478  -0.473  -0.354
 17 A    17 B    18 A    18 B    19 A    19 B    20 A    21 A                  
 -0.345  -0.341  -0.305
 20 B    22 A    21 B                                                          
 -- Virtual --                   
  0.097   0.123   0.150   0.154   0.163   0.171   0.184   0.185
 23 A    22 B    23 B    24 A    25 A    24 B    26 A    25 B                  
  0.191   0.201   0.208   0.232   0.238   0.251   0.318   0.324
 27 A    26 B    28 A    27 B    28 B    29 A    29 B    30 A                  
  0.347   0.353   0.366   0.376   0.391   0.403   0.421   0.429
 30 B    31 A    31 B    32 A    33 A    32 B    33 B    34 A                  
  0.440   0.449   0.455   0.461   0.468   0.491   0.499   0.502
 35 A    34 B    36 A    35 B    37 A    36 B    38 A    37 B                  
  0.508   0.522   0.538   0.541   0.548   0.556   0.565   0.571
 38 B    39 A    39 B    40 B    40 A    41 A    41 B    42 A                  
  0.574   0.581   0.600   0.602   0.608   0.608   0.621   0.623
 42 B    43 A    44 A    43 B    44 B    45 A    45 B    46 A                  
  0.640   0.645   0.657   0.669   0.678   0.681   0.703   0.714
 46 B    47 A    47 B    48 B    48 A    49 A    50 A    49 B                  
  0.756   0.757   0.782   0.785   0.808   0.829   0.840   0.845
 50 B    51 A    51 B    52 A    52 B    53 A    53 B    54 B                  
  0.864   0.865   0.879   0.899   0.905   0.919   0.927   0.938
 54 A    55 B    55 A    56 B    56 A    57 A    57 B    58 A                  
  0.969   0.997   1.006   1.014   1.023   1.029   1.067   1.091
 59 A    58 B    60 A    59 B    61 A    60 B    61 B    62 A                  
  1.100   1.104   1.104   1.117   1.130   1.151   1.171   1.182
 62 B    63 A    63 B    64 A    65 A    64 B    66 A    65 B                  
  1.189   1.194   1.217   1.226   1.242   1.247   1.285   1.293
 67 A    66 B    68 A    67 B    68 B    69 A    69 B    70 A                  
  1.301   1.312   1.344   1.346   1.377   1.381   1.406   1.438
 70 B    71 A    72 A    71 B    73 A    72 B    73 B    74 A                  
  1.447   1.458   1.486   1.493   1.493   1.511   1.517   1.539
 74 B    75 B    75 A    76 B    76 A    77 B    77 A    78 B                  
  1.549   1.559   1.561   1.589   1.593   1.619   1.633   1.643
 78 A    79 B    79 A    80 A    80 B    81 A    81 B    82 A                  
  1.676   1.709   1.711   1.742   1.747   1.750   1.775   1.826
 82 B    83 B    83 A    84 B    85 B    84 A    85 A    86 A                  
  1.835   1.861   1.865   1.891   1.906   1.914   1.921   1.940
 86 B    87 A    87 B    88 B    88 A    89 B    89 A    90 B                  
  1.953   2.007   2.046   2.067   2.071   2.117   2.128   2.148
 90 A    91 B    91 A    92 B    92 A    93 A    93 B    94 A                  
  2.169   2.190   2.205   2.210   2.227   2.238   2.254   2.265
 95 A    94 B    95 B    96 B    96 A    97 A    97 B    98 A                  
  2.286   2.312   2.334   2.397   2.404   2.424   2.453   2.471
 98 B    99 B    99 A   100 A   100 B   101 A   102 A   101 B                  
  2.489   2.499   2.523   2.529   2.541   2.565   2.568   2.595
103 A   102 B   103 B   104 B   104 A   105 B   105 A   106 A                  
  2.624   2.665   2.679   2.693   2.705   2.719   2.751   2.764
106 B   107 B   107 A   108 A   108 B   109 B   109 A   110 B                  
  2.769   2.774   2.784   2.794   2.798   2.867   2.896   2.903
111 B   110 A   111 A   112 A   112 B   113 A   114 A   113 B                  
  2.912   2.926   2.933   2.981   2.994   3.015   3.017   3.028
114 B   115 B   115 A   116 A   117 A   116 B   118 A   117 B                  
  3.045   3.061   3.065   3.133   3.160   3.162   3.168   3.185
119 A   118 B   119 B   120 A   120 B   121 A   121 B   122 A                  
  3.208   3.216   3.244   3.250   3.263   3.272   3.280   3.289
123 A   122 B   124 A   123 B   125 A   126 A   124 B   125 B                  
  3.290   3.300   3.334   3.344   3.355   3.355   3.366   3.404
127 A   126 B   128 A   127 B   128 B   129 A   129 B   130 B                  
  3.406   3.431   3.432   3.449   3.455   3.459   3.472   3.480
130 A   131 A   131 B   132 A   133 A   132 B   134 A   133 B                  
  3.483   3.494   3.508   3.509   3.514   3.525   3.532   3.545
135 A   134 B   136 A   135 B   137 A   136 B   137 B   138 B                  
  3.552   3.568   3.580   3.593   3.602   3.619   3.638   3.658
138 A   139 A   140 A   139 B   141 A   140 B   142 A   141 B                  
  3.692   3.703   3.731   3.736   3.744   3.756   3.785   3.788
143 A   142 B   144 A   143 B   145 A   144 B   146 A   145 B                  
  3.815   3.852   3.867   3.885   3.889   3.913   3.914   3.922
147 A   146 B   147 B   148 A   148 B   149 B   149 A   150 A                  
  3.968   3.974   4.004   4.005   4.020   4.028   4.035   4.058
150 B   151 A   152 A   151 B   152 B   153 A   154 A   153 B                  
  4.066   4.114   4.118   4.141   4.161   4.166   4.180   4.188
154 B   155 B   155 A   156 A   156 B   157 A   157 B   158 A                  
  4.208   4.215   4.230   4.257   4.274   4.285   4.330   4.332
158 B   159 A   160 A   159 B   161 A   160 B   161 B   162 A                  
  4.339   4.374   4.391   4.404   4.438   4.467   4.522   4.530
162 B   163 A   164 A   163 B   164 B   165 A   165 B   166 A                  
  4.552   4.555   4.586   4.608   4.658   4.661   4.693   4.702
166 B   167 A   167 B   168 A   169 A   168 B   170 A   169 B                  
  4.713   4.745   4.760   4.765   4.786   4.823   4.846   4.892
170 B   171 A   171 B   172 B   172 A   173 A   173 B   174 B                  
  4.899   4.934   4.974   5.008   5.052   5.067   5.068   5.073
174 A   175 A   175 B   176 A   176 B   177 A   177 B   178 A                  
  5.090   5.098   5.187   5.241   5.243   5.295   5.305   5.378
178 B   179 A   179 B   180 B   180 A   181 B   181 A   182 A                  
  5.388   5.419   5.427   5.508   5.564   5.599   5.652   5.668
182 B   183 A   183 B   184 A   184 B   185 A   186 A   185 B                  
  5.792   5.896   5.945   6.032   6.088   6.130   6.183   6.204
186 B   187 A   187 B   188 A   188 B   189 A   189 B   190 A                  
  6.213   6.546   6.566   6.712   6.747   9.510  10.674  11.877
190 B   191 A   191 B   192 A   192 B   193 A   193 B   194 A                  
 12.168  13.506  13.573  14.608  14.619
194 B   195 A   195 B   196 A   196 B                                          
 
 Beta MOs, Restricted
 -- Occupied --                  
-91.984 -91.984 -11.272 -11.271 -11.261 -11.261 -11.238 -11.238
  1 B     1 A     2 A     2 B     3 B     3 A     4 A     4 B                  
-11.236 -11.236  -8.986  -8.986  -6.667  -6.667  -6.666  -6.666
  5 B     5 A     6 B     6 A     7 B     7 A     8 A     8 B                  
 -6.665  -6.665  -1.195  -1.166  -1.033  -0.994  -0.989  -0.948
  9 B     9 A    10 A    10 B    11 A    11 B    12 A    12 B                  
 -0.806  -0.770  -0.756  -0.718  -0.704  -0.645  -0.570  -0.569
 13 A    13 B    14 A    14 B    15 A    15 B    16 A    16 B                  
 -0.562  -0.555  -0.539  -0.513  -0.511  -0.478  -0.473  -0.354
 17 A    17 B    18 A    18 B    19 A    19 B    20 A    21 A                  
 -0.345  -0.341  -0.305
 20 B    22 A    21 B                                                          
 -- Virtual --                   
  0.097   0.123   0.150   0.154   0.163   0.171   0.184   0.185
 23 A    22 B    23 B    24 A    25 A    24 B    26 A    25 B                  
  0.191   0.201   0.208   0.232   0.238   0.251   0.318   0.324
 27 A    26 B    28 A    27 B    28 B    29 A    29 B    30 A                  
  0.347   0.353   0.366   0.376   0.391   0.403   0.421   0.429
 30 B    31 A    31 B    32 A    33 A    32 B    33 B    34 A                  
  0.440   0.449   0.455   0.461   0.468   0.491   0.499   0.502
 35 A    34 B    36 A    35 B    37 A    36 B    38 A    37 B                  
  0.508   0.522   0.538   0.541   0.548   0.556   0.565   0.571
 38 B    39 A    39 B    40 B    40 A    41 A    41 B    42 A                  
  0.574   0.581   0.600   0.602   0.608   0.608   0.621   0.623
 42 B    43 A    44 A    43 B    44 B    45 A    45 B    46 A                  
  0.640   0.645   0.657   0.669   0.678   0.681   0.703   0.714
 46 B    47 A    47 B    48 B    48 A    49 A    50 A    49 B                  
  0.756   0.757   0.782   0.785   0.808   0.829   0.840   0.845
 50 B    51 A    51 B    52 A    52 B    53 A    53 B    54 B                  
  0.864   0.865   0.879   0.899   0.905   0.919   0.927   0.938
 54 A    55 B    55 A    56 B    56 A    57 A    57 B    58 A                  
  0.969   0.997   1.006   1.014   1.023   1.029   1.067   1.091
 59 A    58 B    60 A    59 B    61 A    60 B    61 B    62 A                  
  1.100   1.104   1.104   1.117   1.130   1.151   1.171   1.182
 62 B    63 A    63 B    64 A    65 A    64 B    66 A    65 B                  
  1.189   1.194   1.217   1.226   1.242   1.247   1.285   1.293
 67 A    66 B    68 A    67 B    68 B    69 A    69 B    70 A                  
  1.301   1.312   1.344   1.346   1.377   1.381   1.406   1.438
 70 B    71 A    72 A    71 B    73 A    72 B    73 B    74 A                  
  1.447   1.458   1.486   1.493   1.493   1.511   1.517   1.539
 74 B    75 B    75 A    76 B    76 A    77 B    77 A    78 B                  
  1.549   1.559   1.561   1.589   1.593   1.619   1.633   1.643
 78 A    79 B    79 A    80 A    80 B    81 A    81 B    82 A                  
  1.676   1.709   1.711   1.742   1.747   1.750   1.775   1.826
 82 B    83 B    83 A    84 B    85 B    84 A    85 A    86 A                  
  1.835   1.861   1.865   1.891   1.906   1.914   1.921   1.940
 86 B    87 A    87 B    88 B    88 A    89 B    89 A    90 B                  
  1.953   2.007   2.046   2.067   2.071   2.117   2.128   2.148
 90 A    91 B    91 A    92 B    92 A    93 A    93 B    94 A                  
  2.169   2.190   2.205   2.210   2.227   2.238   2.254   2.265
 95 A    94 B    95 B    96 B    96 A    97 A    97 B    98 A                  
  2.286   2.312   2.334   2.397   2.404   2.424   2.453   2.471
 98 B    99 B    99 A   100 A   100 B   101 A   102 A   101 B                  
  2.489   2.499   2.523   2.529   2.541   2.565   2.568   2.595
103 A   102 B   103 B   104 B   104 A   105 B   105 A   106 A                  
  2.624   2.665   2.679   2.693   2.705   2.719   2.751   2.764
106 B   107 B   107 A   108 A   108 B   109 B   109 A   110 B                  
  2.769   2.774   2.784   2.794   2.798   2.867   2.896   2.903
111 B   110 A   111 A   112 A   112 B   113 A   114 A   113 B                  
  2.912   2.926   2.933   2.981   2.994   3.015   3.017   3.028
114 B   115 B   115 A   116 A   117 A   116 B   118 A   117 B                  
  3.045   3.061   3.065   3.133   3.160   3.162   3.168   3.185
119 A   118 B   119 B   120 A   120 B   121 A   121 B   122 A                  
  3.208   3.216   3.244   3.250   3.263   3.272   3.280   3.289
123 A   122 B   124 A   123 B   125 A   126 A   124 B   125 B                  
  3.290   3.300   3.334   3.344   3.355   3.355   3.366   3.404
127 A   126 B   128 A   127 B   128 B   129 A   129 B   130 B                  
  3.406   3.431   3.432   3.449   3.455   3.459   3.472   3.480
130 A   131 A   131 B   132 A   133 A   132 B   134 A   133 B                  
  3.483   3.494   3.508   3.509   3.514   3.525   3.532   3.545
135 A   134 B   136 A   135 B   137 A   136 B   137 B   138 B                  
  3.552   3.568   3.580   3.593   3.602   3.619   3.638   3.658
138 A   139 A   140 A   139 B   141 A   140 B   142 A   141 B                  
  3.692   3.703   3.731   3.736   3.744   3.756   3.785   3.788
143 A   142 B   144 A   143 B   145 A   144 B   146 A   145 B                  
  3.815   3.852   3.867   3.885   3.889   3.913   3.914   3.922
147 A   146 B   147 B   148 A   148 B   149 B   149 A   150 A                  
  3.968   3.974   4.004   4.005   4.020   4.028   4.035   4.058
150 B   151 A   152 A   151 B   152 B   153 A   154 A   153 B                  
  4.066   4.114   4.118   4.141   4.161   4.166   4.180   4.188
154 B   155 B   155 A   156 A   156 B   157 A   157 B   158 A                  
  4.208   4.215   4.230   4.257   4.274   4.285   4.330   4.332
158 B   159 A   160 A   159 B   161 A   160 B   161 B   162 A                  
  4.339   4.374   4.391   4.404   4.438   4.467   4.522   4.530
162 B   163 A   164 A   163 B   164 B   165 A   165 B   166 A                  
  4.552   4.555   4.586   4.608   4.658   4.661   4.693   4.702
166 B   167 A   167 B   168 A   169 A   168 B   170 A   169 B                  
  4.713   4.745   4.760   4.765   4.786   4.823   4.846   4.892
170 B   171 A   171 B   172 B   172 A   173 A   173 B   174 B                  
  4.899   4.934   4.974   5.008   5.052   5.067   5.068   5.073
174 A   175 A   175 B   176 A   176 B   177 A   177 B   178 A                  
  5.090   5.098   5.187   5.241   5.243   5.295   5.305   5.378
178 B   179 A   179 B   180 B   180 A   181 B   181 A   182 A                  
  5.388   5.419   5.427   5.508   5.564   5.599   5.652   5.668
182 B   183 A   183 B   184 A   184 B   185 A   186 A   185 B                  
  5.792   5.896   5.945   6.032   6.088   6.130   6.183   6.204
186 B   187 A   187 B   188 A   188 B   189 A   189 B   190 A                  
  6.213   6.546   6.566   6.712   6.747   9.510  10.674  11.877
190 B   191 A   191 B   192 A   192 B   193 A   193 B   194 A                  
 12.168  13.506  13.573  14.608  14.619
194 B   195 A   195 B   196 A   196 B                                          
 --------------------------------------------------------------
 
          Ground-State Mulliken Net Atomic Charges

     Atom                 Charge (a.u.)
  ----------------------------------------
      1 S                     0.129301
      2 C                    -0.239446
      3 C                    -0.191403
      4 C                    -0.199821
      5 C                    -0.034321
      6 H                     0.177065
      7 C                    -0.034321
      8 S                     0.129301
      9 C                    -0.199821
     10 C                    -0.239446
     11 C                    -0.191403
     12 H                     0.174430
     13 H                     0.184195
     14 H                     0.174430
     15 H                     0.184195
     16 H                     0.177065
  ----------------------------------------
  Sum of atomic charges =    -0.000000

 -----------------------------------------------------------------
                    Cartesian Multipole Moments
 -----------------------------------------------------------------
    Charge (ESU x 10^10)
                 0.0000
    Dipole Moment (Debye)
         X       0.0000      Y       0.0000      Z      -0.4510
       Tot       0.4510
    Quadrupole Moments (Debye-Ang)
        XX     -61.3634     XY       0.8184     YY     -71.0200
        XZ      -0.0000     YZ      -0.0000     ZZ     -74.5600
    Octopole Moments (Debye-Ang^2)
       XXX       0.0000    XXY       0.0000    XYY       0.0000
       YYY       0.0000    XXZ       5.3404    XYZ     -11.7699
       YYZ      -5.1921    XZZ       0.0000    YZZ       0.0000
       ZZZ       4.3421
    Hexadecapole Moments (Debye-Ang^3)
      XXXX   -1840.2913   XXXY      -9.9233   XXYY    -406.0256
      XYYY       5.6843   YYYY    -426.9364   XXXZ      -0.0000
      XXYZ       0.0000   XYYZ      -0.0000   YYYZ      -0.0000
      XXZZ    -406.4564   XYZZ       3.0781   YYZZ    -103.3059
      XZZZ      -0.0000   YZZZ      -0.0000   ZZZZ    -254.0680
 -----------------------------------------------------------------
 DrvMan is completing analytic gradient of the MP2 energy
 MP2 relaxed dipole moment
            1
    1   0.0000000
    2   0.0000000
    3  -0.1774423
	Magnitude:	 0.177 au	 0.451 Debye
 MP2 energy read as -1103.411814
 Full Analytical Gradient of MP2 Energy (in au.)
             1             2             3             4             5
    1    0.00028690   -0.00027183   -0.00010182    0.00009526    0.00143901
    2    0.00009839   -0.00009887    0.00004875   -0.00096187    0.00182105
    3    0.00018645    0.00033982   -0.00018547   -0.00102053    0.00079458
             6             7             8             9            10
    1   -0.00002398   -0.00143900   -0.00028690   -0.00009526    0.00027183
    2   -0.00015525   -0.00182105   -0.00009839    0.00096187    0.00009887
    3   -0.00011487    0.00079458    0.00018645   -0.00102053    0.00033982
            11            12            13            14            15
    1    0.00010182    0.00001819   -0.00000595   -0.00001819    0.00000595
    2   -0.00004875   -0.00006179   -0.00002712    0.00006179    0.00002712
    3   -0.00018547   -0.00000143    0.00000145   -0.00000143    0.00000145
            16
    1    0.00002398
    2    0.00015525
    3   -0.00011487
 Gradient time:  CPU 1.52 s  wall 0.10 s
 Geometry Optimization Parameters
   NAtoms,    NIC,     NZ,  NCons,   NDum,   NFix, NCnnct, MaxDiis
       16     111       0       1       0       0       0       0

 Cartesian Hessian Update
 Hessian Updated using BFGS Update


** CONSTRAINED OPTIMIZATION IN DELOCALIZED INTERNAL COORDINATES **
   Searching for a Minimum

   Optimization Cycle:   3

                       Coordinates (Angstroms)
     ATOM                X               Y               Z
      1  S         1.7469983733   -1.0159414006    0.6387712039
      2  C         3.1510780496   -0.1770000732    0.1613994459
[...]
         Gradient           0.000080      0.000300     YES
         Displacement       0.001930      0.001200      NO
         Energy change     -0.000001      0.000001     YES

 Final energy is   -1103.41187227481     


 ******************************
 **  OPTIMIZATION CONVERGED  **
 ******************************

                       Coordinates (Angstroms)
     ATOM                X               Y               Z
      1  S         1.7568212752   -1.0319647484    0.6219478777
      2  C         3.1552760117   -0.1904233455    0.1306561358
      3  C         2.8366930061    0.9267741119   -0.6024965090
      4  C         1.4513974071    1.0860451317   -0.7675063828
      5  C         0.7163256794    0.0970784246   -0.1504194238
      6  H         0.9876399002    1.8833436305   -1.3198134204
      7  C        -0.7163256794   -0.0970784246   -0.1504194238
      8  S        -1.7568212752    1.0319647484    0.6219478777
      9  C        -1.4513974071   -1.0860451317   -0.7675063828
     10  C        -3.1552760117    0.1904233455    0.1306561358
     11  C        -2.8366930061   -0.9267741119   -0.6024965090
     12  H        -3.5765305493   -1.5919958736   -1.0078750712
     13  H         4.1287216463   -0.5498280452    0.3993362185
     14  H         3.5765305493    1.5919958736   -1.0078750712
     15  H        -4.1287216463    0.5498280452    0.3993362185
     16  H        -0.9876399002   -1.8833436305   -1.3198134204

Z-matrix Print:
$molecule
0 1
S 
C  1 1.704475
H  2 1.071894 1 120.484870
C  2 1.373731 1 111.412620 3 179.978315 0
H  4 1.074342 2 123.040698 1 179.817391 0
C  4 1.404151 2 112.566831 1 0.394596 0
H  6 1.075081 4 124.755110 2 178.996183 0
C  6 1.378108 4 113.092019 2 -0.531830 0
C  8 1.445748 6 128.677331 4 177.245784 0
C  9 1.378108 8 128.677331 6 -110.000000 0
H  10 1.075081 9 122.151135 8 -2.296195 0
C  10 1.404151 9 113.092019 8 177.245784 0
H  12 1.074342 10 124.389743 9 -179.945483 0
C  12 1.373731 10 112.566831 9 -0.531830 0
H  14 1.071894 12 128.102506 10 -179.629151 0
S  14 1.704475 12 111.412620 10 0.394596 0
$end

 
 --------------------------------------------------------------
             Orbital Energies (a.u.) and Symmetries
 --------------------------------------------------------------
 
 Alpha MOs, Restricted
 -- Occupied --                  
-91.984 -91.984 -11.272 -11.272 -11.261 -11.261 -11.238 -11.238
  1 B     1 A     2 A     2 B     3 B     3 A     4 A     4 B                  
-11.236 -11.236  -8.986  -8.986  -6.667  -6.667  -6.666  -6.666
  5 B     5 A     6 B     6 A     7 B     7 A     8 A     8 B                  
 -6.665  -6.665  -1.195  -1.166  -1.033  -0.994  -0.988  -0.948
  9 B     9 A    10 A    10 B    11 A    11 B    12 A    12 B                  
 -0.806  -0.770  -0.755  -0.718  -0.704  -0.645  -0.571  -0.569
 13 A    13 B    14 A    14 B    15 A    15 B    16 A    16 B                  
 -0.562  -0.555  -0.540  -0.513  -0.511  -0.478  -0.473  -0.354
 17 A    17 B    18 A    18 B    19 A    19 B    20 A    21 A                  
 -0.345  -0.343  -0.303
 20 B    22 A    21 B                                                          
 -- Virtual --                   
  0.095   0.124   0.150   0.154   0.163   0.171   0.185   0.185
 23 A    22 B    23 B    24 A    25 A    24 B    26 A    25 B                  
  0.192   0.201   0.208   0.233   0.237   0.252   0.318   0.325
 27 A    26 B    28 A    27 B    28 B    29 A    29 B    30 A                  
  0.347   0.353   0.366   0.376   0.391   0.403   0.421   0.431
 30 B    31 A    31 B    32 A    33 A    32 B    33 B    34 A                  
  0.439   0.449   0.456   0.460   0.468   0.493   0.502   0.502
 35 A    34 B    36 A    35 B    37 A    36 B    38 A    37 B                  
  0.508   0.521   0.538   0.543   0.548   0.556   0.562   0.571
 38 B    39 A    39 B    40 B    40 A    41 A    41 B    42 A                  
  0.573   0.581   0.599   0.601   0.608   0.608   0.622   0.623
 42 B    43 A    44 A    43 B    44 B    45 A    45 B    46 A                  
  0.641   0.645   0.656   0.670   0.679   0.682   0.702   0.713
 46 B    47 A    47 B    48 B    48 A    49 A    50 A    49 B                  
  0.757   0.758   0.781   0.784   0.807   0.829   0.839   0.847
 50 B    51 A    51 B    52 A    52 B    53 A    53 B    54 B                  
  0.863   0.864   0.881   0.902   0.903   0.920   0.930   0.937
 55 B    54 A    55 A    56 B    56 A    57 A    57 B    58 A                  
  0.965   0.999   1.008   1.015   1.024   1.028   1.068   1.093
 59 A    58 B    60 A    59 B    61 A    60 B    61 B    62 A                  
  1.100   1.101   1.103   1.113   1.131   1.151   1.171   1.182
 62 B    63 A    63 B    64 A    65 A    64 B    66 A    65 B                  
  1.188   1.195   1.217   1.225   1.241   1.250   1.280   1.293
 67 A    66 B    68 A    67 B    68 B    69 A    69 B    70 A                  
  1.300   1.312   1.344   1.352   1.375   1.382   1.406   1.438
 70 B    71 A    72 A    71 B    73 A    72 B    73 B    74 A                  
  1.448   1.458   1.486   1.491   1.492   1.512   1.516   1.539
 74 B    75 B    75 A    76 B    76 A    77 B    77 A    78 B                  
  1.548   1.560   1.561   1.588   1.593   1.617   1.633   1.642
 78 A    79 B    79 A    80 A    80 B    81 A    81 B    82 A                  
  1.677   1.707   1.712   1.738   1.748   1.752   1.776   1.825
 82 B    83 B    83 A    84 B    85 B    84 A    85 A    86 A                  
  1.837   1.861   1.867   1.890   1.906   1.917   1.925   1.940
 86 B    87 A    87 B    88 B    88 A    89 B    89 A    90 B                  
  1.952   2.002   2.045   2.069   2.071   2.113   2.127   2.150
 90 A    91 B    91 A    92 B    92 A    93 A    93 B    94 A                  
  2.168   2.188   2.203   2.214   2.230   2.238   2.256   2.266
 95 A    94 B    95 B    96 B    96 A    97 A    97 B    98 A                  
  2.286   2.316   2.337   2.393   2.401   2.426   2.455   2.469
 98 B    99 B    99 A   100 A   100 B   101 A   102 A   101 B                  
  2.488   2.497   2.521   2.529   2.536   2.565   2.570   2.594
103 A   102 B   103 B   104 B   104 A   105 B   105 A   106 A                  
  2.625   2.667   2.684   2.702   2.702   2.718   2.753   2.764
106 B   107 B   107 A   108 A   108 B   109 B   109 A   110 B                  
  2.770   2.774   2.785   2.793   2.799   2.866   2.896   2.902
111 B   110 A   111 A   112 A   112 B   113 A   114 A   113 B                  
  2.908   2.925   2.935   2.977   2.995   3.015   3.018   3.028
114 B   115 B   115 A   116 A   117 A   116 B   118 A   117 B                  
  3.046   3.057   3.065   3.131   3.160   3.161   3.173   3.183
119 A   118 B   119 B   120 A   120 B   121 A   121 B   122 A                  
  3.206   3.217   3.245   3.251   3.261   3.269   3.280   3.288
123 A   122 B   124 A   123 B   125 A   126 A   124 B   127 A                  
  3.289   3.310   3.334   3.345   3.350   3.356   3.368   3.404
125 B   126 B   128 A   127 B   128 B   129 A   129 B   130 B                  
  3.406   3.432   3.433   3.449   3.456   3.459   3.471   3.480
130 A   131 A   131 B   132 A   133 A   132 B   134 A   133 B                  
  3.485   3.494   3.505   3.508   3.514   3.524   3.532   3.546
135 A   134 B   136 A   135 B   137 A   136 B   137 B   138 B                  
  3.548   3.570   3.579   3.593   3.600   3.620   3.636   3.658
138 A   139 A   140 A   139 B   141 A   140 B   142 A   141 B                  
  3.690   3.703   3.730   3.740   3.743   3.758   3.782   3.785
143 A   142 B   144 A   143 B   145 A   144 B   146 A   145 B                  
  3.820   3.849   3.866   3.887   3.888   3.913   3.914   3.922
147 A   146 B   147 B   148 A   148 B   149 B   149 A   150 A                  
  3.969   3.974   4.002   4.005   4.019   4.030   4.037   4.054
150 B   151 A   152 A   151 B   152 B   153 A   154 A   153 B                  
  4.064   4.116   4.117   4.140   4.161   4.165   4.180   4.184
154 B   155 A   155 B   156 A   156 B   157 A   157 B   158 A                  
  4.210   4.216   4.232   4.258   4.276   4.286   4.329   4.333
158 B   159 A   160 A   159 B   161 A   160 B   161 B   162 A                  
  4.339   4.375   4.392   4.404   4.435   4.468   4.522   4.531
162 B   163 A   164 A   163 B   164 B   165 A   165 B   166 A                  
  4.552   4.555   4.588   4.609   4.657   4.662   4.695   4.703
166 B   167 A   167 B   168 A   169 A   168 B   170 A   169 B                  
  4.712   4.744   4.759   4.765   4.785   4.823   4.845   4.891
170 B   171 A   171 B   172 B   172 A   173 A   173 B   174 B                  
  4.902   4.934   4.980   5.011   5.053   5.068   5.068   5.072
174 A   175 A   175 B   176 A   176 B   177 A   177 B   178 A                  
  5.090   5.099   5.188   5.239   5.244   5.294   5.308   5.378
178 B   179 A   179 B   180 B   180 A   181 B   181 A   182 A                  
  5.388   5.418   5.427   5.508   5.564   5.599   5.652   5.666
182 B   183 A   183 B   184 A   184 B   185 A   186 A   185 B                  
  5.796   5.895   5.941   6.033   6.091   6.131   6.183   6.203
186 B   187 A   187 B   188 A   188 B   189 A   189 B   190 A                  
  6.215   6.547   6.565   6.708   6.750   9.500  10.690  11.873
190 B   191 A   191 B   192 A   192 B   193 A   193 B   194 A                  
 12.191  13.518  13.581  14.610  14.622
194 B   195 A   195 B   196 A   196 B                                          
 
 Beta MOs, Restricted
 -- Occupied --                  
-91.984 -91.984 -11.272 -11.272 -11.261 -11.261 -11.238 -11.238
  1 B     1 A     2 A     2 B     3 B     3 A     4 A     4 B                  
-11.236 -11.236  -8.986  -8.986  -6.667  -6.667  -6.666  -6.666
  5 B     5 A     6 B     6 A     7 B     7 A     8 A     8 B                  
 -6.665  -6.665  -1.195  -1.166  -1.033  -0.994  -0.988  -0.948
  9 B     9 A    10 A    10 B    11 A    11 B    12 A    12 B                  
 -0.806  -0.770  -0.755  -0.718  -0.704  -0.645  -0.571  -0.569
 13 A    13 B    14 A    14 B    15 A    15 B    16 A    16 B                  
 -0.562  -0.555  -0.540  -0.513  -0.511  -0.478  -0.473  -0.354
 17 A    17 B    18 A    18 B    19 A    19 B    20 A    21 A                  
 -0.345  -0.343  -0.303
 20 B    22 A    21 B                                                          
 -- Virtual --                   
  0.095   0.124   0.150   0.154   0.163   0.171   0.185   0.185
 23 A    22 B    23 B    24 A    25 A    24 B    26 A    25 B                  
  0.192   0.201   0.208   0.233   0.237   0.252   0.318   0.325
 27 A    26 B    28 A    27 B    28 B    29 A    29 B    30 A                  
  0.347   0.353   0.366   0.376   0.391   0.403   0.421   0.431
 30 B    31 A    31 B    32 A    33 A    32 B    33 B    34 A                  
  0.439   0.449   0.456   0.460   0.468   0.493   0.502   0.502
 35 A    34 B    36 A    35 B    37 A    36 B    38 A    37 B                  
  0.508   0.521   0.538   0.543   0.548   0.556   0.562   0.571
 38 B    39 A    39 B    40 B    40 A    41 A    41 B    42 A                  
  0.573   0.581   0.599   0.601   0.608   0.608   0.622   0.623
 42 B    43 A    44 A    43 B    44 B    45 A    45 B    46 A                  
  0.641   0.645   0.656   0.670   0.679   0.682   0.702   0.713
 46 B    47 A    47 B    48 B    48 A    49 A    50 A    49 B                  
  0.757   0.758   0.781   0.784   0.807   0.829   0.839   0.847
 50 B    51 A    51 B    52 A    52 B    53 A    53 B    54 B                  
  0.863   0.864   0.881   0.902   0.903   0.920   0.930   0.937
 55 B    54 A    55 A    56 B    56 A    57 A    57 B    58 A                  
  0.965   0.999   1.008   1.015   1.024   1.028   1.068   1.093
 59 A    58 B    60 A    59 B    61 A    60 B    61 B    62 A                  
  1.100   1.101   1.103   1.113   1.131   1.151   1.171   1.182
 62 B    63 A    63 B    64 A    65 A    64 B    66 A    65 B                  
  1.188   1.195   1.217   1.225   1.241   1.250   1.280   1.293
 67 A    66 B    68 A    67 B    68 B    69 A    69 B    70 A                  
  1.300   1.312   1.344   1.352   1.375   1.382   1.406   1.438
 70 B    71 A    72 A    71 B    73 A    72 B    73 B    74 A                  
  1.448   1.458   1.486   1.491   1.492   1.512   1.516   1.539
 74 B    75 B    75 A    76 B    76 A    77 B    77 A    78 B                  
  1.548   1.560   1.561   1.588   1.593   1.617   1.633   1.642
 78 A    79 B    79 A    80 A    80 B    81 A    81 B    82 A                  
  1.677   1.707   1.712   1.738   1.748   1.752   1.776   1.825
 82 B    83 B    83 A    84 B    85 B    84 A    85 A    86 A                  
  1.837   1.861   1.867   1.890   1.906   1.917   1.925   1.940
 86 B    87 A    87 B    88 B    88 A    89 B    89 A    90 B                  
  1.952   2.002   2.045   2.069   2.071   2.113   2.127   2.150
 90 A    91 B    91 A    92 B    92 A    93 A    93 B    94 A                  
  2.168   2.188   2.203   2.214   2.230   2.238   2.256   2.266
 95 A    94 B    95 B    96 B    96 A    97 A    97 B    98 A                  
  2.286   2.316   2.337   2.393   2.401   2.426   2.455   2.469
 98 B    99 B    99 A   100 A   100 B   101 A   102 A   101 B                  
  2.488   2.497   2.521   2.529   2.536   2.565   2.570   2.594
103 A   102 B   103 B   104 B   104 A   105 B   105 A   106 A                  
  2.625   2.667   2.684   2.702   2.702   2.718   2.753   2.764
106 B   107 B   107 A   108 A   108 B   109 B   109 A   110 B                  
  2.770   2.774   2.785   2.793   2.799   2.866   2.896   2.902
111 B   110 A   111 A   112 A   112 B   113 A   114 A   113 B                  
  2.908   2.925   2.935   2.977   2.995   3.015   3.018   3.028
114 B   115 B   115 A   116 A   117 A   116 B   118 A   117 B                  
  3.046   3.057   3.065   3.131   3.160   3.161   3.173   3.183
119 A   118 B   119 B   120 A   120 B   121 A   121 B   122 A                  
  3.206   3.217   3.245   3.251   3.261   3.269   3.280   3.288
123 A   122 B   124 A   123 B   125 A   126 A   124 B   127 A                  
  3.289   3.310   3.334   3.345   3.350   3.356   3.368   3.404
125 B   126 B   128 A   127 B   128 B   129 A   129 B   130 B                  
  3.406   3.432   3.433   3.449   3.456   3.459   3.471   3.480
130 A   131 A   131 B   132 A   133 A   132 B   134 A   133 B                  
  3.485   3.494   3.505   3.508   3.514   3.524   3.532   3.546
135 A   134 B   136 A   135 B   137 A   136 B   137 B   138 B                  
  3.548   3.570   3.579   3.593   3.600   3.620   3.636   3.658
138 A   139 A   140 A   139 B   141 A   140 B   142 A   141 B                  
  3.690   3.703   3.730   3.740   3.743   3.758   3.782   3.785
143 A   142 B   144 A   143 B   145 A   144 B   146 A   145 B                  
  3.820   3.849   3.866   3.887   3.888   3.913   3.914   3.922
147 A   146 B   147 B   148 A   148 B   149 B   149 A   150 A                  
  3.969   3.974   4.002   4.005   4.019   4.030   4.037   4.054
150 B   151 A   152 A   151 B   152 B   153 A   154 A   153 B                  
  4.064   4.116   4.117   4.140   4.161   4.165   4.180   4.184
154 B   155 A   155 B   156 A   156 B   157 A   157 B   158 A                  
  4.210   4.216   4.232   4.258   4.276   4.286   4.329   4.333
158 B   159 A   160 A   159 B   161 A   160 B   161 B   162 A                  
  4.339   4.375   4.392   4.404   4.435   4.468   4.522   4.531
162 B   163 A   164 A   163 B   164 B   165 A   165 B   166 A                  
  4.552   4.555   4.588   4.609   4.657   4.662   4.695   4.703
166 B   167 A   167 B   168 A   169 A   168 B   170 A   169 B                  
  4.712   4.744   4.759   4.765   4.785   4.823   4.845   4.891
170 B   171 A   171 B   172 B   172 A   173 A   173 B   174 B                  
  4.902   4.934   4.980   5.011   5.053   5.068   5.068   5.072
174 A   175 A   175 B   176 A   176 B   177 A   177 B   178 A                  
  5.090   5.099   5.188   5.239   5.244   5.294   5.308   5.378
178 B   179 A   179 B   180 B   180 A   181 B   181 A   182 A                  
  5.388   5.418   5.427   5.508   5.564   5.599   5.652   5.666
182 B   183 A   183 B   184 A   184 B   185 A   186 A   185 B                  
  5.796   5.895   5.941   6.033   6.091   6.131   6.183   6.203
186 B   187 A   187 B   188 A   188 B   189 A   189 B   190 A                  
  6.215   6.547   6.565   6.708   6.750   9.500  10.690  11.873
190 B   191 A   191 B   192 A   192 B   193 A   193 B   194 A                  
 12.191  13.518  13.581  14.610  14.622
194 B   195 A   195 B   196 A   196 B                                          
 --------------------------------------------------------------
 
          Ground-State Mulliken Net Atomic Charges

     Atom                 Charge (a.u.)
  ----------------------------------------
      1 S                     0.128119
      2 C                    -0.239071
      3 C                    -0.192257
      4 C                    -0.198804
      5 C                    -0.033825
      6 H                     0.177242
      7 C                    -0.033825
      8 S                     0.128119
      9 C                    -0.198804
     10 C                    -0.239071
     11 C                    -0.192257
     12 H                     0.174341
     13 H                     0.184254
     14 H                     0.174341
     15 H                     0.184254
     16 H                     0.177242
  ----------------------------------------
  Sum of atomic charges =     0.000000

 -----------------------------------------------------------------
                    Cartesian Multipole Moments
 -----------------------------------------------------------------
    Charge (ESU x 10^10)
                -0.0000
    Dipole Moment (Debye)
         X       0.0000      Y      -0.0000      Z      -0.4839
       Tot       0.4839
    Quadrupole Moments (Debye-Ang)
        XX     -61.3316     XY       0.6877     YY     -70.8570
        XZ       0.0000     YZ      -0.0000     ZZ     -74.7797
    Octopole Moments (Debye-Ang^2)
       XXX       0.0000    XXY      -0.0000    XYY       0.0000
       YYY      -0.0000    XXZ       4.3284    XYZ     -11.5277
       YYZ      -5.0258    XZZ       0.0000    YZZ      -0.0000
       ZZZ       5.0492
    Hexadecapole Moments (Debye-Ang^3)
      XXXX   -1840.2795   XXXY      -8.9828   XXYY    -406.6571
      XYYY      10.0518   YYYY    -434.4435   XXXZ      -0.0000
      XXYZ       0.0000   XYYZ       0.0000   YYYZ      -0.0000
      XXZZ    -407.1115   XYZZ       4.8130   YYZZ    -103.8479
      XZZZ       0.0000   YZZZ      -0.0000   ZZZZ    -245.7427
 -----------------------------------------------------------------
Archival summary:
1\1\nid01264\OPT\MP2\BasisUnspecified\286\MonMar616:56:452017MonMar616:56:452017\0\\#,OPT,MP2,BasisUnspecified,\\0,1\S\C,1,1.70448\H,2,1.07189,1,120.485\C,2,1.37373,1,111.413,3,179.978,0\H,4,1.07434,2,123.041,1,179.817,0\C,4,1.40415,2,112.567,1,0.394596,0\H,6,1.07508,4,124.755,2,178.996,0\C,6,1.37811,4,113.092,2,-0.53183,0\C,8,1.44575,6,128.677,4,177.246,0\C,9,1.37811,8,128.677,6,-110,0\H,10,1.07508,9,122.151,8,-2.29619,0\C,10,1.40415,9,113.092,8,177.246,0\H,12,1.07434,10,124.39,9,-179.945,0\C,12,1.37373,10,112.567,9,-0.53183,0\H,14,1.07189,12,128.103,10,-179.629,0\S,14,1.70448,12,111.413,10,0.394596,0\\HF=-1101.59723\MP2=-1103.41187\\@

 Total job time:  10583.27s(wall), 54444.39s(cpu) 
 Mon Mar  6 16:56:45 2017

        *************************************************************
        *                                                           *
        *  Thank you very much for using Q-Chem.  Have a nice day.  *
        *                                                           *
        *************************************************************


0 sent ACK to 0 
now end server 0 ... 
