srun -N 1 --ntasks-per-node 1 --cpus-per-task 64 --cpu_bind=cores --nodelist nid01260 /global/project/projectdirs/jcesr/qchem/qc44/cnl_qc441/dist/exe/qcprog.cori.haswell.exe .pt_mp2_-30.0.in.30439.qcin.1 /dev/shm/eg_qchem/qchem30439/
Process 0 of 1 is on nid01260 - thread support 0
initial socket setup ...start
initial socket setup ...done 
now start server 0 ... 
nid01260 10.128.4
Q-Chem Developer Version! Running on 10.128.4.*
                  Welcome to Q-Chem
     A Quantum Leap Into The Future Of Chemistry


 Q-Chem 4.4, Q-Chem, Inc., Pleasanton, CA (2016)

 Y. Shao,  Z. Gan,  E. Epifanovsky,  A. T. B. Gilbert,  M. Wormit,  
 J. Kussmann,  A. W. Lange,  A. Behn,  J. Deng,  X. Feng,  D. Ghosh,  
 M. Goldey,  P. R. Horn,  L. D. Jacobson,  I. Kaliman,  F.Rob,  
 R. Z. Khaliullin,  T. Kus,  A. Landau,  J. Liu,  E. I. Proynov,  Y. M. Rhee,  
 R. M. Richard,  M. A. Rohrdanz,  R. P. Steele,  E. J. Sundstrom,  
 H. L. Woodcock III,  P. M. Zimmerman,  D. Zuev,  B. Albrecht,  E. Alguire,  
 B. Austin,  S. A. Baeppler,  G. J. O. Beran,  Y. A. Bernard,  E. Berquist,  
 K. Brandhorst,  K. B. Bravaya,  S. T. Brown,  D. Casanova,  C.-M. Chang,  
 Y. Chen,  S. H. Chien,  K. D. Closser,  M. P. Coons,  D. L. Crittenden,  
 S. Dasgupta,  M. Diedenhofen,  R. A. DiStasio Jr.,  H. Do,  A. D. Dutoi,  
 R. G. Edgar,  P.-T. Fang,  S. Fatehi,  Q. Feng,  L. Fusti-Molnar,  
 A. Ghysels,  A. Golubeva-Zadorozhnaya,  J. Gomes,  A. Gunina,  
 M. W. D. Hanson-Heine,  P. H. P. Harbach,  A. W. Hauser,  E. G. Hohenstein,  
 Z. C. Holden,  K. Hui,  T.-C. Jagau,  H. Ji,  B. Kaduk,  K. Khistyaev,  
 Jaehoon Kim,  Jihan Kim,  R. A. King,  P. Klunzinger,  D. Kosenkov,  
 T. Kowalczyk,  C. M. Krauter,  A. Kunitsa,  K. U. Lao,  A. Laurent,  
 K. V. Lawler,  D. Lefrancois,  S. Lehtola,  S. V. Levchenko,  C. Y. Lin,  
 Y.-S. Lin,  F. Liu,  E. Livshits,  R. C. Lochan,  A. Luenser,  P. Manohar,  
 S. F. Manzer,  S.-P. Mao,  Y. Mao,  N. Mardirossian,  A. V. Marenich,  
 L. A. Martinez-Martinez,  S. A. Maurer,  N. J. Mayhall,  J.-M. Mewes,  
 A. F. Morrison,  K. Nanda,  C. M. Oana,  R. Olivares-Amaya,  D. P. O'Neill,  
 J. A. Parkhill,  T. M. Perrine,  R. Peverati,  P. A. Pieniazek,  F. Plasser,  
 A. Prociuk,  D. R. Rehn,  E. Rosta,  N. J. Russ,  N. Sergueev,  
 S. M. Sharada,  S. Sharma,  D. W. Small,  A. Sodt,  T. Stauch,  T. Stein,  
 D. Stuck,  Y.-C. Su,  A. J. W. Thom,  T. Tsuchimochi,  L. Vogt,  O. Vydrov,  
 T. Wang,  M. A. Watson,  J. Wenzel,  A. White,  C. F. Williams,  
 V. Vanovschi,  S. Yeganeh,  S. R. Yost,  Z.-Q. You,  I. Y. Zhang,  X. Zhang,  
 Y. Zhao,  B. R. Brooks,  G. K. L. Chan,  D. M. Chipman,  C. J. Cramer,  
 W. A. Goddard III,  M. S. Gordon,  W. J. Hehre,  A. Klamt,  
 H. F. Schaefer III,  M. W. Schmidt,  C. D. Sherrill,  D. G. Truhlar,  
 A. Warshel,  X. Xu,  A. Aspuru-Guzik,  R. Baer,  A. T. Bell,  N. A. Besley,  
 J.-D. Chai,  A. Dreuw,  B. D. Dunietz,  T. R. Furlani,  S. R. Gwaltney,  
 C.-P. Hsu,  Y. Jung,  J. Kong,  D. S. Lambrecht,  W. Liang,  C. Ochsenfeld,  
 V. A. Rassolov,  L. V. Slipchenko,  J. E. Subotnik,  T. Van Voorhis,  
 J. M. Herbert,  A. I. Krylov,  P. M. W. Gill,  M. Head-Gordon

 Contributors to earlier versions of Q-Chem not listed above: 
 R. D. Adamson,  J. Baker,  E. F. C. Byrd,  A. K. Chakraborty,  C.-L. Cheng,  
 H. Dachsel,  R. J. Doerksen,  G. Hawkins,  A. Heyden,  S. Hirata,  
 G. Kedziora,  F. J. Keil,  C. Kelley,  P. P. Korambath,  W. Kurlancheek,  
 A. M. Lee,  M. S. Lee,  D. Liotard,  I. Lotan,  P. E. Maslen,  N. Nair,  
 D. Neuhauser,  R. Olson,  B. Peters,  J. Ritchie,  N. E. Schultz,  
 N. Shenvi,  A. C. Simmonett,  K. S. Thanthiriwatte,  Q. Wu,  W. Zhang

 Please cite Q-Chem as follows:
 Y. Shao et al., Mol. Phys. 113, 184-215 (2015)
 DOI: 10.1080/00268976.2014.952696

 Q-Chem 4.4.1 for Intel X86 EM64T Linux

 Parts of Q-Chem use Armadillo 5.200.1 (Boston Tea Smuggler).
 http://arma.sourceforge.net/

 Q-Chem begins on Mon Mar  6 14:00:24 2017  

Host: nid01196
0

     Scratch files written to /dev/shm/eg_qchem/qchem30439//
 Parallel job on  1  processors

Checking the input file for inconsistencies... 	...done.

--------------------------------------------------------------
User input:
--------------------------------------------------------------
$molecule
 0  1
 S           1.80900300       -1.15938900        0.25896800
 C           3.16466000       -0.14246800        0.05606700
 C           2.78757500        1.14089100       -0.25226100
 C           1.39402000        1.28822000       -0.33563400
 C           0.70898100        0.11689900       -0.08798100
 H           0.89277600        2.20524100       -0.58940400
 C          -0.70898100       -0.11689900       -0.08798100
 S          -1.34469520       -1.65659241       -0.51756770
 C          -1.73118138        0.75663081        0.21968012
 C          -2.95293942       -1.14159661       -0.26971112
 C          -3.00455818        0.17509079        0.11491776
 H          -3.92483314        0.69016478        0.31974766
 H           4.15569300       -0.53353100        0.17259300
 H           3.49202900        1.93475000       -0.41867900
 H          -3.76721306       -1.82256185       -0.41769682
 H          -1.54821139        1.76991055        0.53009667
$end


$rem
         jobtype = opt
        exchange = hf
           basis = cc-pvtz
  max_scf_cycles = 100
      mem_static = 6200
       mem_total = 62000
          method = mp2
$end


$opt
CONSTRAINT
tors 4 5 7 9 -30.0
ENDCONSTRAINT
$end

--------------------------------------------------------------
 Atom  11: ( -2.9288273341,  0.2758073565, -1.0014100063)
         ->( -2.9288273394,  0.2758073536, -1.0014100033)
 Atom   9: ( -1.5755165108,  0.3274276144, -1.3709199335)
         ->( -1.5755165149,  0.3274276177, -1.3709199356)
 Atom  16: ( -1.2214423152,  0.5986502436, -2.3495117956)
         ->( -1.2214423204,  0.5986502391, -2.3495117960)
 Atom  15: ( -4.0208264141, -0.1690435348,  0.8601975036)
         ->( -4.0208264116, -0.1690435397,  0.8601975081)
 ----------------------------------------------------------------
             Standard Nuclear Orientation (Angstroms)
    I     Atom           X                Y                Z
 ----------------------------------------------------------------
    1      S       1.6077003355     0.3380938333     1.0933441829
    2      C       3.1029116392     0.0655161405     0.3167184065
    3      C       2.9288273394    -0.2758073536    -1.0014100033
    4      C       1.5755165149    -0.3274276177    -1.3709199356
    5      C       0.7181990842    -0.0225723341    -0.3342553785
    6      H       1.2214423204    -0.5986502391    -2.3495117960
    7      C      -0.7181990838     0.0225723355    -0.3342553788
    8      S      -1.6077003393    -0.3380938338     1.0933441814
    9      C      -1.5755165149     0.3274276177    -1.3709199356
   10      C      -3.1029116396    -0.0655161412     0.3167184038
   11      C      -2.9288273394     0.2758073536    -1.0014100033
   12      H      -3.7468062920     0.4873091193    -1.6649911496
   13      H       4.0208264116     0.1690435397     0.8601975081
   14      H       3.7468062941    -0.4873091209    -1.6649911459
   15      H      -4.0208264116    -0.1690435397     0.8601975081
   16      H      -1.2214423204     0.5986502391    -2.3495117960
 ----------------------------------------------------------------
 Molecular Point Group                 C2    NOp =  2
 Largest Abelian Subgroup              C2    NOp =  2
 Nuclear Repulsion Energy =   639.8553791050 hartrees
 There are       43 alpha and       43 beta electrons
 Requested basis set is cc-pVTZ
 There are 140 shells and 392 basis functions

 Total QAlloc Memory Limit  62000 MB
 Mega-Array Size      6061 MB
 MEM_STATIC part      6200 MB
 A cutoff of  1.0D-11 yielded   8031 shell pairs
 There are     62395 function pairs (     81343 Cartesian)
 
 -------------------------------------------------------
 OpenMP Integral Computing Module                       
 Release: version 1.0, May 2013, Q-Chem Inc. Pittsburgh 
 -------------------------------------------------------
 Integral Job Info:
 Integral job number is                      11
 Integral operator is                         1
 short-range coefficients                     0
 long-range coefficients              100000000
 Omega coefficients                           0
 if combine SR and LR in K                    0
 Integral screening is                        0
 Integral computing path is                   2
 max size of driver memory is            800000
 size of driver memory is                776718
 size of scratch memory is             26248924
 max col of scratch BK array              10000
 max len of scratch array in speh3          662
 max len of scratch index in speh4           32
 max int batch size is                      520
 min int batch size is                       52
 fixed nKL is                                52
 max L of basis functions is                  3
 order of int derivative is                   0
 number of shells is                        140
 number of basis is                         448
 number of cartesian basis is               448
 number of contracted shell pairs          8031
 number of primitive shell pairs          28545
 maxK2 (contraction) of shell pair          121
 max number of K2 of shell pair               1
 max number of CS2 of shell pair           1052
 max number of PS2 of shell pair           3122
 mem total for path MDJ                  223748
 -------------------------------------------------------
 Smallest overlap matrix eigenvalue = 6.87E-05

 Scale SEOQF with 1.000000e-01/1.000000e+00/1.000000e-01

 Standard Electronic Orientation quadrupole field applied
 Nucleus-field energy     =     0.0000000094 hartrees
 Guess from superposition of atomic densities
 Warning:  Energy on first SCF cycle will be non-variational
 A restricted Hartree-Fock SCF calculation will be
 performed using Pulay DIIS extrapolation
 SCF converges when DIIS error is below 1.0E-08
 using 16 threads for integral computing 
 ---------------------------------------
  Cycle       Energy         DIIS Error
 ---------------------------------------
    1   -1106.0053613766      2.98E-02
    2   -1094.2432509975      1.60E-02
    3   -1099.2481007686      5.47E-03
    4   -1101.5255060404      1.66E-03
    5   -1101.5784400391      8.75E-04
    6   -1101.5956385040      1.93E-04
    7   -1101.5971760862      9.99E-05
    8   -1101.5976058555      3.03E-05
    9   -1101.5976656905      1.06E-05
   10   -1101.5976725501      5.21E-06
   11   -1101.5976739864      1.66E-06
   12   -1101.5976742698      5.68E-07
   13   -1101.5976743066      2.21E-07
   14   -1101.5976743109      5.69E-08
   15   -1101.5976743104      1.96E-08
   16   -1101.5976743098      6.95E-09 Convergence criterion met
 ---------------------------------------
 SCF time:  CPU 655.54 s  wall 41.03 s
 SCF   energy in the final basis set = -1101.5976743098
 Total energy in the final basis set = -1101.5976743098
 
 Components of the MP2 correlation energy:
        aaaa  correlation energy =        -0.2324989179 au
        abab  correlation energy =        -1.3507204114 au
        bbbb  correlation energy =        -0.2324989179 au
        non-Brillouin singles    =        -0.0000000000 au

 Total  MP2   correlation energy =        -1.8157182471 au
        MP2         total energy =     -1103.4133925569 au

  Entering Z-vector solver.
   1         0           1      0.000267    0.000267
   2         0           1      0.000119    0.000119
   3         0           1      0.000049    0.000049
   4         0           1      0.000023    0.000023
   5         0           1      0.000007    0.000007
   6         0           1      0.000002    0.000002
   7         1           0      0.000000    0.000000    Roots Converged
 
 --------------------------------------------------------------
             Orbital Energies (a.u.) and Symmetries
 --------------------------------------------------------------
 Warning : Irrep of orbital(   1) could not be determined
 Warning : Irrep of orbital(   2) could not be determined
 
 Alpha MOs, Restricted
 -- Occupied --                  
-91.984 -91.984 -11.275 -11.274 -11.261 -11.261 -11.238 -11.238
  0 xxx   0 xxx   1 A     1 B     2 B     2 A     3 B     3 A                  
-11.237 -11.237  -8.986  -8.986  -6.667  -6.667  -6.666  -6.666
  4 B     4 A     5 B     5 A     6 B     6 A     7 A     7 B                  
 -6.666  -6.666  -1.197  -1.166  -1.036  -0.999  -0.985  -0.948
  8 A     8 B     9 A     9 B    10 A    11 A    10 B    11 B                  
 -0.809  -0.778  -0.749  -0.717  -0.707  -0.644  -0.573  -0.571
 12 A    13 A    12 B    13 B    14 A    14 B    15 A    16 A                  
 -0.562  -0.554  -0.541  -0.512  -0.511  -0.487  -0.466  -0.370
 15 B    16 B    17 A    18 A    17 B    19 A    18 B    19 B                  
 -0.353  -0.348  -0.282
 20 B    20 A    21 A                                                          
 -- Virtual --                   
  0.076   0.139   0.148   0.153   0.160   0.175   0.175   0.185
 21 B    22 A    23 A    22 B    24 A    25 A    23 B    24 B                  
  0.200   0.214   0.214   0.237   0.247   0.279   0.311   0.349
 26 A    27 A    25 B    28 A    26 B    27 B    29 A    28 B                  
  0.356   0.363   0.365   0.374   0.389   0.398   0.420   0.431
 30 A    29 B    31 A    32 A    30 B    31 B    32 B    33 A                  
  0.451   0.451   0.461   0.463   0.480   0.483   0.512   0.519
 33 B    34 A    35 A    34 B    36 A    35 B    36 B    37 A                  
  0.528   0.536   0.542   0.545   0.550   0.557   0.561   0.563
 38 A    37 B    39 A    38 B    40 A    39 B    41 A    40 B                  
  0.580   0.592   0.595   0.598   0.608   0.612   0.618   0.620
 41 B    42 A    43 A    42 B    43 B    44 A    45 A    44 B                  
  0.629   0.639   0.658   0.669   0.671   0.698   0.731   0.739
 46 A    45 B    47 A    46 B    48 A    47 B    49 A    50 A                  
  0.739   0.752   0.780   0.785   0.804   0.816   0.839   0.849
 48 B    49 B    51 A    50 B    51 B    52 A    53 A    52 B                  
  0.862   0.881   0.886   0.897   0.914   0.921   0.950   0.952
 54 A    53 B    55 A    54 B    56 A    55 B    57 A    56 B                  
  0.971   0.991   0.997   1.016   1.041   1.057   1.061   1.083
 57 B    58 A    58 B    59 A    59 B    60 B    60 A    61 B                  
  1.083   1.096   1.103   1.111   1.143   1.164   1.168   1.169
 61 A    62 A    63 A    62 B    63 B    64 A    64 B    65 A                  
  1.196   1.203   1.210   1.224   1.241   1.259   1.262   1.278
 65 B    66 A    66 B    67 A    67 B    68 A    68 B    69 B                  
  1.292   1.313   1.315   1.345   1.387   1.387   1.405   1.428
 69 A    70 B    70 A    71 A    71 B    72 A    72 B    73 A                  
  1.458   1.469   1.476   1.481   1.499   1.503   1.515   1.528
 73 B    74 A    75 A    74 B    75 B    76 A    77 A    76 B                  
  1.546   1.551   1.567   1.585   1.603   1.607   1.642   1.645
 77 B    78 A    78 B    79 A    79 B    80 A    81 A    80 B                  
  1.663   1.672   1.714   1.726   1.739   1.764   1.788   1.818
 81 B    82 A    82 B    83 A    83 B    84 A    84 B    85 A                  
  1.829   1.868   1.870   1.891   1.893   1.935   1.941   1.959
 85 B    86 B    86 A    87 B    87 A    88 A    88 B    89 B                  
  1.963   1.970   2.051   2.073   2.087   2.116   2.123   2.159
 89 A    90 A    90 B    91 A    91 B    92 A    92 B    93 A                  
  2.170   2.193   2.201   2.207   2.229   2.239   2.256   2.271
 93 B    94 B    94 A    95 A    95 B    96 A    96 B    97 B                  
  2.278   2.300   2.313   2.399   2.433   2.442   2.449   2.471
 97 A    98 A    98 B    99 A    99 B   100 A   100 B   101 B                  
  2.486   2.491   2.510   2.522   2.552   2.564   2.574   2.606
101 A   102 A   102 B   103 A   104 A   103 B   104 B   105 A                  
  2.636   2.646   2.664   2.678   2.731   2.732   2.762   2.763
105 B   106 B   106 A   107 A   107 B   108 A   109 A   108 B                  
  2.765   2.772   2.781   2.797   2.822   2.855   2.896   2.899
110 A   109 B   110 B   111 A   111 B   112 A   112 B   113 A                  
  2.900   2.919   2.956   2.960   2.998   3.006   3.015   3.016
113 B   114 A   115 A   114 B   115 B   116 A   116 B   117 A                  
  3.034   3.043   3.085   3.109   3.152   3.154   3.170   3.184
117 B   118 A   118 B   119 A   119 B   120 A   120 B   121 A                  
  3.206   3.220   3.232   3.243   3.258   3.259   3.264   3.295
121 B   122 B   122 A   123 B   124 B   123 A   124 A   125 A                  
  3.305   3.310   3.319   3.321   3.339   3.358   3.384   3.394
126 A   125 B   127 A   126 B   128 A   127 B   128 B   129 A                  
  3.414   3.419   3.423   3.441   3.451   3.456   3.470   3.472
130 A   131 A   129 B   132 A   130 B   133 A   134 A   131 B                  
  3.489   3.496   3.506   3.510   3.513   3.513   3.523   3.539
132 B   133 B   135 A   134 B   136 A   135 B   137 A   136 B                  
  3.549   3.571   3.576   3.595   3.623   3.624   3.637   3.671
137 B   138 A   138 B   139 A   139 B   140 A   140 B   141 A                  
  3.681   3.689   3.704   3.727   3.734   3.743   3.774   3.782
141 B   142 B   142 A   143 B   143 A   144 A   144 B   145 A                  
  3.815   3.827   3.877   3.890   3.916   3.925   3.926   3.946
146 A   145 B   146 B   147 A   147 B   148 B   148 A   149 B                  
  3.954   3.992   3.995   4.008   4.011   4.020   4.038   4.044
149 A   150 A   150 B   151 A   151 B   152 A   152 B   153 A                  
  4.097   4.108   4.133   4.141   4.173   4.176   4.187   4.193
154 A   153 B   154 B   155 A   155 B   156 A   157 A   156 B                  
  4.198   4.205   4.209   4.236   4.273   4.281   4.292   4.312
158 A   157 B   159 A   158 B   160 A   159 B   160 B   161 A                  
  4.349   4.365   4.412   4.443   4.464   4.475   4.496   4.497
161 B   162 A   162 B   163 A   164 A   163 B   165 A   164 B                  
  4.512   4.591   4.624   4.634   4.643   4.656   4.691   4.702
166 A   165 B   167 A   166 B   168 A   167 B   169 A   170 A                  
  4.702   4.707   4.760   4.763   4.808   4.810   4.841   4.862
168 B   169 B   170 B   171 A   172 A   171 B   173 A   172 B                  
  4.885   4.982   4.996   5.024   5.049   5.067   5.072   5.083
174 A   173 B   174 B   175 A   176 A   177 A   175 B   178 A                  
  5.098   5.125   5.197   5.220   5.255   5.288   5.345   5.348
176 B   177 B   179 A   178 B   179 B   180 A   180 B   181 A                  
  5.392   5.409   5.435   5.453   5.586   5.605   5.637   5.685
182 A   181 B   182 B   183 A   184 A   183 B   184 B   185 A                  
  5.813   5.861   5.993   6.057   6.100   6.134   6.157   6.215
186 A   185 B   187 A   186 B   188 A   187 B   189 A   188 B                  
  6.382   6.536   6.586   6.676   6.833   9.439  10.881  11.774
189 B   190 A   190 B   191 A   191 B   192 A   192 B   193 A                  
 12.339  13.321  13.850  14.444  15.005
193 B   194 A   194 B   195 A   195 B                                          
 
 Beta MOs, Restricted
 -- Occupied --                  
-91.984 -91.984 -11.275 -11.274 -11.261 -11.261 -11.238 -11.238
  0 xxx   0 xxx   1 A     1 B     2 B     2 A     3 B     3 A                  
-11.237 -11.237  -8.986  -8.986  -6.667  -6.667  -6.666  -6.666
  4 B     4 A     5 B     5 A     6 B     6 A     7 A     7 B                  
 -6.666  -6.666  -1.197  -1.166  -1.036  -0.999  -0.985  -0.948
  8 A     8 B     9 A     9 B    10 A    11 A    10 B    11 B                  
 -0.809  -0.778  -0.749  -0.717  -0.707  -0.644  -0.573  -0.571
 12 A    13 A    12 B    13 B    14 A    14 B    15 A    16 A                  
 -0.562  -0.554  -0.541  -0.512  -0.511  -0.487  -0.466  -0.370
 15 B    16 B    17 A    18 A    17 B    19 A    18 B    19 B                  
 -0.353  -0.348  -0.282
 20 B    20 A    21 A                                                          
 -- Virtual --                   
  0.076   0.139   0.148   0.153   0.160   0.175   0.175   0.185
 21 B    22 A    23 A    22 B    24 A    25 A    23 B    24 B                  
  0.200   0.214   0.214   0.237   0.247   0.279   0.311   0.349
 26 A    27 A    25 B    28 A    26 B    27 B    29 A    28 B                  
  0.356   0.363   0.365   0.374   0.389   0.398   0.420   0.431
 30 A    29 B    31 A    32 A    30 B    31 B    32 B    33 A                  
  0.451   0.451   0.461   0.463   0.480   0.483   0.512   0.519
 33 B    34 A    35 A    34 B    36 A    35 B    36 B    37 A                  
  0.528   0.536   0.542   0.545   0.550   0.557   0.561   0.563
 38 A    37 B    39 A    38 B    40 A    39 B    41 A    40 B                  
  0.580   0.592   0.595   0.598   0.608   0.612   0.618   0.620
 41 B    42 A    43 A    42 B    43 B    44 A    45 A    44 B                  
  0.629   0.639   0.658   0.669   0.671   0.698   0.731   0.739
 46 A    45 B    47 A    46 B    48 A    47 B    49 A    50 A                  
  0.739   0.752   0.780   0.785   0.804   0.816   0.839   0.849
 48 B    49 B    51 A    50 B    51 B    52 A    53 A    52 B                  
  0.862   0.881   0.886   0.897   0.914   0.921   0.950   0.952
 54 A    53 B    55 A    54 B    56 A    55 B    57 A    56 B                  
  0.971   0.991   0.997   1.016   1.041   1.057   1.061   1.083
 57 B    58 A    58 B    59 A    59 B    60 B    60 A    61 B                  
  1.083   1.096   1.103   1.111   1.143   1.164   1.168   1.169
 61 A    62 A    63 A    62 B    63 B    64 A    64 B    65 A                  
  1.196   1.203   1.210   1.224   1.241   1.259   1.262   1.278
 65 B    66 A    66 B    67 A    67 B    68 A    68 B    69 B                  
  1.292   1.313   1.315   1.345   1.387   1.387   1.405   1.428
 69 A    70 B    70 A    71 A    71 B    72 A    72 B    73 A                  
  1.458   1.469   1.476   1.481   1.499   1.503   1.515   1.528
 73 B    74 A    75 A    74 B    75 B    76 A    77 A    76 B                  
  1.546   1.551   1.567   1.585   1.603   1.607   1.642   1.645
 77 B    78 A    78 B    79 A    79 B    80 A    81 A    80 B                  
  1.663   1.672   1.714   1.726   1.739   1.764   1.788   1.818
 81 B    82 A    82 B    83 A    83 B    84 A    84 B    85 A                  
  1.829   1.868   1.870   1.891   1.893   1.935   1.941   1.959
 85 B    86 B    86 A    87 B    87 A    88 A    88 B    89 B                  
  1.963   1.970   2.051   2.073   2.087   2.116   2.123   2.159
 89 A    90 A    90 B    91 A    91 B    92 A    92 B    93 A                  
  2.170   2.193   2.201   2.207   2.229   2.239   2.256   2.271
 93 B    94 B    94 A    95 A    95 B    96 A    96 B    97 B                  
  2.278   2.300   2.313   2.399   2.433   2.442   2.449   2.471
 97 A    98 A    98 B    99 A    99 B   100 A   100 B   101 B                  
  2.486   2.491   2.510   2.522   2.552   2.564   2.574   2.606
101 A   102 A   102 B   103 A   104 A   103 B   104 B   105 A                  
  2.636   2.646   2.664   2.678   2.731   2.732   2.762   2.763
105 B   106 B   106 A   107 A   107 B   108 A   109 A   108 B                  
  2.765   2.772   2.781   2.797   2.822   2.855   2.896   2.899
110 A   109 B   110 B   111 A   111 B   112 A   112 B   113 A                  
  2.900   2.919   2.956   2.960   2.998   3.006   3.015   3.016
113 B   114 A   115 A   114 B   115 B   116 A   116 B   117 A                  
  3.034   3.043   3.085   3.109   3.152   3.154   3.170   3.184
117 B   118 A   118 B   119 A   119 B   120 A   120 B   121 A                  
  3.206   3.220   3.232   3.243   3.258   3.259   3.264   3.295
121 B   122 B   122 A   123 B   124 B   123 A   124 A   125 A                  
  3.305   3.310   3.319   3.321   3.339   3.358   3.384   3.394
126 A   125 B   127 A   126 B   128 A   127 B   128 B   129 A                  
  3.414   3.419   3.423   3.441   3.451   3.456   3.470   3.472
130 A   131 A   129 B   132 A   130 B   133 A   134 A   131 B                  
  3.489   3.496   3.506   3.510   3.513   3.513   3.523   3.539
132 B   133 B   135 A   134 B   136 A   135 B   137 A   136 B                  
  3.549   3.571   3.576   3.595   3.623   3.624   3.637   3.671
137 B   138 A   138 B   139 A   139 B   140 A   140 B   141 A                  
  3.681   3.689   3.704   3.727   3.734   3.743   3.774   3.782
141 B   142 B   142 A   143 B   143 A   144 A   144 B   145 A                  
  3.815   3.827   3.877   3.890   3.916   3.925   3.926   3.946
146 A   145 B   146 B   147 A   147 B   148 B   148 A   149 B                  
  3.954   3.992   3.995   4.008   4.011   4.020   4.038   4.044
149 A   150 A   150 B   151 A   151 B   152 A   152 B   153 A                  
  4.097   4.108   4.133   4.141   4.173   4.176   4.187   4.193
154 A   153 B   154 B   155 A   155 B   156 A   157 A   156 B                  
  4.198   4.205   4.209   4.236   4.273   4.281   4.292   4.312
158 A   157 B   159 A   158 B   160 A   159 B   160 B   161 A                  
  4.349   4.365   4.412   4.443   4.464   4.475   4.496   4.497
161 B   162 A   162 B   163 A   164 A   163 B   165 A   164 B                  
  4.512   4.591   4.624   4.634   4.643   4.656   4.691   4.702
166 A   165 B   167 A   166 B   168 A   167 B   169 A   170 A                  
  4.702   4.707   4.760   4.763   4.808   4.810   4.841   4.862
168 B   169 B   170 B   171 A   172 A   171 B   173 A   172 B                  
  4.885   4.982   4.996   5.024   5.049   5.067   5.072   5.083
174 A   173 B   174 B   175 A   176 A   177 A   175 B   178 A                  
  5.098   5.125   5.197   5.220   5.255   5.288   5.345   5.348
176 B   177 B   179 A   178 B   179 B   180 A   180 B   181 A                  
  5.392   5.409   5.435   5.453   5.586   5.605   5.637   5.685
182 A   181 B   182 B   183 A   184 A   183 B   184 B   185 A                  
  5.813   5.861   5.993   6.057   6.100   6.134   6.157   6.215
186 A   185 B   187 A   186 B   188 A   187 B   189 A   188 B                  
  6.382   6.536   6.586   6.676   6.833   9.439  10.881  11.774
189 B   190 A   190 B   191 A   191 B   192 A   192 B   193 A                  
 12.339  13.321  13.850  14.444  15.005
193 B   194 A   194 B   195 A   195 B                                          
 --------------------------------------------------------------
 
          Ground-State Mulliken Net Atomic Charges

     Atom                 Charge (a.u.)
  ----------------------------------------
      1 S                     0.109940
      2 C                    -0.238287
      3 C                    -0.198785
      4 C                    -0.192315
      5 C                    -0.008675
      6 H                     0.169132
      7 C                    -0.008676
      8 S                     0.109940
      9 C                    -0.192314
     10 C                    -0.238287
     11 C                    -0.198786
     12 H                     0.174029
     13 H                     0.184961
     14 H                     0.174029
     15 H                     0.184961
     16 H                     0.169132
  ----------------------------------------
  Sum of atomic charges =     0.000000

 -----------------------------------------------------------------
                    Cartesian Multipole Moments
 -----------------------------------------------------------------
    Charge (ESU x 10^10)
                -0.0000
    Dipole Moment (Debye)
         X       0.0000      Y       0.0000      Z      -0.6823
       Tot       0.6823
    Quadrupole Moments (Debye-Ang)
        XX     -61.1060     XY      -0.5868     YY     -77.3446
        XZ       0.0000     YZ      -0.0000     ZZ     -68.1031
    Octopole Moments (Debye-Ang^2)
       XXX       0.0000    XXY       0.0000    XYY       0.0000
       YYY       0.0000    XXZ       5.9485    XYZ       6.9107
       YYZ       2.7082    XZZ      -0.0000    YZZ       0.0000
       ZZZ      -5.2675
    Hexadecapole Moments (Debye-Ang^3)
      XXXX   -1817.2387   XXXY      -3.2377   XXYY    -402.1696
      XYYY       5.1282   YYYY    -131.9541   XXXZ      -0.0000
      XXYZ      -0.0000   XYYZ       0.0000   YYYZ      -0.0000
      XXZZ    -393.9897   XYZZ      -6.6538   YYZZ    -114.6923
      XZZZ       0.0000   YZZZ      -0.0000   ZZZZ    -515.4936
 -----------------------------------------------------------------
 DrvMan is completing analytic gradient of the MP2 energy
 MP2 relaxed dipole moment
            1
    1   0.0000000
    2   0.0000000
    3  -0.2684540
	Magnitude:	 0.268 au	 0.682 Debye
 MP2 energy read as -1103.413393
 Full Analytical Gradient of MP2 Energy (in au.)
             1             2             3             4             5
    1   -0.00132124   -0.00013520    0.00030609    0.00090489   -0.00097688
    2    0.00014459   -0.00008855   -0.00044043    0.00016718    0.00001297
    3    0.00034086   -0.00058288    0.00002555    0.00066912   -0.00031463
             6             7             8             9            10
    1    0.00006167    0.00097688    0.00132124   -0.00090489    0.00013520
    2    0.00021118   -0.00001297   -0.00014459   -0.00016718    0.00008855
    3   -0.00021265   -0.00031463    0.00034086    0.00066912   -0.00058289
            11            12            13            14            15
    1   -0.00030609   -0.00002125   -0.00001559    0.00002125    0.00001559
    2    0.00044043   -0.00000902   -0.00002619    0.00000902    0.00002619
    3    0.00002556    0.00003194    0.00004269    0.00003194    0.00004270
            16
    1   -0.00006167
    2   -0.00021118
    3   -0.00021265
 Gradient time:  CPU 1.56 s  wall 0.10 s
 Geometry Optimization Parameters
   NAtoms,    NIC,     NZ,  NCons,   NDum,   NFix, NCnnct, MaxDiis
       16     111       0       1       0       0       0       0


** CONSTRAINED OPTIMIZATION IN DELOCALIZED INTERNAL COORDINATES **
   Searching for a Minimum

   Optimization Cycle:   1

                       Coordinates (Angstroms)
     ATOM                X               Y               Z
      1  S         1.6077003374    0.3380938335    1.0933441822
      2  C         3.1029116394    0.0655161409    0.3167184052
      3  C         2.9288273394   -0.2758073536   -1.0014100033
      4  C         1.5755165149   -0.3274276177   -1.3709199356
      5  C         0.7181990840   -0.0225723348   -0.3342553786
      6  H         1.2214423204   -0.5986502391   -2.3495117960
      7  C        -0.7181990840    0.0225723348   -0.3342553786
      8  S        -1.6077003374   -0.3380938335    1.0933441822
      9  C        -1.5755165149    0.3274276177   -1.3709199356
     10  C        -3.1029116394   -0.0655161409    0.3167184052
     11  C        -2.9288273394    0.2758073536   -1.0014100033
     12  H        -3.7468062931    0.4873091201   -1.6649911477
     13  H         4.0208264116    0.1690435397    0.8601975081
     14  H         3.7468062931   -0.4873091201   -1.6649911477
     15  H        -4.0208264116   -0.1690435397    0.8601975081
     16  H        -1.2214423204    0.5986502391   -2.3495117960
   Point Group: c2    Number of degrees of freedom:    22


   Energy is  -1103.413392557

              Constraints and their Current Values
                                        Value     Constraint
   Dihedral:        4   5   7   9      -30.000      -30.000

 Attempting to Generate Delocalized Internal Coordinates

 21 Hessian modes will be used to form the next step
  Hessian Eigenvalues:
     0.045000    0.045000    0.045000    0.045002    0.045003    0.045012
     0.159945    0.159993    0.160000    0.221308    0.238060    0.249999
     0.326324    0.340049    0.365509    0.366895    0.370094    0.399848
     0.435412    0.463135    0.495504

 Minimum Search - Taking Simple RFO Step
 Searching for Lamda that Minimizes Along All modes
 Value Taken    Lamda =  -0.00014732
 Step Taken.  Stepsize is  0.030722

                             Maximum     Tolerance    Cnvgd?
         Gradient           0.005056      0.000300      NO
         Displacement       0.022082      0.001200      NO
         Energy change     *********      0.000001      NO


 New Cartesian Coordinates Obtained by Inverse Iteration

 Displacement from previous Coordinates is:  0.149095
 ----------------------------------------------------------------
             Standard Nuclear Orientation (Angstroms)
    I     Atom           X                Y                Z
 ----------------------------------------------------------------
    1      S       1.6256932882     0.3394938743     1.1011356588
    2      C       3.1120818825     0.0689249577     0.3081362943
    3      C       2.9218858914    -0.2741340595    -1.0075788078
    4      C       1.5644574187    -0.3304005804    -1.3612429188
    5      C       0.7189465488    -0.0230849046    -0.3161845002
    6      H       1.1990711010    -0.6050890174    -2.3345046151
    7      C      -0.7189465488     0.0230849046    -0.3161845002
    8      S      -1.6256932882    -0.3394938743     1.1011356588
    9      C      -1.5644574187     0.3304005804    -1.3612429188
   10      C      -3.1120818825    -0.0689249577     0.3081362943
   11      C      -2.9218858914     0.2741340595    -1.0075788078
   12      H      -3.7320474122     0.4854788202    -1.6807436280
   13      H       4.0363938027     0.1749506879     0.8401543510
   14      H       3.7320474122    -0.4854788202    -1.6807436280
   15      H      -4.0363938027    -0.1749506879     0.8401543510
   16      H      -1.1990711010     0.6050890174    -2.3345046151
 ----------------------------------------------------------------
 Molecular Point Group                 C2    NOp =  2
 Largest Abelian Subgroup              C2    NOp =  2
 Nuclear Repulsion Energy =   639.1699840002 hartrees
 There are       43 alpha and       43 beta electrons
 Applying Cartesian multipole field
    Component          Value
    ---------          -----
     (2,0,0)        1.00000E-11
     (0,2,0)        2.00000E-10
     (0,0,2)       -3.00000E-11
 Nucleus-field energy     =     0.0000000095 hartrees
 Requested basis set is cc-pVTZ
 There are 140 shells and 392 basis functions
 A cutoff of  1.0D-11 yielded   8040 shell pairs
 There are     62420 function pairs (     81368 Cartesian)
 Smallest overlap matrix eigenvalue = 6.97E-05
 Guess MOs from SCF MO coefficient file
 Reading MOs from coefficient file
 Reading MOs from coefficient file
 A restricted Hartree-Fock SCF calculation will be
 performed using Pulay DIIS extrapolation
 SCF converges when DIIS error is below 1.0E-08
 Geometry optimization detected.  Setting ReadMinima to 0
 Setting SaveMinima to 0
 using 16 threads for integral computing 
 ---------------------------------------
  Cycle       Energy         DIIS Error
 ---------------------------------------
    1   -1101.5938649959      2.30E-04
    2   -1101.5980544774      3.33E-05
    3   -1101.5980891230      1.37E-05
    4   -1101.5980937258      7.23E-06
    5   -1101.5980952833      1.44E-06
    6   -1101.5980953698      7.95E-07
    7   -1101.5980953940      2.03E-07
    8   -1101.5980953962      7.34E-08
    9   -1101.5980953965      2.68E-08
   10   -1101.5980953964      9.55E-09 Convergence criterion met
 ---------------------------------------
 SCF time:  CPU 664.91 s  wall 41.59 s
 SCF   energy in the final basis set = -1101.5980953964
 Total energy in the final basis set = -1101.5980953964
 
 Components of the MP2 correlation energy:
        aaaa  correlation energy =        -0.2324368154 au
        abab  correlation energy =        -1.3505765843 au
        bbbb  correlation energy =        -0.2324368154 au
        non-Brillouin singles    =        -0.0000000000 au

 Total  MP2   correlation energy =        -1.8154502152 au
        MP2         total energy =     -1103.4135456116 au

  Entering Z-vector solver.
   1         0           1      0.000267    0.000267
   2         0           1      0.000119    0.000119
   3         0           1      0.000049    0.000049
   4         0           1      0.000023    0.000023
   5         0           1      0.000007    0.000007
   6         0           1      0.000002    0.000002
   7         1           0      0.000000    0.000000    Roots Converged
 
 --------------------------------------------------------------
             Orbital Energies (a.u.) and Symmetries
 --------------------------------------------------------------
 
 Alpha MOs, Restricted
 -- Occupied --                  
-91.985 -91.985 -11.275 -11.274 -11.261 -11.261 -11.238 -11.238
  1 A     1 B     2 A     2 B     3 B     3 A     4 B     4 A                  
-11.237 -11.237  -8.986  -8.986  -6.667  -6.667  -6.667  -6.667
  5 B     5 A     6 B     6 A     7 B     7 A     8 A     8 B                  
 -6.666  -6.666  -1.196  -1.166  -1.035  -0.999  -0.985  -0.948
  9 A     9 B    10 A    10 B    11 A    12 A    11 B    12 B                  
 -0.809  -0.777  -0.749  -0.717  -0.707  -0.645  -0.574  -0.571
 13 A    14 A    13 B    14 B    15 A    15 B    16 A    17 A                  
 -0.562  -0.553  -0.541  -0.512  -0.511  -0.486  -0.466  -0.370
 16 B    17 B    18 A    19 A    18 B    20 A    19 B    20 B                  
 -0.352  -0.349  -0.282
 21 B    21 A    22 A                                                          
 -- Virtual --                   
  0.077   0.139   0.148   0.153   0.160   0.175   0.175   0.185
 22 B    23 A    24 A    23 B    25 A    26 A    24 B    25 B                  
  0.201   0.213   0.214   0.237   0.247   0.278   0.311   0.348
 27 A    28 A    26 B    29 A    27 B    28 B    30 A    29 B                  
  0.356   0.362   0.366   0.375   0.388   0.398   0.420   0.431
 31 A    30 B    32 A    33 A    31 B    32 B    33 B    34 A                  
  0.451   0.451   0.462   0.463   0.480   0.484   0.511   0.518
 35 A    34 B    36 A    35 B    37 A    36 B    37 B    38 A                  
  0.528   0.536   0.541   0.545   0.549   0.558   0.561   0.563
 39 A    38 B    40 A    39 B    41 A    40 B    42 A    41 B                  
  0.581   0.593   0.595   0.597   0.608   0.612   0.618   0.620
 42 B    43 A    44 A    43 B    44 B    45 A    46 A    45 B                  
  0.629   0.639   0.659   0.669   0.670   0.696   0.731   0.738
 47 A    46 B    48 A    49 A    47 B    48 B    50 A    49 B                  
  0.739   0.752   0.780   0.784   0.804   0.816   0.840   0.849
 51 A    50 B    52 A    51 B    52 B    53 A    54 A    53 B                  
  0.861   0.882   0.886   0.896   0.915   0.920   0.947   0.952
 55 A    54 B    56 A    55 B    57 A    56 B    58 A    57 B                  
  0.972   0.992   0.997   1.015   1.040   1.058   1.064   1.083
 58 B    59 A    59 B    60 A    60 B    61 B    61 A    62 B                  
  1.086   1.097   1.103   1.111   1.141   1.164   1.167   1.169
 62 A    63 A    64 A    63 B    64 B    65 A    65 B    66 A                  
  1.196   1.204   1.210   1.223   1.241   1.258   1.261   1.280
 66 B    67 A    67 B    68 A    68 B    69 A    69 B    70 B                  
  1.291   1.312   1.315   1.347   1.386   1.388   1.405   1.428
 70 A    71 B    71 A    72 A    72 B    73 A    73 B    74 A                  
  1.459   1.468   1.475   1.482   1.499   1.505   1.515   1.528
 74 B    75 A    76 A    75 B    76 B    77 A    78 A    77 B                  
  1.547   1.552   1.567   1.585   1.603   1.608   1.641   1.645
 78 B    79 A    79 B    80 A    80 B    81 A    82 A    81 B                  
  1.664   1.672   1.716   1.725   1.738   1.764   1.789   1.821
 82 B    83 A    83 B    84 A    84 B    85 A    85 B    86 A                  
  1.828   1.867   1.868   1.890   1.891   1.934   1.937   1.956
 86 B    87 A    87 B    88 B    88 A    89 A    89 B    90 B                  
  1.963   1.969   2.052   2.072   2.085   2.114   2.117   2.160
 90 A    91 A    91 B    92 A    92 B    93 B    93 A    94 A                  
  2.169   2.192   2.200   2.207   2.228   2.241   2.257   2.271
 94 B    95 B    95 A    96 A    96 B    97 A    97 B    98 B                  
  2.277   2.300   2.310   2.399   2.432   2.442   2.450   2.471
 98 A    99 A    99 B   100 A   100 B   101 A   101 B   102 B                  
  2.486   2.492   2.510   2.521   2.552   2.564   2.574   2.606
102 A   103 A   103 B   104 A   105 A   104 B   105 B   106 A                  
  2.636   2.646   2.662   2.679   2.731   2.732   2.762   2.764
106 B   107 B   107 A   108 A   108 B   109 A   110 A   109 B                  
  2.765   2.772   2.780   2.798   2.821   2.854   2.895   2.898
111 A   110 B   111 B   112 A   112 B   113 A   113 B   114 A                  
  2.901   2.919   2.955   2.960   2.999   3.005   3.012   3.015
114 B   115 A   116 A   115 B   116 B   117 A   117 B   118 A                  
  3.034   3.042   3.087   3.108   3.152   3.154   3.169   3.184
118 B   119 A   119 B   120 A   120 B   121 A   121 B   122 A                  
  3.205   3.220   3.231   3.244   3.257   3.259   3.264   3.294
122 B   123 B   123 A   124 B   125 B   124 A   125 A   126 A                  
  3.303   3.313   3.319   3.319   3.341   3.356   3.382   3.393
127 A   126 B   127 B   128 A   129 A   128 B   129 B   130 A                  
  3.415   3.419   3.424   3.440   3.452   3.456   3.469   3.470
131 A   132 A   130 B   133 A   131 B   134 A   135 A   132 B                  
  3.491   3.496   3.505   3.508   3.512   3.516   3.523   3.540
133 B   134 B   136 A   135 B   137 A   136 B   138 A   137 B                  
  3.547   3.569   3.577   3.593   3.621   3.624   3.636   3.671
138 B   139 A   139 B   140 A   140 B   141 A   141 B   142 A                  
  3.680   3.690   3.703   3.727   3.732   3.743   3.774   3.780
142 B   143 B   143 A   144 B   144 A   145 A   145 B   146 A                  
  3.814   3.826   3.876   3.889   3.915   3.924   3.924   3.948
147 A   146 B   147 B   148 A   148 B   149 B   149 A   150 B                  
  3.957   3.992   3.994   4.010   4.011   4.018   4.039   4.043
150 A   151 A   151 B   152 A   152 B   153 A   153 B   154 A                  
  4.097   4.109   4.133   4.141   4.172   4.178   4.186   4.191
155 A   154 B   155 B   156 A   156 B   157 A   158 A   157 B                  
  4.198   4.204   4.208   4.236   4.272   4.282   4.295   4.312
159 A   158 B   160 A   159 B   161 A   160 B   161 B   162 A                  
  4.351   4.368   4.412   4.445   4.465   4.475   4.498   4.499
162 B   163 A   163 B   164 A   165 A   164 B   165 B   166 A                  
  4.512   4.591   4.623   4.635   4.643   4.655   4.691   4.701
167 A   166 B   168 A   167 B   169 A   168 B   170 A   171 A                  
  4.702   4.707   4.760   4.764   4.809   4.813   4.841   4.862
169 B   170 B   171 B   172 A   173 A   172 B   174 A   173 B                  
  4.883   4.982   4.995   5.019   5.045   5.067   5.071   5.083
175 A   174 B   175 B   176 A   177 A   178 A   176 B   179 A                  
  5.093   5.125   5.199   5.217   5.255   5.287   5.343   5.345
177 B   178 B   180 A   179 B   180 B   181 A   181 B   182 A                  
  5.392   5.408   5.433   5.454   5.586   5.605   5.636   5.683
183 A   182 B   183 B   184 A   185 A   184 B   185 B   186 A                  
  5.812   5.864   5.994   6.051   6.100   6.133   6.156   6.215
187 A   186 B   188 A   187 B   189 A   188 B   190 A   189 B                  
  6.382   6.535   6.585   6.675   6.829   9.432  10.874  11.779
190 B   191 A   191 B   192 A   192 B   193 A   193 B   194 A                  
 12.320  13.318  13.843  14.443  14.999
194 B   195 A   195 B   196 A   196 B                                          
 
 Beta MOs, Restricted
 -- Occupied --                  
-91.985 -91.985 -11.275 -11.274 -11.261 -11.261 -11.238 -11.238
  1 A     1 B     2 A     2 B     3 B     3 A     4 B     4 A                  
-11.237 -11.237  -8.986  -8.986  -6.667  -6.667  -6.667  -6.667
  5 B     5 A     6 B     6 A     7 B     7 A     8 A     8 B                  
 -6.666  -6.666  -1.196  -1.166  -1.035  -0.999  -0.985  -0.948
  9 A     9 B    10 A    10 B    11 A    12 A    11 B    12 B                  
 -0.809  -0.777  -0.749  -0.717  -0.707  -0.645  -0.574  -0.571
 13 A    14 A    13 B    14 B    15 A    15 B    16 A    17 A                  
 -0.562  -0.553  -0.541  -0.512  -0.511  -0.486  -0.466  -0.370
 16 B    17 B    18 A    19 A    18 B    20 A    19 B    20 B                  
 -0.352  -0.349  -0.282
 21 B    21 A    22 A                                                          
 -- Virtual --                   
  0.077   0.139   0.148   0.153   0.160   0.175   0.175   0.185
 22 B    23 A    24 A    23 B    25 A    26 A    24 B    25 B                  
  0.201   0.213   0.214   0.237   0.247   0.278   0.311   0.348
 27 A    28 A    26 B    29 A    27 B    28 B    30 A    29 B                  
  0.356   0.362   0.366   0.375   0.388   0.398   0.420   0.431
 31 A    30 B    32 A    33 A    31 B    32 B    33 B    34 A                  
  0.451   0.451   0.462   0.463   0.480   0.484   0.511   0.518
 35 A    34 B    36 A    35 B    37 A    36 B    37 B    38 A                  
  0.528   0.536   0.541   0.545   0.549   0.558   0.561   0.563
 39 A    38 B    40 A    39 B    41 A    40 B    42 A    41 B                  
  0.581   0.593   0.595   0.597   0.608   0.612   0.618   0.620
 42 B    43 A    44 A    43 B    44 B    45 A    46 A    45 B                  
  0.629   0.639   0.659   0.669   0.670   0.696   0.731   0.738
 47 A    46 B    48 A    49 A    47 B    48 B    50 A    49 B                  
  0.739   0.752   0.780   0.784   0.804   0.816   0.840   0.849
 51 A    50 B    52 A    51 B    52 B    53 A    54 A    53 B                  
  0.861   0.882   0.886   0.896   0.915   0.920   0.947   0.952
 55 A    54 B    56 A    55 B    57 A    56 B    58 A    57 B                  
  0.972   0.992   0.997   1.015   1.040   1.058   1.064   1.083
 58 B    59 A    59 B    60 A    60 B    61 B    61 A    62 B                  
  1.086   1.097   1.103   1.111   1.141   1.164   1.167   1.169
 62 A    63 A    64 A    63 B    64 B    65 A    65 B    66 A                  
  1.196   1.204   1.210   1.223   1.241   1.258   1.261   1.280
 66 B    67 A    67 B    68 A    68 B    69 A    69 B    70 B                  
  1.291   1.312   1.315   1.347   1.386   1.388   1.405   1.428
 70 A    71 B    71 A    72 A    72 B    73 A    73 B    74 A                  
  1.459   1.468   1.475   1.482   1.499   1.505   1.515   1.528
 74 B    75 A    76 A    75 B    76 B    77 A    78 A    77 B                  
  1.547   1.552   1.567   1.585   1.603   1.608   1.641   1.645
 78 B    79 A    79 B    80 A    80 B    81 A    82 A    81 B                  
  1.664   1.672   1.716   1.725   1.738   1.764   1.789   1.821
 82 B    83 A    83 B    84 A    84 B    85 A    85 B    86 A                  
  1.828   1.867   1.868   1.890   1.891   1.934   1.937   1.956
 86 B    87 A    87 B    88 B    88 A    89 A    89 B    90 B                  
  1.963   1.969   2.052   2.072   2.085   2.114   2.117   2.160
 90 A    91 A    91 B    92 A    92 B    93 B    93 A    94 A                  
  2.169   2.192   2.200   2.207   2.228   2.241   2.257   2.271
 94 B    95 B    95 A    96 A    96 B    97 A    97 B    98 B                  
  2.277   2.300   2.310   2.399   2.432   2.442   2.450   2.471
 98 A    99 A    99 B   100 A   100 B   101 A   101 B   102 B                  
  2.486   2.492   2.510   2.521   2.552   2.564   2.574   2.606
102 A   103 A   103 B   104 A   105 A   104 B   105 B   106 A                  
  2.636   2.646   2.662   2.679   2.731   2.732   2.762   2.764
106 B   107 B   107 A   108 A   108 B   109 A   110 A   109 B                  
  2.765   2.772   2.780   2.798   2.821   2.854   2.895   2.898
111 A   110 B   111 B   112 A   112 B   113 A   113 B   114 A                  
  2.901   2.919   2.955   2.960   2.999   3.005   3.012   3.015
114 B   115 A   116 A   115 B   116 B   117 A   117 B   118 A                  
  3.034   3.042   3.087   3.108   3.152   3.154   3.169   3.184
118 B   119 A   119 B   120 A   120 B   121 A   121 B   122 A                  
  3.205   3.220   3.231   3.244   3.257   3.259   3.264   3.294
122 B   123 B   123 A   124 B   125 B   124 A   125 A   126 A                  
  3.303   3.313   3.319   3.319   3.341   3.356   3.382   3.393
127 A   126 B   127 B   128 A   129 A   128 B   129 B   130 A                  
  3.415   3.419   3.424   3.440   3.452   3.456   3.469   3.470
131 A   132 A   130 B   133 A   131 B   134 A   135 A   132 B                  
  3.491   3.496   3.505   3.508   3.512   3.516   3.523   3.540
133 B   134 B   136 A   135 B   137 A   136 B   138 A   137 B                  
  3.547   3.569   3.577   3.593   3.621   3.624   3.636   3.671
138 B   139 A   139 B   140 A   140 B   141 A   141 B   142 A                  
  3.680   3.690   3.703   3.727   3.732   3.743   3.774   3.780
142 B   143 B   143 A   144 B   144 A   145 A   145 B   146 A                  
  3.814   3.826   3.876   3.889   3.915   3.924   3.924   3.948
147 A   146 B   147 B   148 A   148 B   149 B   149 A   150 B                  
  3.957   3.992   3.994   4.010   4.011   4.018   4.039   4.043
150 A   151 A   151 B   152 A   152 B   153 A   153 B   154 A                  
  4.097   4.109   4.133   4.141   4.172   4.178   4.186   4.191
155 A   154 B   155 B   156 A   156 B   157 A   158 A   157 B                  
  4.198   4.204   4.208   4.236   4.272   4.282   4.295   4.312
159 A   158 B   160 A   159 B   161 A   160 B   161 B   162 A                  
  4.351   4.368   4.412   4.445   4.465   4.475   4.498   4.499
162 B   163 A   163 B   164 A   165 A   164 B   165 B   166 A                  
  4.512   4.591   4.623   4.635   4.643   4.655   4.691   4.701
167 A   166 B   168 A   167 B   169 A   168 B   170 A   171 A                  
  4.702   4.707   4.760   4.764   4.809   4.813   4.841   4.862
169 B   170 B   171 B   172 A   173 A   172 B   174 A   173 B                  
  4.883   4.982   4.995   5.019   5.045   5.067   5.071   5.083
175 A   174 B   175 B   176 A   177 A   178 A   176 B   179 A                  
  5.093   5.125   5.199   5.217   5.255   5.287   5.343   5.345
177 B   178 B   180 A   179 B   180 B   181 A   181 B   182 A                  
  5.392   5.408   5.433   5.454   5.586   5.605   5.636   5.683
183 A   182 B   183 B   184 A   185 A   184 B   185 B   186 A                  
  5.812   5.864   5.994   6.051   6.100   6.133   6.156   6.215
187 A   186 B   188 A   187 B   189 A   188 B   190 A   189 B                  
  6.382   6.535   6.585   6.675   6.829   9.432  10.874  11.779
190 B   191 A   191 B   192 A   192 B   193 A   193 B   194 A                  
 12.320  13.318  13.843  14.443  14.999
194 B   195 A   195 B   196 A   196 B                                          
 --------------------------------------------------------------
 
          Ground-State Mulliken Net Atomic Charges

     Atom                 Charge (a.u.)
  ----------------------------------------
      1 S                     0.109792
      2 C                    -0.237879
      3 C                    -0.198421
      4 C                    -0.192708
      5 C                    -0.009668
      6 H                     0.169525
      7 C                    -0.009668
      8 S                     0.109792
      9 C                    -0.192708
     10 C                    -0.237879
     11 C                    -0.198421
     12 H                     0.174016
     13 H                     0.185343
     14 H                     0.174016
     15 H                     0.185343
     16 H                     0.169525
  ----------------------------------------
  Sum of atomic charges =     0.000000

 -----------------------------------------------------------------
                    Cartesian Multipole Moments
 -----------------------------------------------------------------
    Charge (ESU x 10^10)
                -0.0000
    Dipole Moment (Debye)
         X      -0.0000      Y      -0.0000      Z      -0.6966
       Tot       0.6966
    Quadrupole Moments (Debye-Ang)
        XX     -61.0702     XY      -0.5279     YY     -77.3414
        XZ      -0.0000     YZ       0.0000     ZZ     -68.1705
    Octopole Moments (Debye-Ang^2)
       XXX      -0.0000    XXY      -0.0000    XYY       0.0000
       YYY      -0.0000    XXZ       5.6351    XYZ       6.9002
       YYZ       2.3629    XZZ       0.0000    YZZ      -0.0000
       ZZZ      -6.2478
    Hexadecapole Moments (Debye-Ang^3)
      XXXX   -1822.0882   XXXY      -3.0690   XXYY    -403.5221
      XYYY       3.6779   YYYY    -132.2939   XXXZ       0.0000
      XXYZ       0.0000   XYYZ      -0.0000   YYYZ       0.0000
      XXZZ    -395.8216   XYZZ      -7.1140   YYZZ    -114.7128
      XZZZ      -0.0000   YZZZ       0.0000   ZZZZ    -516.5002
 -----------------------------------------------------------------
 DrvMan is completing analytic gradient of the MP2 energy
 MP2 relaxed dipole moment
            1
    1  -0.0000000
    2  -0.0000000
    3  -0.2740638
	Magnitude:	 0.274 au	 0.697 Debye
 MP2 energy read as -1103.413546
 Full Analytical Gradient of MP2 Energy (in au.)
             1             2             3             4             5
    1   -0.00000099    0.00021425    0.00001483    0.00009047   -0.00009954
    2    0.00003590    0.00000253   -0.00012281   -0.00008076    0.00017429
    3    0.00027295    0.00007825    0.00017109    0.00047933   -0.00092127
             6             7             8             9            10
    1    0.00001222    0.00009954    0.00000099   -0.00009047   -0.00021425
    2    0.00019380   -0.00017429   -0.00003590    0.00008076   -0.00000253
    3   -0.00010797   -0.00092127    0.00027295    0.00047933    0.00007825
            11            12            13            14            15
    1   -0.00001483    0.00002334    0.00003302   -0.00002334   -0.00003302
    2    0.00012281   -0.00001536   -0.00000310    0.00001536    0.00000310
    3    0.00017109    0.00001570    0.00001191    0.00001570    0.00001191
            16
    1   -0.00001222
    2   -0.00019380
    3   -0.00010797
 Gradient time:  CPU 1.57 s  wall 0.10 s
 Geometry Optimization Parameters
   NAtoms,    NIC,     NZ,  NCons,   NDum,   NFix, NCnnct, MaxDiis
       16     111       0       1       0       0       0       0

 Cartesian Hessian Update
 Hessian Updated using BFGS Update


** CONSTRAINED OPTIMIZATION IN DELOCALIZED INTERNAL COORDINATES **
   Searching for a Minimum

   Optimization Cycle:   2

                       Coordinates (Angstroms)
     ATOM                X               Y               Z
      1  S         1.6256932882    0.3394938743    1.1011356588
      2  C         3.1120818825    0.0689249577    0.3081362943
      3  C         2.9218858914   -0.2741340595   -1.0075788078
      4  C         1.5644574187   -0.3304005804   -1.3612429188
      5  C         0.7189465488   -0.0230849046   -0.3161845002
      6  H         1.1990711010   -0.6050890174   -2.3345046151
      7  C        -0.7189465488    0.0230849046   -0.3161845002
      8  S        -1.6256932882   -0.3394938743    1.1011356588
      9  C        -1.5644574187    0.3304005804   -1.3612429188
     10  C        -3.1120818825   -0.0689249577    0.3081362943
     11  C        -2.9218858914    0.2741340595   -1.0075788078
     12  H        -3.7320474122    0.4854788202   -1.6807436280
     13  H         4.0363938027    0.1749506879    0.8401543510
     14  H         3.7320474122   -0.4854788202   -1.6807436280
     15  H        -4.0363938027   -0.1749506879    0.8401543510
     16  H        -1.1990711010    0.6050890174   -2.3345046151
   Point Group: c2    Number of degrees of freedom:    22


   Energy is  -1103.413545612

              Constraints and their Current Values
                                        Value     Constraint
   Dihedral:        4   5   7   9      -30.000      -30.000
 Hessian Updated using BFGS Update

 21 Hessian modes will be used to form the next step
  Hessian Eigenvalues:
     0.036974    0.045000    0.045001    0.045003    0.045004    0.045325
     0.159113    0.159994    0.160049    0.166725    0.225237    0.249828
     0.337336    0.343243    0.365468    0.366920    0.370123    0.411754
     0.437937    0.473607    0.497169

 Minimum Search - Taking Simple RFO Step
 Searching for Lamda that Minimizes Along All modes
 Value Taken    Lamda =  -0.00004923
 Step Taken.  Stepsize is  0.027677

                             Maximum     Tolerance    Cnvgd?
         Gradient           0.001995      0.000300      NO
         Displacement       0.017045      0.001200      NO
         Energy change     -0.000153      0.000001      NO


 New Cartesian Coordinates Obtained by Inverse Iteration

 Displacement from previous Coordinates is:  0.118234
 ----------------------------------------------------------------
             Standard Nuclear Orientation (Angstroms)
    I     Atom           X                Y                Z
 ----------------------------------------------------------------
    1      S       1.6364716916     0.3422280131     1.1070690136
    2      C       3.1156706092     0.0727526374     0.3004378089
    3      C       2.9150669967    -0.2735721174    -1.0129551238
    4      C       1.5548459291    -0.3338935060    -1.3535436478
    5      C       0.7187911496    -0.0239420869    -0.3013029035
    6      H       1.1804007195    -0.6135740511    -2.3217915296
    7      C      -0.7187911496     0.0239420869    -0.3013029035
    8      S      -1.6364716916    -0.3422280131     1.1070690136
    9      C      -1.5548459291     0.3338935060    -1.3535436478
   10      C      -3.1156706092    -0.0727526374     0.3004378089
   11      C      -2.9150669967     0.2735721174    -1.0129551238
   12      H      -3.7196469750     0.4856626784    -1.6926578080
   13      H       4.0444376112     0.1815466619     0.8239160243
   14      H       3.7196469750    -0.4856626784    -1.6926578080
   15      H      -4.0444376112    -0.1815466619     0.8239160243
   16      H      -1.1804007195     0.6135740511    -2.3217915296
 ----------------------------------------------------------------
 Molecular Point Group                 C2    NOp =  2
 Largest Abelian Subgroup              C2    NOp =  2
 Nuclear Repulsion Energy =   638.9323306370 hartrees
 There are       43 alpha and       43 beta electrons
 Applying Cartesian multipole field
    Component          Value
    ---------          -----
     (2,0,0)        1.00000E-11
     (0,2,0)        2.00000E-10
     (0,0,2)       -3.00000E-11
 Nucleus-field energy     =     0.0000000096 hartrees
 Requested basis set is cc-pVTZ
 There are 140 shells and 392 basis functions
 A cutoff of  1.0D-11 yielded   8044 shell pairs
 There are     62436 function pairs (     81386 Cartesian)
 Smallest overlap matrix eigenvalue = 7.01E-05
 Guess MOs from SCF MO coefficient file
 Reading MOs from coefficient file
 Reading MOs from coefficient file
 A restricted Hartree-Fock SCF calculation will be
 performed using Pulay DIIS extrapolation
 SCF converges when DIIS error is below 1.0E-08
 Geometry optimization detected.  Setting ReadMinima to 0
 Setting SaveMinima to 0
 using 16 threads for integral computing 
 ---------------------------------------
  Cycle       Energy         DIIS Error
 ---------------------------------------
    1   -1101.5958317200      1.83E-04
    2   -1101.5981261853      2.72E-05
    3   -1101.5981488849      1.18E-05
    4   -1101.5981524672      5.41E-06
    5   -1101.5981534505      1.20E-06
    6   -1101.5981535130      5.56E-07
    7   -1101.5981535287      1.89E-07
    8   -1101.5981535299      8.12E-08
    9   -1101.5981535303      2.37E-08
   10   -1101.5981535302      7.94E-09 Convergence criterion met
 ---------------------------------------
 SCF time:  CPU 663.76 s  wall 41.52 s
 SCF   energy in the final basis set = -1101.5981535302
 Total energy in the final basis set = -1101.5981535302
 
 Components of the MP2 correlation energy:
        aaaa  correlation energy =        -0.2324349940 au
        abab  correlation energy =        -1.3505479941 au
        bbbb  correlation energy =        -0.2324349940 au
        non-Brillouin singles    =        -0.0000000000 au

 Total  MP2   correlation energy =        -1.8154179821 au
        MP2         total energy =     -1103.4135715124 au

  Entering Z-vector solver.
   1         0           1      0.000267    0.000267
   2         0           1      0.000119    0.000119
   3         0           1      0.000049    0.000049
   4         0           1      0.000023    0.000023
   5         0           1      0.000007    0.000007
   6         0           1      0.000002    0.000002
   7         1           0      0.000000    0.000000    Roots Converged
 
 --------------------------------------------------------------
             Orbital Energies (a.u.) and Symmetries
 --------------------------------------------------------------
 
 Alpha MOs, Restricted
 -- Occupied --                  
-91.985 -91.985 -11.275 -11.274 -11.261 -11.261 -11.238 -11.238
  1 A     1 B     2 A     2 B     3 B     3 A     4 B     4 A                  
-11.237 -11.237  -8.986  -8.986  -6.667  -6.667  -6.667  -6.667
  5 B     5 A     6 B     6 A     7 B     7 A     8 A     8 B                  
 -6.666  -6.666  -1.197  -1.166  -1.035  -0.999  -0.985  -0.948
  9 A     9 B    10 A    10 B    11 A    12 A    11 B    12 B                  
 -0.809  -0.777  -0.749  -0.717  -0.707  -0.645  -0.574  -0.571
 13 A    14 A    13 B    14 B    15 A    15 B    16 A    17 A                  
 -0.562  -0.553  -0.541  -0.512  -0.512  -0.486  -0.467  -0.370
 16 B    17 B    18 A    19 A    18 B    20 A    19 B    20 B                  
 -0.352  -0.349  -0.282
 21 B    21 A    22 A                                                          
 -- Virtual --                   
  0.077   0.139   0.148   0.153   0.160   0.175   0.175   0.185
 22 B    23 A    24 A    23 B    25 A    24 B    26 A    25 B                  
  0.201   0.213   0.215   0.236   0.247   0.277   0.311   0.348
 27 A    28 A    26 B    29 A    27 B    28 B    30 A    29 B                  
  0.356   0.362   0.367   0.376   0.388   0.398   0.419   0.431
 31 A    30 B    32 A    33 A    31 B    32 B    33 B    34 A                  
  0.451   0.451   0.462   0.463   0.480   0.484   0.510   0.517
 35 A    34 B    36 A    35 B    37 A    36 B    37 B    38 A                  
  0.528   0.536   0.541   0.545   0.549   0.558   0.561   0.563
 39 A    38 B    40 A    39 B    41 A    40 B    42 A    41 B                  
  0.581   0.593   0.595   0.597   0.608   0.613   0.618   0.621
 42 B    43 A    44 A    43 B    44 B    45 A    46 A    45 B                  
  0.629   0.639   0.660   0.668   0.670   0.695   0.732   0.738
 47 A    46 B    48 A    49 A    47 B    48 B    50 A    49 B                  
  0.738   0.752   0.780   0.784   0.804   0.815   0.840   0.850
 51 A    50 B    52 A    51 B    52 B    53 A    54 A    53 B                  
  0.860   0.882   0.886   0.895   0.917   0.919   0.945   0.952
 55 A    54 B    56 A    55 B    57 A    56 B    58 A    57 B                  
  0.972   0.994   0.999   1.015   1.039   1.057   1.066   1.083
 58 B    59 A    59 B    60 A    60 B    61 B    61 A    62 B                  
  1.087   1.099   1.103   1.110   1.141   1.163   1.167   1.170
 62 A    63 A    64 A    63 B    64 B    65 A    65 B    66 A                  
  1.196   1.205   1.210   1.222   1.241   1.257   1.260   1.281
 66 B    67 A    67 B    68 A    68 B    69 A    69 B    70 B                  
  1.290   1.312   1.316   1.348   1.386   1.390   1.404   1.428
 70 A    71 B    71 A    72 A    72 B    73 A    73 B    74 A                  
  1.459   1.467   1.475   1.482   1.498   1.506   1.514   1.528
 74 B    75 A    76 A    75 B    76 B    77 A    78 A    77 B                  
  1.547   1.552   1.567   1.584   1.604   1.609   1.641   1.645
 78 B    79 A    79 B    80 A    80 B    81 A    82 A    81 B                  
  1.665   1.671   1.718   1.725   1.738   1.764   1.788   1.824
 82 B    83 A    83 B    84 A    84 B    85 A    85 B    86 A                  
  1.828   1.864   1.869   1.890   1.890   1.933   1.935   1.953
 86 B    87 A    87 B    88 B    88 A    89 A    89 B    90 B                  
  1.964   1.968   2.053   2.072   2.084   2.110   2.118   2.162
 90 A    91 A    91 B    92 A    92 B    93 B    93 A    94 A                  
  2.169   2.192   2.200   2.206   2.227   2.243   2.259   2.271
 94 B    95 B    95 A    96 A    96 B    97 A    97 B    98 B                  
  2.277   2.300   2.309   2.399   2.433   2.443   2.452   2.472
 98 A    99 A    99 B   100 A   100 B   101 A   101 B   102 B                  
  2.486   2.494   2.510   2.522   2.552   2.565   2.572   2.606
102 A   103 A   103 B   104 A   105 A   104 B   105 B   106 A                  
  2.636   2.647   2.662   2.680   2.730   2.733   2.761   2.764
106 B   107 B   107 A   108 A   108 B   109 A   110 A   109 B                  
  2.766   2.772   2.779   2.798   2.822   2.855   2.894   2.898
111 A   110 B   111 B   112 A   112 B   113 A   113 B   114 A                  
  2.902   2.919   2.956   2.961   2.998   3.004   3.010   3.015
114 B   115 A   116 A   115 B   116 B   117 A   117 B   118 A                  
  3.034   3.041   3.089   3.107   3.153   3.154   3.168   3.184
118 B   119 A   119 B   120 A   120 B   121 A   121 B   122 A                  
  3.205   3.220   3.230   3.244   3.257   3.258   3.266   3.293
122 B   123 B   123 A   124 B   125 B   124 A   125 A   126 A                  
  3.302   3.316   3.319   3.321   3.344   3.356   3.381   3.393
127 A   126 B   127 B   128 A   129 A   128 B   129 B   130 A                  
  3.416   3.420   3.425   3.439   3.453   3.456   3.469   3.469
131 A   132 A   130 B   133 A   131 B   134 A   132 B   135 A                  
  3.492   3.496   3.504   3.507   3.512   3.519   3.523   3.541
133 B   134 B   136 A   135 B   137 A   136 B   138 A   137 B                  
  3.546   3.569   3.578   3.592   3.620   3.625   3.636   3.672
138 B   139 A   139 B   140 A   140 B   141 A   141 B   142 A                  
  3.679   3.690   3.702   3.729   3.733   3.744   3.775   3.780
142 B   143 B   143 A   144 B   144 A   145 A   145 B   146 A                  
  3.813   3.825   3.875   3.889   3.914   3.924   3.925   3.950
147 A   146 B   147 B   148 A   148 B   149 A   149 B   150 B                  
  3.959   3.992   3.994   4.010   4.011   4.018   4.040   4.043
150 A   151 A   151 B   152 A   152 B   153 A   153 B   154 A                  
  4.097   4.110   4.132   4.141   4.171   4.180   4.185   4.191
155 A   154 B   155 B   156 A   156 B   157 A   158 A   157 B                  
  4.198   4.203   4.208   4.236   4.272   4.284   4.297   4.313
159 A   158 B   160 A   159 B   161 A   160 B   161 B   162 A                  
  4.353   4.370   4.412   4.447   4.466   4.475   4.499   4.500
162 B   163 A   163 B   164 A   165 A   164 B   165 B   166 A                  
  4.511   4.592   4.623   4.636   4.645   4.655   4.692   4.701
167 A   166 B   168 A   167 B   169 A   168 B   170 A   171 A                  
  4.703   4.707   4.760   4.766   4.809   4.816   4.841   4.861
169 B   170 B   171 B   172 A   173 A   172 B   174 A   173 B                  
  4.883   4.981   4.995   5.016   5.042   5.068   5.070   5.083
175 A   174 B   175 B   176 A   177 A   178 A   176 B   179 A                  
  5.091   5.126   5.201   5.216   5.255   5.287   5.341   5.345
177 B   178 B   180 A   179 B   180 B   181 A   181 B   182 A                  
  5.392   5.408   5.432   5.454   5.586   5.604   5.636   5.683
183 A   182 B   183 B   184 A   185 A   184 B   185 B   186 A                  
  5.811   5.867   5.998   6.048   6.101   6.132   6.157   6.217
187 A   186 B   188 A   187 B   189 A   188 B   190 A   189 B                  
  6.384   6.535   6.584   6.675   6.827   9.431  10.877  11.784
190 B   191 A   191 B   192 A   192 B   193 A   193 B   194 A                  
 12.321  13.314  13.839  14.446  14.993
194 B   195 A   195 B   196 A   196 B                                          
 
 Beta MOs, Restricted
 -- Occupied --                  
-91.985 -91.985 -11.275 -11.274 -11.261 -11.261 -11.238 -11.238
  1 A     1 B     2 A     2 B     3 B     3 A     4 B     4 A                  
-11.237 -11.237  -8.986  -8.986  -6.667  -6.667  -6.667  -6.667
  5 B     5 A     6 B     6 A     7 B     7 A     8 A     8 B                  
 -6.666  -6.666  -1.197  -1.166  -1.035  -0.999  -0.985  -0.948
  9 A     9 B    10 A    10 B    11 A    12 A    11 B    12 B                  
 -0.809  -0.777  -0.749  -0.717  -0.707  -0.645  -0.574  -0.571
 13 A    14 A    13 B    14 B    15 A    15 B    16 A    17 A                  
 -0.562  -0.553  -0.541  -0.512  -0.512  -0.486  -0.467  -0.370
 16 B    17 B    18 A    19 A    18 B    20 A    19 B    20 B                  
 -0.352  -0.349  -0.282
 21 B    21 A    22 A                                                          
 -- Virtual --                   
  0.077   0.139   0.148   0.153   0.160   0.175   0.175   0.185
 22 B    23 A    24 A    23 B    25 A    24 B    26 A    25 B                  
  0.201   0.213   0.215   0.236   0.247   0.277   0.311   0.348
 27 A    28 A    26 B    29 A    27 B    28 B    30 A    29 B                  
  0.356   0.362   0.367   0.376   0.388   0.398   0.419   0.431
 31 A    30 B    32 A    33 A    31 B    32 B    33 B    34 A                  
  0.451   0.451   0.462   0.463   0.480   0.484   0.510   0.517
 35 A    34 B    36 A    35 B    37 A    36 B    37 B    38 A                  
  0.528   0.536   0.541   0.545   0.549   0.558   0.561   0.563
 39 A    38 B    40 A    39 B    41 A    40 B    42 A    41 B                  
  0.581   0.593   0.595   0.597   0.608   0.613   0.618   0.621
 42 B    43 A    44 A    43 B    44 B    45 A    46 A    45 B                  
  0.629   0.639   0.660   0.668   0.670   0.695   0.732   0.738
 47 A    46 B    48 A    49 A    47 B    48 B    50 A    49 B                  
  0.738   0.752   0.780   0.784   0.804   0.815   0.840   0.850
 51 A    50 B    52 A    51 B    52 B    53 A    54 A    53 B                  
  0.860   0.882   0.886   0.895   0.917   0.919   0.945   0.952
 55 A    54 B    56 A    55 B    57 A    56 B    58 A    57 B                  
  0.972   0.994   0.999   1.015   1.039   1.057   1.066   1.083
 58 B    59 A    59 B    60 A    60 B    61 B    61 A    62 B                  
  1.087   1.099   1.103   1.110   1.141   1.163   1.167   1.170
 62 A    63 A    64 A    63 B    64 B    65 A    65 B    66 A                  
  1.196   1.205   1.210   1.222   1.241   1.257   1.260   1.281
 66 B    67 A    67 B    68 A    68 B    69 A    69 B    70 B                  
  1.290   1.312   1.316   1.348   1.386   1.390   1.404   1.428
 70 A    71 B    71 A    72 A    72 B    73 A    73 B    74 A                  
  1.459   1.467   1.475   1.482   1.498   1.506   1.514   1.528
 74 B    75 A    76 A    75 B    76 B    77 A    78 A    77 B                  
  1.547   1.552   1.567   1.584   1.604   1.609   1.641   1.645
 78 B    79 A    79 B    80 A    80 B    81 A    82 A    81 B                  
  1.665   1.671   1.718   1.725   1.738   1.764   1.788   1.824
 82 B    83 A    83 B    84 A    84 B    85 A    85 B    86 A                  
  1.828   1.864   1.869   1.890   1.890   1.933   1.935   1.953
 86 B    87 A    87 B    88 B    88 A    89 A    89 B    90 B                  
  1.964   1.968   2.053   2.072   2.084   2.110   2.118   2.162
 90 A    91 A    91 B    92 A    92 B    93 B    93 A    94 A                  
  2.169   2.192   2.200   2.206   2.227   2.243   2.259   2.271
 94 B    95 B    95 A    96 A    96 B    97 A    97 B    98 B                  
  2.277   2.300   2.309   2.399   2.433   2.443   2.452   2.472
 98 A    99 A    99 B   100 A   100 B   101 A   101 B   102 B                  
  2.486   2.494   2.510   2.522   2.552   2.565   2.572   2.606
102 A   103 A   103 B   104 A   105 A   104 B   105 B   106 A                  
  2.636   2.647   2.662   2.680   2.730   2.733   2.761   2.764
106 B   107 B   107 A   108 A   108 B   109 A   110 A   109 B                  
  2.766   2.772   2.779   2.798   2.822   2.855   2.894   2.898
111 A   110 B   111 B   112 A   112 B   113 A   113 B   114 A                  
  2.902   2.919   2.956   2.961   2.998   3.004   3.010   3.015
114 B   115 A   116 A   115 B   116 B   117 A   117 B   118 A                  
  3.034   3.041   3.089   3.107   3.153   3.154   3.168   3.184
118 B   119 A   119 B   120 A   120 B   121 A   121 B   122 A                  
  3.205   3.220   3.230   3.244   3.257   3.258   3.266   3.293
122 B   123 B   123 A   124 B   125 B   124 A   125 A   126 A                  
  3.302   3.316   3.319   3.321   3.344   3.356   3.381   3.393
127 A   126 B   127 B   128 A   129 A   128 B   129 B   130 A                  
  3.416   3.420   3.425   3.439   3.453   3.456   3.469   3.469
131 A   132 A   130 B   133 A   131 B   134 A   132 B   135 A                  
  3.492   3.496   3.504   3.507   3.512   3.519   3.523   3.541
133 B   134 B   136 A   135 B   137 A   136 B   138 A   137 B                  
  3.546   3.569   3.578   3.592   3.620   3.625   3.636   3.672
138 B   139 A   139 B   140 A   140 B   141 A   141 B   142 A                  
  3.679   3.690   3.702   3.729   3.733   3.744   3.775   3.780
142 B   143 B   143 A   144 B   144 A   145 A   145 B   146 A                  
  3.813   3.825   3.875   3.889   3.914   3.924   3.925   3.950
147 A   146 B   147 B   148 A   148 B   149 A   149 B   150 B                  
  3.959   3.992   3.994   4.010   4.011   4.018   4.040   4.043
150 A   151 A   151 B   152 A   152 B   153 A   153 B   154 A                  
  4.097   4.110   4.132   4.141   4.171   4.180   4.185   4.191
155 A   154 B   155 B   156 A   156 B   157 A   158 A   157 B                  
  4.198   4.203   4.208   4.236   4.272   4.284   4.297   4.313
159 A   158 B   160 A   159 B   161 A   160 B   161 B   162 A                  
  4.353   4.370   4.412   4.447   4.466   4.475   4.499   4.500
162 B   163 A   163 B   164 A   165 A   164 B   165 B   166 A                  
  4.511   4.592   4.623   4.636   4.645   4.655   4.692   4.701
167 A   166 B   168 A   167 B   169 A   168 B   170 A   171 A                  
  4.703   4.707   4.760   4.766   4.809   4.816   4.841   4.861
169 B   170 B   171 B   172 A   173 A   172 B   174 A   173 B                  
  4.883   4.981   4.995   5.016   5.042   5.068   5.070   5.083
175 A   174 B   175 B   176 A   177 A   178 A   176 B   179 A                  
  5.091   5.126   5.201   5.216   5.255   5.287   5.341   5.345
177 B   178 B   180 A   179 B   180 B   181 A   181 B   182 A                  
  5.392   5.408   5.432   5.454   5.586   5.604   5.636   5.683
183 A   182 B   183 B   184 A   185 A   184 B   185 B   186 A                  
  5.811   5.867   5.998   6.048   6.101   6.132   6.157   6.217
187 A   186 B   188 A   187 B   189 A   188 B   190 A   189 B                  
  6.384   6.535   6.584   6.675   6.827   9.431  10.877  11.784
190 B   191 A   191 B   192 A   192 B   193 A   193 B   194 A                  
 12.321  13.314  13.839  14.446  14.993
194 B   195 A   195 B   196 A   196 B                                          
 --------------------------------------------------------------
 
          Ground-State Mulliken Net Atomic Charges

     Atom                 Charge (a.u.)
  ----------------------------------------
      1 S                     0.110126
      2 C                    -0.237746
      3 C                    -0.198553
      4 C                    -0.193057
      5 C                    -0.009712
      6 H                     0.169713
      7 C                    -0.009712
      8 S                     0.110126
      9 C                    -0.193057
     10 C                    -0.237746
     11 C                    -0.198553
     12 H                     0.174015
     13 H                     0.185215
     14 H                     0.174015
     15 H                     0.185215
     16 H                     0.169713
  ----------------------------------------
  Sum of atomic charges =     0.000000

 -----------------------------------------------------------------
                    Cartesian Multipole Moments
 -----------------------------------------------------------------
    Charge (ESU x 10^10)
                 0.0000
    Dipole Moment (Debye)
         X       0.0000      Y      -0.0000      Z      -0.7016
       Tot       0.7016
    Quadrupole Moments (Debye-Ang)
        XX     -61.0945     XY      -0.4864     YY     -77.3198
        XZ      -0.0000     YZ      -0.0000     ZZ     -68.2088
    Octopole Moments (Debye-Ang^2)
       XXX       0.0000    XXY      -0.0000    XYY       0.0000
       YYY       0.0000    XXZ       5.2478    XYZ       6.9359
       YYZ       2.0962    XZZ      -0.0000    YZZ      -0.0000
       ZZZ      -6.9149
    Hexadecapole Moments (Debye-Ang^3)
      XXXX   -1823.4688   XXXY      -3.1502   XXYY    -403.8212
      XYYY       2.4119   YYYY    -132.8591   XXXZ      -0.0000
      XXYZ      -0.0000   XYYZ       0.0000   YYYZ      -0.0000
      XXZZ    -396.5643   XYZZ      -7.5418   YYZZ    -114.6972
      XZZZ      -0.0000   YZZZ       0.0000   ZZZZ    -517.1831
 -----------------------------------------------------------------
 DrvMan is completing analytic gradient of the MP2 energy
 MP2 relaxed dipole moment
            1
    1   0.0000000
    2  -0.0000000
    3  -0.2760323
	Magnitude:	 0.276 au	 0.702 Debye
 MP2 energy read as -1103.413572
 Full Analytical Gradient of MP2 Energy (in au.)
             1             2             3             4             5
    1    0.00014589   -0.00014518   -0.00006675   -0.00003344    0.00009025
    2   -0.00001457   -0.00001358    0.00000369   -0.00019336    0.00036434
    3    0.00035511    0.00003276   -0.00006026    0.00017850   -0.00035146
             6             7             8             9            10
    1    0.00005639   -0.00009025   -0.00014589    0.00003344    0.00014518
    2    0.00011439   -0.00036434    0.00001457    0.00019336    0.00001358
    3   -0.00005225   -0.00035146    0.00035511    0.00017850    0.00003276
            11            12            13            14            15
    1    0.00006675    0.00001130   -0.00002361   -0.00001130    0.00002361
    2   -0.00000369    0.00001630    0.00001084   -0.00001630   -0.00001084
    3   -0.00006026   -0.00005983   -0.00004258   -0.00005983   -0.00004258
            16
    1   -0.00005639
    2   -0.00011439
    3   -0.00005225
 Gradient time:  CPU 1.50 s  wall 0.10 s
 Geometry Optimization Parameters
   NAtoms,    NIC,     NZ,  NCons,   NDum,   NFix, NCnnct, MaxDiis
       16     111       0       1       0       0       0       0

 Cartesian Hessian Update
 Hessian Updated using BFGS Update


** CONSTRAINED OPTIMIZATION IN DELOCALIZED INTERNAL COORDINATES **
   Searching for a Minimum

   Optimization Cycle:   3

                       Coordinates (Angstroms)
     ATOM                X               Y               Z
      1  S         1.6364716916    0.3422280131    1.1070690136
      2  C         3.1156706092    0.0727526374    0.3004378089
      3  C         2.9150669967   -0.2735721174   -1.0129551238
      4  C         1.5548459291   -0.3338935060   -1.3535436478
[...]
         Gradient           0.000089      0.000300     YES
         Displacement       0.001741      0.001200      NO
         Energy change     -0.000001      0.000001     YES

 Final energy is   -1103.41357646579     


 ******************************
 **  OPTIMIZATION CONVERGED  **
 ******************************

                       Coordinates (Angstroms)
     ATOM                X               Y               Z
      1  S         1.6372388304    0.3482483084    1.1047781195
      2  C         3.1163399353    0.0765401231    0.2986256121
      3  C         2.9147121450   -0.2755498623   -1.0130902177
      4  C         1.5541233470   -0.3381042025   -1.3524423082
      5  C         0.7187287116   -0.0258627573   -0.3000111967
      6  H         1.1781765539   -0.6244483084   -2.3181503633
      7  C        -0.7187287116    0.0258627573   -0.3000111967
      8  S        -1.6372388304   -0.3482483084    1.1047781195
      9  C        -1.5541233470    0.3381042025   -1.3524423082
     10  C        -3.1163399353   -0.0765401231    0.2986256121
     11  C        -2.9147121450    0.2755498623   -1.0130902177
     12  H        -3.7191750648    0.4902314365   -1.6920497119
     13  H         4.0452352919    0.1875358864    0.8215119005
     14  H         3.7191750648   -0.4902314365   -1.6920497119
     15  H        -4.0452352919   -0.1875358864    0.8215119005
     16  H        -1.1781765539    0.6244483084   -2.3181503633

Z-matrix Print:
$molecule
0 1
S 
C  1 1.706296
H  2 1.071717 1 120.286680
C  2 1.373033 1 111.401237 3 -179.995581 0
H  4 1.074353 2 123.026766 1 179.934304 0
C  4 1.403665 2 112.627273 1 0.708542 0
H  6 1.075138 4 124.608508 2 177.994927 0
C  6 1.379489 4 113.108161 2 -0.348631 0
C  8 1.438388 6 127.830712 4 -179.120648 0
C  9 1.379489 8 127.830712 6 30.000000 0
H  10 1.075138 9 122.261894 8 2.491581 0
C  10 1.403665 9 113.108161 8 -179.120648 0
H  12 1.074353 10 124.341058 9 -179.562463 0
C  12 1.373033 10 112.627273 9 -0.348631 0
H  14 1.071717 12 128.312083 10 -179.286595 0
S  14 1.706296 12 111.401237 10 0.708542 0
$end

 
 --------------------------------------------------------------
             Orbital Energies (a.u.) and Symmetries
 --------------------------------------------------------------
 
 Alpha MOs, Restricted
 -- Occupied --                  
-91.985 -91.985 -11.275 -11.274 -11.261 -11.261 -11.238 -11.238
  1 A     1 B     2 A     2 B     3 B     3 A     4 B     4 A                  
-11.237 -11.237  -8.986  -8.986  -6.667  -6.667  -6.667  -6.667
  5 B     5 A     6 B     6 A     7 B     7 A     8 A     8 B                  
 -6.666  -6.666  -1.197  -1.167  -1.035  -0.999  -0.985  -0.948
  9 A     9 B    10 A    10 B    11 A    12 A    11 B    12 B                  
 -0.809  -0.777  -0.749  -0.717  -0.707  -0.645  -0.574  -0.571
 13 A    14 A    13 B    14 B    15 A    15 B    16 A    17 A                  
 -0.562  -0.553  -0.541  -0.512  -0.512  -0.486  -0.467  -0.370
 16 B    17 B    18 A    19 A    18 B    20 A    19 B    20 B                  
 -0.352  -0.349  -0.283
 21 B    21 A    22 A                                                          
 -- Virtual --                   
  0.077   0.139   0.148   0.153   0.160   0.175   0.175   0.185
 22 B    23 A    24 A    23 B    25 A    24 B    26 A    25 B                  
  0.201   0.213   0.214   0.236   0.247   0.277   0.312   0.348
 27 A    28 A    26 B    29 A    27 B    28 B    30 A    29 B                  
  0.356   0.361   0.367   0.376   0.388   0.398   0.419   0.431
 31 A    30 B    32 A    33 A    31 B    32 B    33 B    34 A                  
  0.451   0.451   0.462   0.463   0.480   0.484   0.510   0.517
 35 A    34 B    36 A    35 B    37 A    36 B    37 B    38 A                  
  0.528   0.536   0.541   0.545   0.549   0.558   0.560   0.563
 39 A    38 B    40 A    39 B    41 A    40 B    42 A    41 B                  
  0.581   0.593   0.594   0.597   0.608   0.613   0.618   0.620
 42 B    43 A    44 A    43 B    44 B    45 A    46 A    45 B                  
  0.629   0.639   0.660   0.668   0.670   0.695   0.731   0.738
 47 A    46 B    48 A    49 A    47 B    48 B    50 A    51 A                  
  0.738   0.752   0.781   0.784   0.804   0.815   0.841   0.849
 49 B    50 B    52 A    51 B    52 B    53 A    54 A    53 B                  
  0.860   0.883   0.885   0.894   0.917   0.918   0.946   0.952
 55 A    54 B    56 A    55 B    57 A    56 B    58 A    57 B                  
  0.972   0.995   0.999   1.014   1.038   1.056   1.066   1.083
 58 B    59 A    59 B    60 A    60 B    61 B    61 A    62 B                  
  1.087   1.099   1.103   1.110   1.142   1.163   1.168   1.171
 62 A    63 A    64 A    63 B    64 B    65 A    65 B    66 A                  
  1.196   1.204   1.210   1.223   1.241   1.257   1.259   1.282
 66 B    67 A    67 B    68 A    68 B    69 A    69 B    70 B                  
  1.291   1.312   1.316   1.350   1.386   1.391   1.403   1.428
 70 A    71 B    71 A    72 A    72 B    73 A    73 B    74 A                  
  1.458   1.468   1.476   1.481   1.498   1.506   1.514   1.528
 74 B    75 A    76 A    75 B    76 B    77 A    78 A    77 B                  
  1.547   1.552   1.567   1.584   1.604   1.609   1.641   1.645
 78 B    79 A    79 B    80 A    80 B    81 A    82 A    81 B                  
  1.665   1.672   1.718   1.725   1.737   1.764   1.785   1.825
 82 B    83 A    83 B    84 A    84 B    85 A    85 B    86 A                  
  1.828   1.864   1.870   1.890   1.890   1.933   1.935   1.953
 86 B    87 A    87 B    88 A    88 B    89 A    89 B    90 B                  
  1.964   1.968   2.052   2.072   2.084   2.110   2.118   2.162
 90 A    91 A    91 B    92 A    92 B    93 B    93 A    94 A                  
  2.169   2.191   2.199   2.206   2.226   2.243   2.260   2.271
 94 B    95 B    95 A    96 A    96 B    97 A    97 B    98 B                  
  2.277   2.301   2.309   2.399   2.433   2.442   2.453   2.472
 98 A    99 A    99 B   100 A   100 B   101 A   101 B   102 B                  
  2.487   2.494   2.510   2.522   2.552   2.566   2.571   2.606
102 A   103 A   103 B   104 A   105 A   104 B   105 B   106 A                  
  2.636   2.647   2.662   2.681   2.729   2.733   2.761   2.763
106 B   107 B   107 A   108 A   108 B   109 A   110 A   109 B                  
  2.767   2.772   2.779   2.798   2.821   2.855   2.893   2.898
111 A   110 B   111 B   112 A   112 B   113 A   113 B   114 A                  
  2.902   2.920   2.957   2.962   2.997   3.004   3.009   3.015
114 B   115 A   116 A   115 B   116 B   117 A   117 B   118 A                  
  3.034   3.040   3.089   3.108   3.152   3.154   3.168   3.185
118 B   119 A   119 B   120 A   120 B   121 A   121 B   122 A                  
  3.204   3.220   3.230   3.243   3.257   3.258   3.267   3.293
122 B   123 B   123 A   124 B   125 B   124 A   125 A   126 A                  
  3.302   3.316   3.319   3.321   3.345   3.357   3.380   3.393
127 A   126 B   127 B   128 A   129 A   128 B   129 B   130 A                  
  3.417   3.420   3.425   3.439   3.453   3.456   3.469   3.470
131 A   132 A   130 B   133 A   131 B   134 A   132 B   135 A                  
  3.493   3.496   3.503   3.507   3.512   3.520   3.523   3.541
133 B   134 B   136 A   135 B   137 A   136 B   138 A   137 B                  
  3.545   3.569   3.578   3.592   3.620   3.626   3.637   3.671
138 B   139 A   139 B   140 A   140 B   141 A   141 B   142 A                  
  3.679   3.691   3.701   3.729   3.732   3.744   3.775   3.780
142 B   143 B   143 A   144 B   144 A   145 A   145 B   146 A                  
  3.813   3.825   3.875   3.889   3.913   3.924   3.925   3.949
147 A   146 B   147 B   148 A   148 B   149 A   149 B   150 B                  
  3.959   3.992   3.994   4.010   4.011   4.018   4.040   4.042
150 A   151 A   151 B   152 A   152 B   153 A   153 B   154 A                  
  4.098   4.110   4.131   4.140   4.170   4.180   4.185   4.191
155 A   154 B   155 B   156 A   156 B   157 A   158 A   157 B                  
  4.198   4.203   4.209   4.235   4.273   4.283   4.295   4.314
159 A   158 B   160 A   159 B   161 A   160 B   161 B   162 A                  
  4.354   4.370   4.411   4.447   4.466   4.474   4.499   4.500
162 B   163 A   163 B   164 A   165 A   164 B   165 B   166 A                  
  4.510   4.592   4.622   4.635   4.646   4.654   4.692   4.701
167 A   166 B   168 A   167 B   169 A   168 B   170 A   171 A                  
  4.703   4.706   4.760   4.767   4.809   4.815   4.841   4.859
169 B   170 B   171 B   172 A   173 A   172 B   174 A   173 B                  
  4.883   4.979   4.996   5.016   5.042   5.068   5.071   5.083
175 A   174 B   175 B   176 A   177 A   178 A   176 B   179 A                  
  5.090   5.125   5.201   5.216   5.255   5.287   5.340   5.345
177 B   178 B   180 A   179 B   180 B   181 A   181 B   182 A                  
  5.392   5.407   5.431   5.454   5.586   5.605   5.636   5.683
183 A   182 B   183 B   184 A   185 A   184 B   185 B   186 A                  
  5.811   5.866   5.998   6.046   6.102   6.131   6.157   6.216
187 A   186 B   188 A   187 B   189 A   188 B   190 A   189 B                  
  6.382   6.536   6.584   6.674   6.826   9.436  10.875  11.782
190 B   191 A   191 B   192 A   192 B   193 A   193 B   194 A                  
 12.316  13.311  13.834  14.444  14.989
194 B   195 A   195 B   196 A   196 B                                          
 
 Beta MOs, Restricted
 -- Occupied --                  
-91.985 -91.985 -11.275 -11.274 -11.261 -11.261 -11.238 -11.238
  1 A     1 B     2 A     2 B     3 B     3 A     4 B     4 A                  
-11.237 -11.237  -8.986  -8.986  -6.667  -6.667  -6.667  -6.667
  5 B     5 A     6 B     6 A     7 B     7 A     8 A     8 B                  
 -6.666  -6.666  -1.197  -1.167  -1.035  -0.999  -0.985  -0.948
  9 A     9 B    10 A    10 B    11 A    12 A    11 B    12 B                  
 -0.809  -0.777  -0.749  -0.717  -0.707  -0.645  -0.574  -0.571
 13 A    14 A    13 B    14 B    15 A    15 B    16 A    17 A                  
 -0.562  -0.553  -0.541  -0.512  -0.512  -0.486  -0.467  -0.370
 16 B    17 B    18 A    19 A    18 B    20 A    19 B    20 B                  
 -0.352  -0.349  -0.283
 21 B    21 A    22 A                                                          
 -- Virtual --                   
  0.077   0.139   0.148   0.153   0.160   0.175   0.175   0.185
 22 B    23 A    24 A    23 B    25 A    24 B    26 A    25 B                  
  0.201   0.213   0.214   0.236   0.247   0.277   0.312   0.348
 27 A    28 A    26 B    29 A    27 B    28 B    30 A    29 B                  
  0.356   0.361   0.367   0.376   0.388   0.398   0.419   0.431
 31 A    30 B    32 A    33 A    31 B    32 B    33 B    34 A                  
  0.451   0.451   0.462   0.463   0.480   0.484   0.510   0.517
 35 A    34 B    36 A    35 B    37 A    36 B    37 B    38 A                  
  0.528   0.536   0.541   0.545   0.549   0.558   0.560   0.563
 39 A    38 B    40 A    39 B    41 A    40 B    42 A    41 B                  
  0.581   0.593   0.594   0.597   0.608   0.613   0.618   0.620
 42 B    43 A    44 A    43 B    44 B    45 A    46 A    45 B                  
  0.629   0.639   0.660   0.668   0.670   0.695   0.731   0.738
 47 A    46 B    48 A    49 A    47 B    48 B    50 A    51 A                  
  0.738   0.752   0.781   0.784   0.804   0.815   0.841   0.849
 49 B    50 B    52 A    51 B    52 B    53 A    54 A    53 B                  
  0.860   0.883   0.885   0.894   0.917   0.918   0.946   0.952
 55 A    54 B    56 A    55 B    57 A    56 B    58 A    57 B                  
  0.972   0.995   0.999   1.014   1.038   1.056   1.066   1.083
 58 B    59 A    59 B    60 A    60 B    61 B    61 A    62 B                  
  1.087   1.099   1.103   1.110   1.142   1.163   1.168   1.171
 62 A    63 A    64 A    63 B    64 B    65 A    65 B    66 A                  
  1.196   1.204   1.210   1.223   1.241   1.257   1.259   1.282
 66 B    67 A    67 B    68 A    68 B    69 A    69 B    70 B                  
  1.291   1.312   1.316   1.350   1.386   1.391   1.403   1.428
 70 A    71 B    71 A    72 A    72 B    73 A    73 B    74 A                  
  1.458   1.468   1.476   1.481   1.498   1.506   1.514   1.528
 74 B    75 A    76 A    75 B    76 B    77 A    78 A    77 B                  
  1.547   1.552   1.567   1.584   1.604   1.609   1.641   1.645
 78 B    79 A    79 B    80 A    80 B    81 A    82 A    81 B                  
  1.665   1.672   1.718   1.725   1.737   1.764   1.785   1.825
 82 B    83 A    83 B    84 A    84 B    85 A    85 B    86 A                  
  1.828   1.864   1.870   1.890   1.890   1.933   1.935   1.953
 86 B    87 A    87 B    88 A    88 B    89 A    89 B    90 B                  
  1.964   1.968   2.052   2.072   2.084   2.110   2.118   2.162
 90 A    91 A    91 B    92 A    92 B    93 B    93 A    94 A                  
  2.169   2.191   2.199   2.206   2.226   2.243   2.260   2.271
 94 B    95 B    95 A    96 A    96 B    97 A    97 B    98 B                  
  2.277   2.301   2.309   2.399   2.433   2.442   2.453   2.472
 98 A    99 A    99 B   100 A   100 B   101 A   101 B   102 B                  
  2.487   2.494   2.510   2.522   2.552   2.566   2.571   2.606
102 A   103 A   103 B   104 A   105 A   104 B   105 B   106 A                  
  2.636   2.647   2.662   2.681   2.729   2.733   2.761   2.763
106 B   107 B   107 A   108 A   108 B   109 A   110 A   109 B                  
  2.767   2.772   2.779   2.798   2.821   2.855   2.893   2.898
111 A   110 B   111 B   112 A   112 B   113 A   113 B   114 A                  
  2.902   2.920   2.957   2.962   2.997   3.004   3.009   3.015
114 B   115 A   116 A   115 B   116 B   117 A   117 B   118 A                  
  3.034   3.040   3.089   3.108   3.152   3.154   3.168   3.185
118 B   119 A   119 B   120 A   120 B   121 A   121 B   122 A                  
  3.204   3.220   3.230   3.243   3.257   3.258   3.267   3.293
122 B   123 B   123 A   124 B   125 B   124 A   125 A   126 A                  
  3.302   3.316   3.319   3.321   3.345   3.357   3.380   3.393
127 A   126 B   127 B   128 A   129 A   128 B   129 B   130 A                  
  3.417   3.420   3.425   3.439   3.453   3.456   3.469   3.470
131 A   132 A   130 B   133 A   131 B   134 A   132 B   135 A                  
  3.493   3.496   3.503   3.507   3.512   3.520   3.523   3.541
133 B   134 B   136 A   135 B   137 A   136 B   138 A   137 B                  
  3.545   3.569   3.578   3.592   3.620   3.626   3.637   3.671
138 B   139 A   139 B   140 A   140 B   141 A   141 B   142 A                  
  3.679   3.691   3.701   3.729   3.732   3.744   3.775   3.780
142 B   143 B   143 A   144 B   144 A   145 A   145 B   146 A                  
  3.813   3.825   3.875   3.889   3.913   3.924   3.925   3.949
147 A   146 B   147 B   148 A   148 B   149 A   149 B   150 B                  
  3.959   3.992   3.994   4.010   4.011   4.018   4.040   4.042
150 A   151 A   151 B   152 A   152 B   153 A   153 B   154 A                  
  4.098   4.110   4.131   4.140   4.170   4.180   4.185   4.191
155 A   154 B   155 B   156 A   156 B   157 A   158 A   157 B                  
  4.198   4.203   4.209   4.235   4.273   4.283   4.295   4.314
159 A   158 B   160 A   159 B   161 A   160 B   161 B   162 A                  
  4.354   4.370   4.411   4.447   4.466   4.474   4.499   4.500
162 B   163 A   163 B   164 A   165 A   164 B   165 B   166 A                  
  4.510   4.592   4.622   4.635   4.646   4.654   4.692   4.701
167 A   166 B   168 A   167 B   169 A   168 B   170 A   171 A                  
  4.703   4.706   4.760   4.767   4.809   4.815   4.841   4.859
169 B   170 B   171 B   172 A   173 A   172 B   174 A   173 B                  
  4.883   4.979   4.996   5.016   5.042   5.068   5.071   5.083
175 A   174 B   175 B   176 A   177 A   178 A   176 B   179 A                  
  5.090   5.125   5.201   5.216   5.255   5.287   5.340   5.345
177 B   178 B   180 A   179 B   180 B   181 A   181 B   182 A                  
  5.392   5.407   5.431   5.454   5.586   5.605   5.636   5.683
183 A   182 B   183 B   184 A   185 A   184 B   185 B   186 A                  
  5.811   5.866   5.998   6.046   6.102   6.131   6.157   6.216
187 A   186 B   188 A   187 B   189 A   188 B   190 A   189 B                  
  6.382   6.536   6.584   6.674   6.826   9.436  10.875  11.782
190 B   191 A   191 B   192 A   192 B   193 A   193 B   194 A                  
 12.316  13.311  13.834  14.444  14.989
194 B   195 A   195 B   196 A   196 B                                          
 --------------------------------------------------------------
 
          Ground-State Mulliken Net Atomic Charges

     Atom                 Charge (a.u.)
  ----------------------------------------
      1 S                     0.110729
      2 C                    -0.238007
      3 C                    -0.198274
      4 C                    -0.193706
      5 C                    -0.009945
      6 H                     0.169941
      7 C                    -0.009945
      8 S                     0.110729
      9 C                    -0.193706
     10 C                    -0.238007
     11 C                    -0.198274
     12 H                     0.174043
     13 H                     0.185220
     14 H                     0.174043
     15 H                     0.185220
     16 H                     0.169941
  ----------------------------------------
  Sum of atomic charges =    -0.000000

 -----------------------------------------------------------------
                    Cartesian Multipole Moments
 -----------------------------------------------------------------
    Charge (ESU x 10^10)
                -0.0000
    Dipole Moment (Debye)
         X      -0.0000      Y       0.0000      Z      -0.6995
       Tot       0.6995
    Quadrupole Moments (Debye-Ang)
        XX     -61.0855     XY      -0.4795     YY     -77.2893
        XZ       0.0000     YZ      -0.0000     ZZ     -68.2498
    Octopole Moments (Debye-Ang^2)
       XXX      -0.0000    XXY      -0.0000    XYY      -0.0000
       YYY       0.0000    XXZ       5.3093    XYZ       7.0384
       YYZ       2.1105    XZZ      -0.0000    YZZ       0.0000
       ZZZ      -6.6889
    Hexadecapole Moments (Debye-Ang^3)
      XXXX   -1823.4651   XXXY      -3.5691   XXYY    -403.8682
      XYYY       1.6541   YYYY    -133.9868   XXXZ       0.0000
      XXYZ      -0.0000   XYYZ       0.0000   YYYZ      -0.0000
      XXZZ    -396.6920   XYZZ      -7.8436   YYZZ    -114.4994
      XZZZ       0.0000   YZZZ      -0.0000   ZZZZ    -516.3635
 -----------------------------------------------------------------
Archival summary:
1\1\nid01260\OPT\MP2\BasisUnspecified\286\MonMar616:35:152017MonMar616:35:152017\0\\#,OPT,MP2,BasisUnspecified,\\0,1\S\C,1,1.7063\H,2,1.07172,1,120.287\C,2,1.37303,1,111.401,3,-179.996,0\H,4,1.07435,2,123.027,1,179.934,0\C,4,1.40366,2,112.627,1,0.708542,0\H,6,1.07514,4,124.609,2,177.995,0\C,6,1.37949,4,113.108,2,-0.348631,0\C,8,1.43839,6,127.831,4,-179.121,0\C,9,1.37949,8,127.831,6,30,0\H,10,1.07514,9,122.262,8,2.49158,0\C,10,1.40366,9,113.108,8,-179.121,0\H,12,1.07435,10,124.341,9,-179.562,0\C,12,1.37303,10,112.627,9,-0.348631,0\H,14,1.07172,12,128.312,10,-179.287,0\S,14,1.7063,12,111.401,10,0.708542,0\\HF=-1101.59815\MP2=-1103.41358\\@

 Total job time:  9290.26s(wall), 47036.08s(cpu) 
 Mon Mar  6 16:35:15 2017

        *************************************************************
        *                                                           *
        *  Thank you very much for using Q-Chem.  Have a nice day.  *
        *                                                           *
        *************************************************************


0 sent ACK to 0 
now end server 0 ... 
