srun -N 1 --ntasks-per-node 1 --cpus-per-task 64 --cpu_bind=cores --nodelist nid01258 /global/project/projectdirs/jcesr/qchem/qc44/cnl_qc441/dist/exe/qcprog.cori.haswell.exe .pt_mp2_90.0.in.29363.qcin.1 /dev/shm/eg_qchem/qchem29363/
Process 0 of 1 is on nid01258 - thread support 0
initial socket setup ...start
initial socket setup ...done 
now start server 0 ... 
nid01258 10.128.4
Q-Chem Developer Version! Running on 10.128.4.*
                  Welcome to Q-Chem
     A Quantum Leap Into The Future Of Chemistry


 Q-Chem 4.4, Q-Chem, Inc., Pleasanton, CA (2016)

 Y. Shao,  Z. Gan,  E. Epifanovsky,  A. T. B. Gilbert,  M. Wormit,  
 J. Kussmann,  A. W. Lange,  A. Behn,  J. Deng,  X. Feng,  D. Ghosh,  
 M. Goldey,  P. R. Horn,  L. D. Jacobson,  I. Kaliman,  F.Rob,  
 R. Z. Khaliullin,  T. Kus,  A. Landau,  J. Liu,  E. I. Proynov,  Y. M. Rhee,  
 R. M. Richard,  M. A. Rohrdanz,  R. P. Steele,  E. J. Sundstrom,  
 H. L. Woodcock III,  P. M. Zimmerman,  D. Zuev,  B. Albrecht,  E. Alguire,  
 B. Austin,  S. A. Baeppler,  G. J. O. Beran,  Y. A. Bernard,  E. Berquist,  
 K. Brandhorst,  K. B. Bravaya,  S. T. Brown,  D. Casanova,  C.-M. Chang,  
 Y. Chen,  S. H. Chien,  K. D. Closser,  M. P. Coons,  D. L. Crittenden,  
 S. Dasgupta,  M. Diedenhofen,  R. A. DiStasio Jr.,  H. Do,  A. D. Dutoi,  
 R. G. Edgar,  P.-T. Fang,  S. Fatehi,  Q. Feng,  L. Fusti-Molnar,  
 A. Ghysels,  A. Golubeva-Zadorozhnaya,  J. Gomes,  A. Gunina,  
 M. W. D. Hanson-Heine,  P. H. P. Harbach,  A. W. Hauser,  E. G. Hohenstein,  
 Z. C. Holden,  K. Hui,  T.-C. Jagau,  H. Ji,  B. Kaduk,  K. Khistyaev,  
 Jaehoon Kim,  Jihan Kim,  R. A. King,  P. Klunzinger,  D. Kosenkov,  
 T. Kowalczyk,  C. M. Krauter,  A. Kunitsa,  K. U. Lao,  A. Laurent,  
 K. V. Lawler,  D. Lefrancois,  S. Lehtola,  S. V. Levchenko,  C. Y. Lin,  
 Y.-S. Lin,  F. Liu,  E. Livshits,  R. C. Lochan,  A. Luenser,  P. Manohar,  
 S. F. Manzer,  S.-P. Mao,  Y. Mao,  N. Mardirossian,  A. V. Marenich,  
 L. A. Martinez-Martinez,  S. A. Maurer,  N. J. Mayhall,  J.-M. Mewes,  
 A. F. Morrison,  K. Nanda,  C. M. Oana,  R. Olivares-Amaya,  D. P. O'Neill,  
 J. A. Parkhill,  T. M. Perrine,  R. Peverati,  P. A. Pieniazek,  F. Plasser,  
 A. Prociuk,  D. R. Rehn,  E. Rosta,  N. J. Russ,  N. Sergueev,  
 S. M. Sharada,  S. Sharma,  D. W. Small,  A. Sodt,  T. Stauch,  T. Stein,  
 D. Stuck,  Y.-C. Su,  A. J. W. Thom,  T. Tsuchimochi,  L. Vogt,  O. Vydrov,  
 T. Wang,  M. A. Watson,  J. Wenzel,  A. White,  C. F. Williams,  
 V. Vanovschi,  S. Yeganeh,  S. R. Yost,  Z.-Q. You,  I. Y. Zhang,  X. Zhang,  
 Y. Zhao,  B. R. Brooks,  G. K. L. Chan,  D. M. Chipman,  C. J. Cramer,  
 W. A. Goddard III,  M. S. Gordon,  W. J. Hehre,  A. Klamt,  
 H. F. Schaefer III,  M. W. Schmidt,  C. D. Sherrill,  D. G. Truhlar,  
 A. Warshel,  X. Xu,  A. Aspuru-Guzik,  R. Baer,  A. T. Bell,  N. A. Besley,  
 J.-D. Chai,  A. Dreuw,  B. D. Dunietz,  T. R. Furlani,  S. R. Gwaltney,  
 C.-P. Hsu,  Y. Jung,  J. Kong,  D. S. Lambrecht,  W. Liang,  C. Ochsenfeld,  
 V. A. Rassolov,  L. V. Slipchenko,  J. E. Subotnik,  T. Van Voorhis,  
 J. M. Herbert,  A. I. Krylov,  P. M. W. Gill,  M. Head-Gordon

 Contributors to earlier versions of Q-Chem not listed above: 
 R. D. Adamson,  J. Baker,  E. F. C. Byrd,  A. K. Chakraborty,  C.-L. Cheng,  
 H. Dachsel,  R. J. Doerksen,  G. Hawkins,  A. Heyden,  S. Hirata,  
 G. Kedziora,  F. J. Keil,  C. Kelley,  P. P. Korambath,  W. Kurlancheek,  
 A. M. Lee,  M. S. Lee,  D. Liotard,  I. Lotan,  P. E. Maslen,  N. Nair,  
 D. Neuhauser,  R. Olson,  B. Peters,  J. Ritchie,  N. E. Schultz,  
 N. Shenvi,  A. C. Simmonett,  K. S. Thanthiriwatte,  Q. Wu,  W. Zhang

 Please cite Q-Chem as follows:
 Y. Shao et al., Mol. Phys. 113, 184-215 (2015)
 DOI: 10.1080/00268976.2014.952696

 Q-Chem 4.4.1 for Intel X86 EM64T Linux

 Parts of Q-Chem use Armadillo 5.200.1 (Boston Tea Smuggler).
 http://arma.sourceforge.net/

 Q-Chem begins on Mon Mar  6 14:00:22 2017  

Host: nid01196
0

     Scratch files written to /dev/shm/eg_qchem/qchem29363//
 Parallel job on  1  processors

Checking the input file for inconsistencies... 	...done.

--------------------------------------------------------------
User input:
--------------------------------------------------------------
$molecule
 0  1
 S           1.80900300       -1.15938900        0.25896800
 C           3.16466000       -0.14246800        0.05606700
 C           2.78757500        1.14089100       -0.25226100
 C           1.39402000        1.28822000       -0.33563400
 C           0.70898100        0.11689900       -0.08798100
 H           0.89277600        2.20524100       -0.58940400
 C          -0.70898100       -0.11689900       -0.08798100
 S          -1.62965784        0.07167815        1.35289577
 C          -1.52361882       -0.50221585       -1.13225083
 C          -3.08497482       -0.34081480        0.56232315
 C          -2.87170456       -0.63065347       -0.76235754
 H          -3.66028401       -0.91429980       -1.43455520
 H           4.15569300       -0.53353100        0.17259300
 H           3.49202900        1.93475000       -0.41867900
 H          -4.01003368       -0.34987856        1.10346911
 H          -1.14767135       -0.65932565       -2.12751576
$end


$rem
         jobtype = opt
        exchange = hf
           basis = cc-pvtz
  max_scf_cycles = 100
      mem_static = 6200
       mem_total = 62000
          method = mp2
$end


$opt
CONSTRAINT
tors 4 5 7 9 90.0
ENDCONSTRAINT
$end

--------------------------------------------------------------
 Atom   8: ( -1.6943957838,  0.8735965635,  0.8067336500)
         ->( -1.6943957849,  0.8735967201,  0.8067334857)
 Atom  10: ( -3.1323759644,  0.1631374617,  0.2231551392)
         ->( -3.1323759680,  0.1631375005,  0.2231551036)
 Atom  11: ( -2.8710425198, -0.7833377990, -0.7360940466)
         ->( -2.8710425165, -0.7833379376, -0.7360938985)
 Atom   9: ( -1.4992052914, -0.9168435625, -1.0023481744)
         ->( -1.4992052885, -0.9168437569, -1.0023479978)
 Atom   7: ( -0.7147943722, -0.0734059698, -0.2434569650)
         ->( -0.7147943723, -0.0734060183, -0.2434569512)
 Atom  16: ( -1.0834705535, -1.5842442546, -1.7360464871)
         ->( -1.0834705513, -1.5842445832, -1.7360461921)
 Atom  14: (  3.6417271422,  1.3468449825, -1.2287068487)
         ->(  3.6417271388,  1.3468447446, -1.2287071036)
 Atom  15: ( -4.0831266238,  0.4721383581,  0.6094796478)
         ->( -4.0831266190,  0.4721384750,  0.6094795567)
 ----------------------------------------------------------------
             Standard Nuclear Orientation (Angstroms)
    I     Atom           X                Y                Z
 ----------------------------------------------------------------
    1      S       1.6943957849    -0.8735967201     0.8067334857
    2      C       3.1323759680    -0.1631375005     0.2231551036
    3      C       2.8710425165     0.7833379376    -0.7360938985
    4      C       1.4992052885     0.9168437569    -1.0023479978
    5      C       0.7147943723     0.0734060183    -0.2434569512
    6      H       1.0834705513     1.5842445832    -1.7360461921
    7      C      -0.7147943723    -0.0734060183    -0.2434569512
    8      S      -1.6943957849     0.8735967201     0.8067334857
    9      C      -1.4992052885    -0.9168437569    -1.0023479978
   10      C      -3.1323759680     0.1631375005     0.2231551036
   11      C      -2.8710425165    -0.7833379376    -0.7360938985
   12      H      -3.6417271388    -1.3468447446    -1.2287071036
   13      H       4.0831266190    -0.4721384750     0.6094795567
   14      H       3.6417271388     1.3468447446    -1.2287071036
   15      H      -4.0831266190     0.4721384750     0.6094795567
   16      H      -1.0834705513    -1.5842445832    -1.7360461921
 ----------------------------------------------------------------
 Molecular Point Group                 C2    NOp =  2
 Largest Abelian Subgroup              C2    NOp =  2
 Nuclear Repulsion Energy =   636.2582913575 hartrees
 There are       43 alpha and       43 beta electrons
 Requested basis set is cc-pVTZ
 There are 140 shells and 392 basis functions

 Total QAlloc Memory Limit  62000 MB
 Mega-Array Size      6061 MB
 MEM_STATIC part      6200 MB
 A cutoff of  1.0D-11 yielded   8050 shell pairs
 There are     62646 function pairs (     81684 Cartesian)
 
 -------------------------------------------------------
 OpenMP Integral Computing Module                       
 Release: version 1.0, May 2013, Q-Chem Inc. Pittsburgh 
 -------------------------------------------------------
 Integral Job Info:
 Integral job number is                      11
 Integral operator is                         1
 short-range coefficients                     0
 long-range coefficients              100000000
 Omega coefficients                           0
 if combine SR and LR in K                    0
 Integral screening is                        0
 Integral computing path is                   2
 max size of driver memory is            800000
 size of driver memory is                776718
 size of scratch memory is             26248924
 max col of scratch BK array              10000
 max len of scratch array in speh3          662
 max len of scratch index in speh4           32
 max int batch size is                      520
 min int batch size is                       52
 fixed nKL is                                52
 max L of basis functions is                  3
 order of int derivative is                   0
 number of shells is                        140
 number of basis is                         448
 number of cartesian basis is               448
 number of contracted shell pairs          8050
 number of primitive shell pairs          28560
 maxK2 (contraction) of shell pair          121
 max number of K2 of shell pair               1
 max number of CS2 of shell pair           1062
 max number of PS2 of shell pair           3066
 mem total for path MDJ                  225820
 -------------------------------------------------------
 Smallest overlap matrix eigenvalue = 9.74E-05

 Scale SEOQF with 1.000000e-01/1.000000e-01/1.000000e-01

 Standard Electronic Orientation quadrupole field applied
 Nucleus-field energy     =     0.0000000127 hartrees
 Guess from superposition of atomic densities
 Warning:  Energy on first SCF cycle will be non-variational
 A restricted Hartree-Fock SCF calculation will be
 performed using Pulay DIIS extrapolation
 SCF converges when DIIS error is below 1.0E-08
 using 16 threads for integral computing 
 ---------------------------------------
  Cycle       Energy         DIIS Error
 ---------------------------------------
    1   -1106.0777775463      2.98E-02
    2   -1090.8385151418      1.88E-02
    3   -1101.0004391918      5.02E-03
    4   -1101.5196811251      1.92E-03
    5   -1101.5863351582      6.28E-04
    6   -1101.5938811557      2.59E-04
    7   -1101.5953947224      5.31E-05
    8   -1101.5955844393      2.39E-05
    9   -1101.5956302393      1.08E-05
   10   -1101.5956434495      4.48E-06
   11   -1101.5956450373      1.51E-06
   12   -1101.5956451748      5.21E-07
   13   -1101.5956451914      2.07E-07
   14   -1101.5956451951      9.01E-08
   15   -1101.5956451967      3.51E-08
   16   -1101.5956451952      7.55E-09 Convergence criterion met
 ---------------------------------------
 SCF time:  CPU 641.11 s  wall 40.13 s
 SCF   energy in the final basis set = -1101.5956451952
 Total energy in the final basis set = -1101.5956451952
 
 Components of the MP2 correlation energy:
        aaaa  correlation energy =        -0.2321448713 au
        abab  correlation energy =        -1.3506985882 au
        bbbb  correlation energy =        -0.2321448713 au
        non-Brillouin singles    =        -0.0000000000 au

 Total  MP2   correlation energy =        -1.8149883308 au
        MP2         total energy =     -1103.4106335260 au

  Entering Z-vector solver.
   1         0           1      0.000266    0.000266
   2         0           1      0.000118    0.000118
   3         0           1      0.000049    0.000049
   4         0           1      0.000024    0.000024
   5         0           1      0.000007    0.000007
   6         0           1      0.000003    0.000003
   7         1           0      0.000000    0.000000    Roots Converged
 
 --------------------------------------------------------------
             Orbital Energies (a.u.) and Symmetries
 --------------------------------------------------------------
 
 Alpha MOs, Restricted
 -- Occupied --                  
-91.983 -91.983 -11.271 -11.270 -11.261 -11.261 -11.238 -11.238
  1 B     1 A     2 A     2 B     3 B     3 A     4 A     4 B                  
-11.236 -11.236  -8.985  -8.985  -6.666  -6.666  -6.665  -6.665
  5 B     5 A     6 B     6 A     7 A     7 B     8 A     8 B                  
 -6.665  -6.665  -1.194  -1.165  -1.034  -0.991  -0.991  -0.948
  9 B     9 A    10 A    10 B    11 A    12 A    11 B    12 B                  
 -0.808  -0.763  -0.762  -0.718  -0.703  -0.645  -0.571  -0.567
 13 A    13 B    14 A    14 B    15 A    15 B    16 A    16 B                  
 -0.565  -0.556  -0.538  -0.511  -0.511  -0.475  -0.475  -0.355
 17 A    17 B    18 A    18 B    19 A    19 B    20 A    21 A                  
 -0.343  -0.322  -0.322
 20 B    21 B    22 A                                                          
 -- Virtual --                   
  0.107   0.109   0.150   0.153   0.164   0.172   0.184   0.188
 23 A    22 B    23 B    24 A    25 A    24 B    26 A    27 A                  
  0.189   0.204   0.208   0.218   0.246   0.247   0.317   0.322
 25 B    28 A    26 B    27 B    28 B    29 A    30 A    29 B                  
  0.346   0.354   0.371   0.373   0.389   0.401   0.418   0.425
 30 B    31 A    31 B    32 A    33 A    32 B    33 B    34 A                  
  0.443   0.453   0.454   0.466   0.467   0.478   0.483   0.491
 35 A    36 A    34 B    37 A    35 B    36 B    38 A    37 B                  
  0.512   0.521   0.540   0.545   0.547   0.556   0.572   0.574
 38 B    39 A    39 B    40 B    40 A    41 A    41 B    42 A                  
  0.578   0.585   0.598   0.603   0.606   0.614   0.622   0.628
 43 A    42 B    44 A    43 B    45 A    44 B    46 A    45 B                  
  0.638   0.641   0.648   0.672   0.673   0.692   0.700   0.726
 47 A    46 B    47 B    48 A    48 B    49 A    50 A    49 B                  
  0.751   0.753   0.785   0.790   0.804   0.823   0.846   0.856
 51 A    50 B    51 B    52 A    52 B    53 A    53 B    54 A                  
  0.858   0.868   0.881   0.890   0.903   0.921   0.933   0.955
 54 B    55 A    55 B    56 B    56 A    57 A    57 B    58 A                  
  0.970   0.972   0.995   1.004   1.020   1.034   1.059   1.079
 59 A    58 B    59 B    60 A    61 A    60 B    61 B    62 A                  
  1.100   1.107   1.114   1.121   1.145   1.154   1.175   1.177
 62 B    63 A    63 B    64 A    65 A    64 B    65 B    66 A                  
  1.189   1.194   1.220   1.223   1.236   1.264   1.291   1.303
 67 A    66 B    68 A    67 B    69 A    68 B    70 A    69 B                  
  1.311   1.311   1.324   1.356   1.366   1.385   1.402   1.435
 70 B    71 A    71 B    72 A    72 B    73 A    73 B    74 A                  
  1.435   1.460   1.477   1.490   1.499   1.513   1.520   1.542
 74 B    75 B    75 A    76 A    76 B    77 B    77 A    78 B                  
  1.547   1.562   1.571   1.587   1.594   1.617   1.634   1.647
 79 B    78 A    79 A    80 B    80 A    81 A    81 B    82 A                  
  1.680   1.687   1.708   1.734   1.743   1.761   1.781   1.823
 82 B    83 A    83 B    84 B    84 A    85 B    85 A    86 A                  
  1.825   1.863   1.890   1.893   1.901   1.913   1.927   1.958
 86 B    87 B    87 A    88 B    88 A    89 B    89 A    90 B                  
  1.959   2.029   2.036   2.059   2.067   2.131   2.132   2.143
 90 A    91 B    91 A    92 B    92 A    93 B    93 A    94 A                  
  2.165   2.185   2.195   2.199   2.215   2.245   2.256   2.259
 94 B    95 A    95 B    96 A    96 B    97 A    97 B    98 A                  
  2.288   2.301   2.326   2.393   2.423   2.423   2.455   2.480
 98 B    99 B    99 A   100 A   100 B   101 A   102 A   101 B                  
  2.493   2.510   2.523   2.537   2.543   2.558   2.581   2.604
103 A   102 B   103 B   104 B   104 A   105 A   105 B   106 A                  
  2.607   2.643   2.663   2.686   2.715   2.722   2.744   2.766
106 B   107 B   107 A   108 A   108 B   109 B   109 A   110 A                  
  2.770   2.775   2.780   2.801   2.801   2.871   2.887   2.900
110 B   111 B   111 A   112 A   112 B   113 A   114 A   113 B                  
  2.922   2.929   2.934   2.973   3.006   3.012   3.017   3.026
114 B   115 B   115 A   116 A   117 A   116 B   118 A   117 B                  
  3.050   3.065   3.094   3.145   3.149   3.162   3.176   3.196
119 A   118 B   119 B   120 B   120 A   121 B   121 A   122 A                  
  3.211   3.225   3.235   3.239   3.252   3.269   3.285   3.285
122 B   123 A   123 B   124 A   124 B   125 A   126 A   125 B                  
  3.298   3.301   3.325   3.333   3.345   3.368   3.380   3.401
126 B   127 A   128 A   127 B   128 B   129 A   129 B   130 B                  
  3.410   3.419   3.423   3.448   3.450   3.461   3.467   3.476
130 A   131 B   131 A   132 A   133 A   132 B   134 A   133 B                  
  3.484   3.496   3.510   3.510   3.524   3.524   3.536   3.539
135 A   134 B   135 B   136 A   137 A   136 B   138 A   137 B                  
  3.552   3.581   3.587   3.596   3.609   3.617   3.658   3.660
138 B   139 A   140 A   139 B   140 B   141 A   142 A   141 B                  
  3.698   3.699   3.729   3.733   3.744   3.747   3.778   3.781
142 B   143 A   144 A   143 B   144 B   145 A   146 A   147 A                  
  3.794   3.836   3.872   3.874   3.895   3.912   3.930   3.941
145 B   146 B   147 B   148 A   148 B   149 A   149 B   150 A                  
  3.966   3.970   4.002   4.015   4.024   4.024   4.034   4.054
150 B   151 A   151 B   152 A   152 B   153 A   154 A   153 B                  
  4.079   4.106   4.119   4.157   4.166   4.169   4.190   4.193
154 B   155 B   155 A   156 A   157 A   156 B   158 A   157 B                  
  4.196   4.211   4.234   4.256   4.272   4.284   4.308   4.316
158 B   159 A   160 A   159 B   160 B   161 A   161 B   162 A                  
  4.346   4.378   4.401   4.413   4.456   4.478   4.515   4.527
162 B   163 A   163 B   164 A   164 B   165 A   165 B   166 A                  
  4.545   4.545   4.585   4.609   4.648   4.680   4.697   4.704
167 A   166 B   167 B   168 A   169 A   168 B   170 A   169 B                  
  4.717   4.729   4.752   4.764   4.782   4.824   4.854   4.889
171 A   170 B   171 B   172 B   172 A   173 A   173 B   174 A                  
  4.901   4.957   4.979   4.998   5.047   5.069   5.076   5.088
174 B   175 A   176 A   175 B   176 B   177 A   178 A   177 B                  
  5.094   5.101   5.195   5.238   5.244   5.300   5.305   5.379
179 A   178 B   179 B   180 A   180 B   181 A   181 B   182 A                  
  5.387   5.420   5.422   5.494   5.573   5.599   5.662   5.667
182 B   183 A   183 B   184 A   184 B   185 A   186 A   185 B                  
  5.814   5.875   5.954   6.019   6.096   6.129   6.182   6.190
186 B   187 A   187 B   188 A   188 B   189 A   189 B   190 A                  
  6.207   6.543   6.561   6.709   6.754   9.514  10.715  11.921
190 B   191 A   191 B   192 A   192 B   193 A   193 B   194 A                  
 12.248  13.501  13.572  14.570  14.654
194 B   195 A   195 B   196 A   196 B                                          
 
 Beta MOs, Restricted
 -- Occupied --                  
-91.983 -91.983 -11.271 -11.270 -11.261 -11.261 -11.238 -11.238
  1 B     1 A     2 A     2 B     3 B     3 A     4 A     4 B                  
-11.236 -11.236  -8.985  -8.985  -6.666  -6.666  -6.665  -6.665
  5 B     5 A     6 B     6 A     7 A     7 B     8 A     8 B                  
 -6.665  -6.665  -1.194  -1.165  -1.034  -0.991  -0.991  -0.948
  9 B     9 A    10 A    10 B    11 A    12 A    11 B    12 B                  
 -0.808  -0.763  -0.762  -0.718  -0.703  -0.645  -0.571  -0.567
 13 A    13 B    14 A    14 B    15 A    15 B    16 A    16 B                  
 -0.565  -0.556  -0.538  -0.511  -0.511  -0.475  -0.475  -0.355
 17 A    17 B    18 A    18 B    19 A    19 B    20 A    21 A                  
 -0.343  -0.322  -0.322
 20 B    21 B    22 A                                                          
 -- Virtual --                   
  0.107   0.109   0.150   0.153   0.164   0.172   0.184   0.188
 23 A    22 B    23 B    24 A    25 A    24 B    26 A    27 A                  
  0.189   0.204   0.208   0.218   0.246   0.247   0.317   0.322
 25 B    28 A    26 B    27 B    28 B    29 A    30 A    29 B                  
  0.346   0.354   0.371   0.373   0.389   0.401   0.418   0.425
 30 B    31 A    31 B    32 A    33 A    32 B    33 B    34 A                  
  0.443   0.453   0.454   0.466   0.467   0.478   0.483   0.491
 35 A    36 A    34 B    37 A    35 B    36 B    38 A    37 B                  
  0.512   0.521   0.540   0.545   0.547   0.556   0.572   0.574
 38 B    39 A    39 B    40 B    40 A    41 A    41 B    42 A                  
  0.578   0.585   0.598   0.603   0.606   0.614   0.622   0.628
 43 A    42 B    44 A    43 B    45 A    44 B    46 A    45 B                  
  0.638   0.641   0.648   0.672   0.673   0.692   0.700   0.726
 47 A    46 B    47 B    48 A    48 B    49 A    50 A    49 B                  
  0.751   0.753   0.785   0.790   0.804   0.823   0.846   0.856
 51 A    50 B    51 B    52 A    52 B    53 A    53 B    54 A                  
  0.858   0.868   0.881   0.890   0.903   0.921   0.933   0.955
 54 B    55 A    55 B    56 B    56 A    57 A    57 B    58 A                  
  0.970   0.972   0.995   1.004   1.020   1.034   1.059   1.079
 59 A    58 B    59 B    60 A    61 A    60 B    61 B    62 A                  
  1.100   1.107   1.114   1.121   1.145   1.154   1.175   1.177
 62 B    63 A    63 B    64 A    65 A    64 B    65 B    66 A                  
  1.189   1.194   1.220   1.223   1.236   1.264   1.291   1.303
 67 A    66 B    68 A    67 B    69 A    68 B    70 A    69 B                  
  1.311   1.311   1.324   1.356   1.366   1.385   1.402   1.435
 70 B    71 A    71 B    72 A    72 B    73 A    73 B    74 A                  
  1.435   1.460   1.477   1.490   1.499   1.513   1.520   1.542
 74 B    75 B    75 A    76 A    76 B    77 B    77 A    78 B                  
  1.547   1.562   1.571   1.587   1.594   1.617   1.634   1.647
 79 B    78 A    79 A    80 B    80 A    81 A    81 B    82 A                  
  1.680   1.687   1.708   1.734   1.743   1.761   1.781   1.823
 82 B    83 A    83 B    84 B    84 A    85 B    85 A    86 A                  
  1.825   1.863   1.890   1.893   1.901   1.913   1.927   1.958
 86 B    87 B    87 A    88 B    88 A    89 B    89 A    90 B                  
  1.959   2.029   2.036   2.059   2.067   2.131   2.132   2.143
 90 A    91 B    91 A    92 B    92 A    93 B    93 A    94 A                  
  2.165   2.185   2.195   2.199   2.215   2.245   2.256   2.259
 94 B    95 A    95 B    96 A    96 B    97 A    97 B    98 A                  
  2.288   2.301   2.326   2.393   2.423   2.423   2.455   2.480
 98 B    99 B    99 A   100 A   100 B   101 A   102 A   101 B                  
  2.493   2.510   2.523   2.537   2.543   2.558   2.581   2.604
103 A   102 B   103 B   104 B   104 A   105 A   105 B   106 A                  
  2.607   2.643   2.663   2.686   2.715   2.722   2.744   2.766
106 B   107 B   107 A   108 A   108 B   109 B   109 A   110 A                  
  2.770   2.775   2.780   2.801   2.801   2.871   2.887   2.900
110 B   111 B   111 A   112 A   112 B   113 A   114 A   113 B                  
  2.922   2.929   2.934   2.973   3.006   3.012   3.017   3.026
114 B   115 B   115 A   116 A   117 A   116 B   118 A   117 B                  
  3.050   3.065   3.094   3.145   3.149   3.162   3.176   3.196
119 A   118 B   119 B   120 B   120 A   121 B   121 A   122 A                  
  3.211   3.225   3.235   3.239   3.252   3.269   3.285   3.285
122 B   123 A   123 B   124 A   124 B   125 A   126 A   125 B                  
  3.298   3.301   3.325   3.333   3.345   3.368   3.380   3.401
126 B   127 A   128 A   127 B   128 B   129 A   129 B   130 B                  
  3.410   3.419   3.423   3.448   3.450   3.461   3.467   3.476
130 A   131 B   131 A   132 A   133 A   132 B   134 A   133 B                  
  3.484   3.496   3.510   3.510   3.524   3.524   3.536   3.539
135 A   134 B   135 B   136 A   137 A   136 B   138 A   137 B                  
  3.552   3.581   3.587   3.596   3.609   3.617   3.658   3.660
138 B   139 A   140 A   139 B   140 B   141 A   142 A   141 B                  
  3.698   3.699   3.729   3.733   3.744   3.747   3.778   3.781
142 B   143 A   144 A   143 B   144 B   145 A   146 A   147 A                  
  3.794   3.836   3.872   3.874   3.895   3.912   3.930   3.941
145 B   146 B   147 B   148 A   148 B   149 A   149 B   150 A                  
  3.966   3.970   4.002   4.015   4.024   4.024   4.034   4.054
150 B   151 A   151 B   152 A   152 B   153 A   154 A   153 B                  
  4.079   4.106   4.119   4.157   4.166   4.169   4.190   4.193
154 B   155 B   155 A   156 A   157 A   156 B   158 A   157 B                  
  4.196   4.211   4.234   4.256   4.272   4.284   4.308   4.316
158 B   159 A   160 A   159 B   160 B   161 A   161 B   162 A                  
  4.346   4.378   4.401   4.413   4.456   4.478   4.515   4.527
162 B   163 A   163 B   164 A   164 B   165 A   165 B   166 A                  
  4.545   4.545   4.585   4.609   4.648   4.680   4.697   4.704
167 A   166 B   167 B   168 A   169 A   168 B   170 A   169 B                  
  4.717   4.729   4.752   4.764   4.782   4.824   4.854   4.889
171 A   170 B   171 B   172 B   172 A   173 A   173 B   174 A                  
  4.901   4.957   4.979   4.998   5.047   5.069   5.076   5.088
174 B   175 A   176 A   175 B   176 B   177 A   178 A   177 B                  
  5.094   5.101   5.195   5.238   5.244   5.300   5.305   5.379
179 A   178 B   179 B   180 A   180 B   181 A   181 B   182 A                  
  5.387   5.420   5.422   5.494   5.573   5.599   5.662   5.667
182 B   183 A   183 B   184 A   184 B   185 A   186 A   185 B                  
  5.814   5.875   5.954   6.019   6.096   6.129   6.182   6.190
186 B   187 A   187 B   188 A   188 B   189 A   189 B   190 A                  
  6.207   6.543   6.561   6.709   6.754   9.514  10.715  11.921
190 B   191 A   191 B   192 A   192 B   193 A   193 B   194 A                  
 12.248  13.501  13.572  14.570  14.654
194 B   195 A   195 B   196 A   196 B                                          
 --------------------------------------------------------------
 
          Ground-State Mulliken Net Atomic Charges

     Atom                 Charge (a.u.)
  ----------------------------------------
      1 S                     0.130236
      2 C                    -0.239292
      3 C                    -0.190823
      4 C                    -0.192966
      5 C                    -0.041681
      6 H                     0.175741
      7 C                    -0.041681
      8 S                     0.130236
      9 C                    -0.192966
     10 C                    -0.239292
     11 C                    -0.190823
     12 H                     0.174765
     13 H                     0.184019
     14 H                     0.174765
     15 H                     0.184019
     16 H                     0.175741
  ----------------------------------------
  Sum of atomic charges =     0.000000

 -----------------------------------------------------------------
                    Cartesian Multipole Moments
 -----------------------------------------------------------------
    Charge (ESU x 10^10)
                 0.0000
    Dipole Moment (Debye)
         X       0.0000      Y      -0.0000      Z      -0.5457
       Tot       0.5457
    Quadrupole Moments (Debye-Ang)
        XX     -61.4155     XY       0.8755     YY     -72.8665
        XZ      -0.0000     YZ      -0.0000     ZZ     -72.5287
    Octopole Moments (Debye-Ang^2)
       XXX       0.0000    XXY      -0.0000    XYY      -0.0000
       YYY      -0.0000    XXZ       6.0437    XYZ     -12.9800
       YYZ      -4.1193    XZZ       0.0000    YZZ       0.0000
       ZZZ       1.5130
    Hexadecapole Moments (Debye-Ang^3)
      XXXX   -1830.3370   XXXY      -7.5410   XXYY    -402.3515
      XYYY      -2.8834   YYYY    -344.9377   XXXZ       0.0000
      XXYZ      -0.0000   XYYZ      -0.0000   YYYZ       0.0000
      XXZZ    -402.5194   XYZZ       5.7117   YYZZ    -100.6896
      XZZZ      -0.0000   YZZZ      -0.0000   ZZZZ    -338.9555
 -----------------------------------------------------------------
 DrvMan is completing analytic gradient of the MP2 energy
 MP2 relaxed dipole moment
            1
    1   0.0000000
    2   0.0000000
    3  -0.2146937
	Magnitude:	 0.215 au	 0.546 Debye
 MP2 energy read as -1103.410634
 Full Analytical Gradient of MP2 Energy (in au.)
             1             2             3             4             5
    1   -0.00158365    0.00108692   -0.00040158    0.00082708   -0.00859575
    2   -0.00065472    0.00080790    0.00042899    0.00142519   -0.00123125
    3    0.00168199   -0.00204165    0.00101334    0.00042555    0.00007382
             6             7             8             9            10
    1    0.00048068    0.00859575    0.00158365   -0.00082708   -0.00108692
    2   -0.00043461    0.00123125    0.00065472   -0.00142519   -0.00080790
    3   -0.00103872    0.00007382    0.00168199    0.00042555   -0.00204165
            11            12            13            14            15
    1    0.00040158    0.00004202   -0.00025968   -0.00004202    0.00025968
    2   -0.00042899   -0.00004175   -0.00042182    0.00004175    0.00042182
    3    0.00101334   -0.00000095   -0.00011339   -0.00000095   -0.00011339
            16
    1   -0.00048068
    2    0.00043461
    3   -0.00103872
 Gradient time:  CPU 1.60 s  wall 0.10 s
 Geometry Optimization Parameters
   NAtoms,    NIC,     NZ,  NCons,   NDum,   NFix, NCnnct, MaxDiis
       16     111       0       1       0       0       0       0


** CONSTRAINED OPTIMIZATION IN DELOCALIZED INTERNAL COORDINATES **
   Searching for a Minimum

   Optimization Cycle:   1

                       Coordinates (Angstroms)
     ATOM                X               Y               Z
      1  S         1.6943957849   -0.8735967201    0.8067334857
      2  C         3.1323759680   -0.1631375005    0.2231551036
      3  C         2.8710425165    0.7833379376   -0.7360938985
      4  C         1.4992052885    0.9168437569   -1.0023479978
      5  C         0.7147943723    0.0734060183   -0.2434569512
      6  H         1.0834705513    1.5842445832   -1.7360461921
      7  C        -0.7147943723   -0.0734060183   -0.2434569512
      8  S        -1.6943957849    0.8735967201    0.8067334857
      9  C        -1.4992052885   -0.9168437569   -1.0023479978
     10  C        -3.1323759680    0.1631375005    0.2231551036
     11  C        -2.8710425165   -0.7833379376   -0.7360938985
     12  H        -3.6417271388   -1.3468447446   -1.2287071036
     13  H         4.0831266190   -0.4721384750    0.6094795567
     14  H         3.6417271388    1.3468447446   -1.2287071036
     15  H        -4.0831266190    0.4721384750    0.6094795567
     16  H        -1.0834705513   -1.5842445832   -1.7360461921
   Point Group: c2    Number of degrees of freedom:    22


   Energy is  -1103.410633526

              Constraints and their Current Values
                                        Value     Constraint
   Dihedral:        4   5   7   9       90.000       90.000

 Attempting to Generate Delocalized Internal Coordinates

 21 Hessian modes will be used to form the next step
  Hessian Eigenvalues:
     0.045000    0.045000    0.045000    0.045002    0.045003    0.045012
     0.159945    0.159993    0.160000    0.221308    0.238060    0.249999
     0.326324    0.340049    0.365509    0.366895    0.370094    0.399848
     0.435412    0.463135    0.495504

 Minimum Search - Taking Simple RFO Step
 Searching for Lamda that Minimizes Along All modes
 Value Taken    Lamda =  -0.00034197
 Step Taken.  Stepsize is  0.054310

                             Maximum     Tolerance    Cnvgd?
         Gradient           0.004741      0.000300      NO
         Displacement       0.044001      0.001200      NO
         Energy change     *********      0.000001      NO


 New Cartesian Coordinates Obtained by Inverse Iteration

 Displacement from previous Coordinates is:  0.065399
 ----------------------------------------------------------------
             Standard Nuclear Orientation (Angstroms)
    I     Atom           X                Y                Z
 ----------------------------------------------------------------
    1      S       1.7042050600    -0.8781908995     0.8008587464
    2      C       3.1397835334    -0.1621737800     0.2246873810
    3      C       2.8765476879     0.7788557880    -0.7403153126
    4      C       1.5032924287     0.9129931755    -1.0028721893
    5      C       0.7205930372     0.0715705301    -0.2429278565
    6      H       1.0822957483     1.5856386472    -1.7281970941
    7      C      -0.7205930372    -0.0715705301    -0.2429278565
    8      S      -1.7042050600     0.8781908995     0.8008587464
    9      C      -1.5032924287    -0.9129931755    -1.0028721893
   10      C      -3.1397835334     0.1621737800     0.2246873810
   11      C      -2.8765476879    -0.7788557880    -0.7403153126
   12      H      -3.6460817609    -1.3444610693    -1.2323475040
   13      H       4.0917203179    -0.4646582553     0.6138298320
   14      H       3.6460817609     1.3444610693    -1.2323475040
   15      H      -4.0917203179     0.4646582553     0.6138298320
   16      H      -1.0822957483    -1.5856386472    -1.7281970941
 ----------------------------------------------------------------
 Molecular Point Group                 C2    NOp =  2
 Largest Abelian Subgroup              C2    NOp =  2
 Nuclear Repulsion Energy =   635.5585303892 hartrees
 There are       43 alpha and       43 beta electrons
 Applying Cartesian multipole field
    Component          Value
    ---------          -----
     (2,0,0)        1.00000E-11
     (0,2,0)        2.00000E-11
     (0,0,2)       -3.00000E-11
 Nucleus-field energy     =     0.0000000128 hartrees
 Requested basis set is cc-pVTZ
 There are 140 shells and 392 basis functions
 A cutoff of  1.0D-11 yielded   8050 shell pairs
 There are     62646 function pairs (     81684 Cartesian)
 Smallest overlap matrix eigenvalue = 9.81E-05
 Guess MOs from SCF MO coefficient file
 Reading MOs from coefficient file
 Reading MOs from coefficient file
 A restricted Hartree-Fock SCF calculation will be
 performed using Pulay DIIS extrapolation
 SCF converges when DIIS error is below 1.0E-08
 Geometry optimization detected.  Setting ReadMinima to 0
 Setting SaveMinima to 0
 using 16 threads for integral computing 
 ---------------------------------------
  Cycle       Energy         DIIS Error
 ---------------------------------------
    1   -1101.5978477865      1.96E-04
    2   -1101.5963729327      2.15E-05
    3   -1101.5963868371      9.75E-06
    4   -1101.5963891703      3.81E-06
    5   -1101.5963897613      1.73E-06
    6   -1101.5963898641      5.67E-07
    7   -1101.5963898810      2.31E-07
    8   -1101.5963898842      9.69E-08
    9   -1101.5963898852      3.42E-08
   10   -1101.5963898849      1.51E-08
   11   -1101.5963898841      6.10E-09 Convergence criterion met
 ---------------------------------------
 SCF time:  CPU 687.04 s  wall 42.98 s
 SCF   energy in the final basis set = -1101.5963898841
 Total energy in the final basis set = -1101.5963898841
 
 Components of the MP2 correlation energy:
        aaaa  correlation energy =        -0.2320299534 au
        abab  correlation energy =        -1.3503665351 au
        bbbb  correlation energy =        -0.2320299534 au
        non-Brillouin singles    =        -0.0000000000 au

 Total  MP2   correlation energy =        -1.8144264420 au
        MP2         total energy =     -1103.4108163260 au

  Entering Z-vector solver.
   1         0           1      0.000265    0.000265
   2         0           1      0.000117    0.000117
   3         0           1      0.000048    0.000048
   4         0           1      0.000024    0.000024
   5         0           1      0.000007    0.000007
   6         0           1      0.000002    0.000002
   7         1           0      0.000000    0.000000    Roots Converged
 
 --------------------------------------------------------------
             Orbital Energies (a.u.) and Symmetries
 --------------------------------------------------------------
 
 Alpha MOs, Restricted
 -- Occupied --                  
-91.983 -91.983 -11.272 -11.271 -11.261 -11.261 -11.238 -11.238
  1 B     1 A     2 A     2 B     3 B     3 A     4 A     4 B                  
-11.236 -11.236  -8.985  -8.985  -6.666  -6.666  -6.665  -6.665
  5 B     5 A     6 B     6 A     7 A     7 B     8 A     8 B                  
 -6.665  -6.665  -1.194  -1.166  -1.032  -0.991  -0.991  -0.948
  9 B     9 A    10 A    10 B    11 A    12 A    11 B    12 B                  
 -0.806  -0.764  -0.762  -0.718  -0.703  -0.645  -0.571  -0.568
 13 A    13 B    14 A    14 B    15 A    15 B    16 A    16 B                  
 -0.565  -0.555  -0.537  -0.512  -0.511  -0.475  -0.475  -0.354
 17 A    17 B    18 A    18 B    19 A    19 B    20 A    21 A                  
 -0.343  -0.323  -0.323
 20 B    22 A    21 B                                                          
 -- Virtual --                   
  0.108   0.109   0.150   0.153   0.164   0.173   0.183   0.188
 23 A    22 B    23 B    24 A    25 A    24 B    26 A    27 A                  
  0.189   0.204   0.208   0.218   0.245   0.247   0.317   0.323
 25 B    28 A    26 B    27 B    28 B    29 A    30 A    29 B                  
  0.345   0.354   0.369   0.373   0.389   0.401   0.418   0.424
 30 B    31 A    31 B    32 A    33 A    32 B    33 B    34 A                  
  0.443   0.453   0.454   0.467   0.467   0.479   0.483   0.492
 35 A    36 A    34 B    37 A    35 B    36 B    38 A    37 B                  
  0.512   0.522   0.538   0.545   0.547   0.556   0.573   0.574
 38 B    39 A    39 B    40 B    40 A    41 A    41 B    42 A                  
  0.580   0.584   0.597   0.604   0.606   0.613   0.622   0.627
 43 A    42 B    44 A    43 B    45 A    44 B    46 A    45 B                  
  0.638   0.640   0.648   0.671   0.672   0.692   0.700   0.725
 47 A    46 B    47 B    48 A    48 B    49 A    50 A    49 B                  
  0.751   0.752   0.785   0.790   0.804   0.824   0.845   0.856
 51 A    50 B    51 B    52 A    52 B    53 A    53 B    54 A                  
  0.857   0.869   0.881   0.888   0.903   0.920   0.933   0.953
 54 B    55 A    55 B    56 B    56 A    57 A    57 B    58 A                  
  0.969   0.974   0.993   1.002   1.021   1.033   1.057   1.080
 59 A    58 B    59 B    60 A    61 A    60 B    61 B    62 A                  
  1.100   1.107   1.115   1.121   1.144   1.153   1.175   1.177
 62 B    63 A    63 B    64 A    65 A    64 B    65 B    66 A                  
  1.189   1.192   1.220   1.223   1.235   1.263   1.292   1.302
 67 A    66 B    68 A    67 B    69 A    68 B    70 A    69 B                  
  1.309   1.311   1.323   1.355   1.365   1.385   1.401   1.434
 70 B    71 A    71 B    72 A    72 B    73 A    73 B    74 B                  
  1.434   1.460   1.476   1.491   1.500   1.514   1.519   1.542
 74 A    75 B    75 A    76 A    76 B    77 B    77 A    78 B                  
  1.548   1.562   1.570   1.587   1.591   1.618   1.634   1.646
 79 B    78 A    79 A    80 B    80 A    81 A    81 B    82 A                  
  1.678   1.686   1.706   1.736   1.744   1.761   1.781   1.823
 82 B    83 A    83 B    84 B    84 A    85 B    85 A    86 A                  
  1.826   1.863   1.889   1.893   1.902   1.912   1.926   1.954
 86 B    87 B    87 A    88 B    88 A    89 B    89 A    90 B                  
  1.957   2.027   2.035   2.060   2.067   2.131   2.133   2.142
 90 A    91 B    91 A    92 B    92 A    93 A    93 B    94 A                  
  2.165   2.184   2.194   2.200   2.216   2.243   2.254   2.259
 94 B    95 A    95 B    96 A    96 B    97 A    97 B    98 A                  
  2.288   2.301   2.325   2.392   2.423   2.423   2.452   2.479
 98 B    99 B    99 A   100 A   100 B   101 A   102 A   101 B                  
  2.492   2.508   2.523   2.538   2.544   2.558   2.581   2.604
103 A   102 B   103 B   104 B   104 A   105 A   105 B   106 A                  
  2.606   2.642   2.661   2.687   2.713   2.722   2.746   2.767
106 B   107 B   107 A   108 A   108 B   109 B   109 A   110 A                  
  2.769   2.775   2.779   2.800   2.801   2.872   2.888   2.900
110 B   111 B   111 A   112 A   112 B   113 A   114 A   113 B                  
  2.920   2.927   2.933   2.970   3.005   3.012   3.016   3.026
114 B   115 B   115 A   116 A   117 A   116 B   118 A   117 B                  
  3.048   3.066   3.093   3.143   3.149   3.161   3.176   3.196
119 A   118 B   119 B   120 B   120 A   121 B   121 A   122 A                  
  3.212   3.224   3.235   3.238   3.253   3.272   3.285   3.285
122 B   123 A   123 B   124 A   124 B   125 A   126 A   125 B                  
  3.296   3.300   3.327   3.334   3.343   3.363   3.376   3.400
126 B   127 A   128 A   127 B   128 B   129 A   129 B   130 B                  
  3.410   3.420   3.424   3.448   3.449   3.460   3.467   3.475
130 A   131 B   131 A   132 A   133 A   132 B   134 A   133 B                  
  3.484   3.499   3.509   3.510   3.524   3.525   3.536   3.538
135 A   134 B   135 B   136 A   137 A   136 B   138 A   137 B                  
  3.552   3.580   3.587   3.595   3.607   3.614   3.656   3.660
138 B   139 A   140 A   139 B   140 B   141 A   142 A   141 B                  
  3.698   3.699   3.728   3.730   3.743   3.746   3.775   3.780
143 A   142 B   144 A   143 B   144 B   145 A   146 A   147 A                  
  3.792   3.838   3.871   3.876   3.895   3.909   3.926   3.938
145 B   146 B   147 B   148 A   148 B   149 A   149 B   150 A                  
  3.966   3.971   3.999   4.013   4.022   4.023   4.033   4.054
150 B   151 A   151 B   152 A   152 B   153 A   154 A   153 B                  
  4.077   4.105   4.118   4.157   4.167   4.168   4.189   4.194
154 B   155 B   155 A   156 A   157 A   156 B   158 A   157 B                  
  4.197   4.210   4.233   4.255   4.266   4.282   4.311   4.317
158 B   159 A   160 A   159 B   160 B   161 A   161 B   162 A                  
  4.346   4.377   4.400   4.410   4.455   4.475   4.516   4.524
162 B   163 A   163 B   164 A   164 B   165 A   165 B   166 A                  
  4.543   4.546   4.583   4.608   4.647   4.680   4.694   4.705
167 A   166 B   167 B   168 A   169 A   168 B   170 A   169 B                  
  4.718   4.726   4.749   4.765   4.782   4.822   4.850   4.886
171 A   170 B   171 B   172 B   172 A   173 A   173 B   174 A                  
  4.900   4.954   4.973   4.988   5.044   5.068   5.074   5.084
174 B   175 A   176 A   175 B   176 B   177 A   178 A   177 B                  
  5.090   5.099   5.193   5.237   5.243   5.296   5.302   5.377
179 A   178 B   179 B   180 A   180 B   181 A   181 B   182 A                  
  5.385   5.418   5.422   5.494   5.571   5.598   5.661   5.664
182 B   183 A   183 B   184 A   184 B   185 A   186 A   185 B                  
  5.811   5.870   5.952   6.018   6.093   6.129   6.181   6.188
186 B   187 A   187 B   188 A   188 B   189 A   189 B   190 A                  
  6.209   6.546   6.562   6.704   6.750   9.503  10.653  11.913
190 B   191 A   191 B   192 A   192 B   193 A   193 B   194 A                  
 12.157  13.504  13.547  14.565  14.643
194 B   195 A   195 B   196 A   196 B                                          
 
 Beta MOs, Restricted
 -- Occupied --                  
-91.983 -91.983 -11.272 -11.271 -11.261 -11.261 -11.238 -11.238
  1 B     1 A     2 A     2 B     3 B     3 A     4 A     4 B                  
-11.236 -11.236  -8.985  -8.985  -6.666  -6.666  -6.665  -6.665
  5 B     5 A     6 B     6 A     7 A     7 B     8 A     8 B                  
 -6.665  -6.665  -1.194  -1.166  -1.032  -0.991  -0.991  -0.948
  9 B     9 A    10 A    10 B    11 A    12 A    11 B    12 B                  
 -0.806  -0.764  -0.762  -0.718  -0.703  -0.645  -0.571  -0.568
 13 A    13 B    14 A    14 B    15 A    15 B    16 A    16 B                  
 -0.565  -0.555  -0.537  -0.512  -0.511  -0.475  -0.475  -0.354
 17 A    17 B    18 A    18 B    19 A    19 B    20 A    21 A                  
 -0.343  -0.323  -0.323
 20 B    22 A    21 B                                                          
 -- Virtual --                   
  0.108   0.109   0.150   0.153   0.164   0.173   0.183   0.188
 23 A    22 B    23 B    24 A    25 A    24 B    26 A    27 A                  
  0.189   0.204   0.208   0.218   0.245   0.247   0.317   0.323
 25 B    28 A    26 B    27 B    28 B    29 A    30 A    29 B                  
  0.345   0.354   0.369   0.373   0.389   0.401   0.418   0.424
 30 B    31 A    31 B    32 A    33 A    32 B    33 B    34 A                  
  0.443   0.453   0.454   0.467   0.467   0.479   0.483   0.492
 35 A    36 A    34 B    37 A    35 B    36 B    38 A    37 B                  
  0.512   0.522   0.538   0.545   0.547   0.556   0.573   0.574
 38 B    39 A    39 B    40 B    40 A    41 A    41 B    42 A                  
  0.580   0.584   0.597   0.604   0.606   0.613   0.622   0.627
 43 A    42 B    44 A    43 B    45 A    44 B    46 A    45 B                  
  0.638   0.640   0.648   0.671   0.672   0.692   0.700   0.725
 47 A    46 B    47 B    48 A    48 B    49 A    50 A    49 B                  
  0.751   0.752   0.785   0.790   0.804   0.824   0.845   0.856
 51 A    50 B    51 B    52 A    52 B    53 A    53 B    54 A                  
  0.857   0.869   0.881   0.888   0.903   0.920   0.933   0.953
 54 B    55 A    55 B    56 B    56 A    57 A    57 B    58 A                  
  0.969   0.974   0.993   1.002   1.021   1.033   1.057   1.080
 59 A    58 B    59 B    60 A    61 A    60 B    61 B    62 A                  
  1.100   1.107   1.115   1.121   1.144   1.153   1.175   1.177
 62 B    63 A    63 B    64 A    65 A    64 B    65 B    66 A                  
  1.189   1.192   1.220   1.223   1.235   1.263   1.292   1.302
 67 A    66 B    68 A    67 B    69 A    68 B    70 A    69 B                  
  1.309   1.311   1.323   1.355   1.365   1.385   1.401   1.434
 70 B    71 A    71 B    72 A    72 B    73 A    73 B    74 B                  
  1.434   1.460   1.476   1.491   1.500   1.514   1.519   1.542
 74 A    75 B    75 A    76 A    76 B    77 B    77 A    78 B                  
  1.548   1.562   1.570   1.587   1.591   1.618   1.634   1.646
 79 B    78 A    79 A    80 B    80 A    81 A    81 B    82 A                  
  1.678   1.686   1.706   1.736   1.744   1.761   1.781   1.823
 82 B    83 A    83 B    84 B    84 A    85 B    85 A    86 A                  
  1.826   1.863   1.889   1.893   1.902   1.912   1.926   1.954
 86 B    87 B    87 A    88 B    88 A    89 B    89 A    90 B                  
  1.957   2.027   2.035   2.060   2.067   2.131   2.133   2.142
 90 A    91 B    91 A    92 B    92 A    93 A    93 B    94 A                  
  2.165   2.184   2.194   2.200   2.216   2.243   2.254   2.259
 94 B    95 A    95 B    96 A    96 B    97 A    97 B    98 A                  
  2.288   2.301   2.325   2.392   2.423   2.423   2.452   2.479
 98 B    99 B    99 A   100 A   100 B   101 A   102 A   101 B                  
  2.492   2.508   2.523   2.538   2.544   2.558   2.581   2.604
103 A   102 B   103 B   104 B   104 A   105 A   105 B   106 A                  
  2.606   2.642   2.661   2.687   2.713   2.722   2.746   2.767
106 B   107 B   107 A   108 A   108 B   109 B   109 A   110 A                  
  2.769   2.775   2.779   2.800   2.801   2.872   2.888   2.900
110 B   111 B   111 A   112 A   112 B   113 A   114 A   113 B                  
  2.920   2.927   2.933   2.970   3.005   3.012   3.016   3.026
114 B   115 B   115 A   116 A   117 A   116 B   118 A   117 B                  
  3.048   3.066   3.093   3.143   3.149   3.161   3.176   3.196
119 A   118 B   119 B   120 B   120 A   121 B   121 A   122 A                  
  3.212   3.224   3.235   3.238   3.253   3.272   3.285   3.285
122 B   123 A   123 B   124 A   124 B   125 A   126 A   125 B                  
  3.296   3.300   3.327   3.334   3.343   3.363   3.376   3.400
126 B   127 A   128 A   127 B   128 B   129 A   129 B   130 B                  
  3.410   3.420   3.424   3.448   3.449   3.460   3.467   3.475
130 A   131 B   131 A   132 A   133 A   132 B   134 A   133 B                  
  3.484   3.499   3.509   3.510   3.524   3.525   3.536   3.538
135 A   134 B   135 B   136 A   137 A   136 B   138 A   137 B                  
  3.552   3.580   3.587   3.595   3.607   3.614   3.656   3.660
138 B   139 A   140 A   139 B   140 B   141 A   142 A   141 B                  
  3.698   3.699   3.728   3.730   3.743   3.746   3.775   3.780
143 A   142 B   144 A   143 B   144 B   145 A   146 A   147 A                  
  3.792   3.838   3.871   3.876   3.895   3.909   3.926   3.938
145 B   146 B   147 B   148 A   148 B   149 A   149 B   150 A                  
  3.966   3.971   3.999   4.013   4.022   4.023   4.033   4.054
150 B   151 A   151 B   152 A   152 B   153 A   154 A   153 B                  
  4.077   4.105   4.118   4.157   4.167   4.168   4.189   4.194
154 B   155 B   155 A   156 A   157 A   156 B   158 A   157 B                  
  4.197   4.210   4.233   4.255   4.266   4.282   4.311   4.317
158 B   159 A   160 A   159 B   160 B   161 A   161 B   162 A                  
  4.346   4.377   4.400   4.410   4.455   4.475   4.516   4.524
162 B   163 A   163 B   164 A   164 B   165 A   165 B   166 A                  
  4.543   4.546   4.583   4.608   4.647   4.680   4.694   4.705
167 A   166 B   167 B   168 A   169 A   168 B   170 A   169 B                  
  4.718   4.726   4.749   4.765   4.782   4.822   4.850   4.886
171 A   170 B   171 B   172 B   172 A   173 A   173 B   174 A                  
  4.900   4.954   4.973   4.988   5.044   5.068   5.074   5.084
174 B   175 A   176 A   175 B   176 B   177 A   178 A   177 B                  
  5.090   5.099   5.193   5.237   5.243   5.296   5.302   5.377
179 A   178 B   179 B   180 A   180 B   181 A   181 B   182 A                  
  5.385   5.418   5.422   5.494   5.571   5.598   5.661   5.664
182 B   183 A   183 B   184 A   184 B   185 A   186 A   185 B                  
  5.811   5.870   5.952   6.018   6.093   6.129   6.181   6.188
186 B   187 A   187 B   188 A   188 B   189 A   189 B   190 A                  
  6.209   6.546   6.562   6.704   6.750   9.503  10.653  11.913
190 B   191 A   191 B   192 A   192 B   193 A   193 B   194 A                  
 12.157  13.504  13.547  14.565  14.643
194 B   195 A   195 B   196 A   196 B                                          
 --------------------------------------------------------------
 
          Ground-State Mulliken Net Atomic Charges

     Atom                 Charge (a.u.)
  ----------------------------------------
      1 S                     0.130676
      2 C                    -0.239452
      3 C                    -0.190791
      4 C                    -0.192400
      5 C                    -0.043244
      6 H                     0.176189
      7 C                    -0.043244
      8 S                     0.130676
      9 C                    -0.192400
     10 C                    -0.239452
     11 C                    -0.190791
     12 H                     0.174670
     13 H                     0.184352
     14 H                     0.174670
     15 H                     0.184352
     16 H                     0.176189
  ----------------------------------------
  Sum of atomic charges =    -0.000000

 -----------------------------------------------------------------
                    Cartesian Multipole Moments
 -----------------------------------------------------------------
    Charge (ESU x 10^10)
                 0.0000
    Dipole Moment (Debye)
         X      -0.0000      Y      -0.0000      Z      -0.5319
       Tot       0.5319
    Quadrupole Moments (Debye-Ang)
        XX     -61.3313     XY       0.9063     YY     -72.8609
        XZ       0.0000     YZ      -0.0000     ZZ     -72.6004
    Octopole Moments (Debye-Ang^2)
       XXX       0.0000    XXY      -0.0000    XYY       0.0000
       YYY      -0.0000    XXZ       6.5015    XYZ     -12.9279
       YYZ      -3.9529    XZZ       0.0000    YZZ      -0.0000
       ZZZ       2.1364
    Hexadecapole Moments (Debye-Ang^3)
      XXXX   -1839.1182   XXXY      -5.4443   XXYY    -404.7766
      XYYY      -1.3901   YYYY    -344.9743   XXXZ      -0.0000
      XXYZ      -0.0000   XYYZ      -0.0000   YYYZ      -0.0000
      XXZZ    -404.2259   XYZZ       6.2245   YYZZ    -100.6802
      XZZZ       0.0000   YZZZ      -0.0000   ZZZZ    -338.3673
 -----------------------------------------------------------------
 DrvMan is completing analytic gradient of the MP2 energy
 MP2 relaxed dipole moment
            1
    1  -0.0000000
    2  -0.0000000
    3  -0.2092714
	Magnitude:	 0.209 au	 0.532 Debye
 MP2 energy read as -1103.410816
 Full Analytical Gradient of MP2 Energy (in au.)
             1             2             3             4             5
    1    0.00011007    0.00083084   -0.00007303    0.00009091   -0.00129208
    2   -0.00021277    0.00045467   -0.00038643    0.00050479    0.00019952
    3    0.00000831   -0.00021385    0.00023430    0.00076990   -0.00043120
             6             7             8             9            10
    1    0.00011123    0.00129208   -0.00011007   -0.00009091   -0.00083084
    2   -0.00043666   -0.00019952    0.00021277   -0.00050479   -0.00045467
    3   -0.00046872   -0.00043120    0.00000831    0.00076990   -0.00021385
            11            12            13            14            15
    1    0.00007302   -0.00001754   -0.00001194    0.00001754    0.00001194
    2    0.00038643   -0.00002157   -0.00013005    0.00002157    0.00013005
    3    0.00023430    0.00003381    0.00006745    0.00003381    0.00006745
            16
    1   -0.00011123
    2    0.00043666
    3   -0.00046872
 Gradient time:  CPU 1.47 s  wall 0.09 s
 Geometry Optimization Parameters
   NAtoms,    NIC,     NZ,  NCons,   NDum,   NFix, NCnnct, MaxDiis
       16     111       0       1       0       0       0       0

 Cartesian Hessian Update
 Hessian Updated using BFGS Update


** CONSTRAINED OPTIMIZATION IN DELOCALIZED INTERNAL COORDINATES **
   Searching for a Minimum

   Optimization Cycle:   2

                       Coordinates (Angstroms)
     ATOM                X               Y               Z
      1  S         1.7042050600   -0.8781908995    0.8008587464
      2  C         3.1397835334   -0.1621737800    0.2246873810
      3  C         2.8765476879    0.7788557880   -0.7403153126
      4  C         1.5032924287    0.9129931755   -1.0028721893
      5  C         0.7205930372    0.0715705301   -0.2429278565
      6  H         1.0822957483    1.5856386472   -1.7281970941
      7  C        -0.7205930372   -0.0715705301   -0.2429278565
      8  S        -1.7042050600    0.8781908995    0.8008587464
      9  C        -1.5032924287   -0.9129931755   -1.0028721893
     10  C        -3.1397835334    0.1621737800    0.2246873810
     11  C        -2.8765476879   -0.7788557880   -0.7403153126
     12  H        -3.6460817609   -1.3444610693   -1.2323475040
     13  H         4.0917203179   -0.4646582553    0.6138298320
     14  H         3.6460817609    1.3444610693   -1.2323475040
     15  H        -4.0917203179    0.4646582553    0.6138298320
     16  H        -1.0822957483   -1.5856386472   -1.7281970941
   Point Group: c2    Number of degrees of freedom:    22


   Energy is  -1103.410816326

              Constraints and their Current Values
                                        Value     Constraint
   Dihedral:        4   5   7   9       90.000       90.000
 Hessian Updated using BFGS Update

 21 Hessian modes will be used to form the next step
  Hessian Eigenvalues:
     0.037659    0.045000    0.045000    0.045001    0.045006    0.048271
     0.157764    0.159986    0.160155    0.221503    0.236789    0.252693
     0.322287    0.338983    0.365549    0.366894    0.370103    0.410847
     0.447858    0.459983    0.498857

 Minimum Search - Taking Simple RFO Step
 Searching for Lamda that Minimizes Along All modes
 Value Taken    Lamda =  -0.00003672
 Step Taken.  Stepsize is  0.024792

                             Maximum     Tolerance    Cnvgd?
         Gradient           0.001022      0.000300      NO
         Displacement       0.013262      0.001200      NO
         Energy change     -0.000183      0.000001      NO


 New Cartesian Coordinates Obtained by Inverse Iteration

 Displacement from previous Coordinates is:  0.038888
 ----------------------------------------------------------------
             Standard Nuclear Orientation (Angstroms)
    I     Atom           X                Y                Z
 ----------------------------------------------------------------
    1      S       1.7047707258    -0.8803911255     0.8010861572
    2      C       3.1381717123    -0.1646351489     0.2214646565
    3      C       2.8747308798     0.7780470364    -0.7424840388
    4      C       1.5012386662     0.9130906917    -1.0015222914
    5      C       0.7213656487     0.0710380099    -0.2399532198
    6      H       1.0770243933     1.5909145308    -1.7200676955
    7      C      -0.7213656487    -0.0710380099    -0.2399532198
    8      S      -1.7047707258     0.8803911255     0.8010861572
    9      C      -1.5012386662    -0.9130906917    -1.0015222914
   10      C      -3.1381717123     0.1646351489     0.2214646565
   11      C      -2.8747308798    -0.7780470364    -0.7424840388
   12      H      -3.6436372623    -1.3446265295    -1.2343516885
   13      H       4.0911148412    -0.4663948757     0.6085441232
   14      H       3.6436372623     1.3446265295    -1.2343516885
   15      H      -4.0911148412     0.4663948757     0.6085441232
   16      H      -1.0770243933    -1.5909145308    -1.7200676955
 ----------------------------------------------------------------
 Molecular Point Group                 C2    NOp =  2
 Largest Abelian Subgroup              C2    NOp =  2
 Nuclear Repulsion Energy =   635.6439202159 hartrees
 There are       43 alpha and       43 beta electrons
 Applying Cartesian multipole field
    Component          Value
    ---------          -----
     (2,0,0)        1.00000E-11
     (0,2,0)        2.00000E-11
     (0,0,2)       -3.00000E-11
 Nucleus-field energy     =     0.0000000128 hartrees
 Requested basis set is cc-pVTZ
 There are 140 shells and 392 basis functions
 A cutoff of  1.0D-11 yielded   8052 shell pairs
 There are     62656 function pairs (     81696 Cartesian)
 Smallest overlap matrix eigenvalue = 9.84E-05
 Guess MOs from SCF MO coefficient file
 Reading MOs from coefficient file
 Reading MOs from coefficient file
 A restricted Hartree-Fock SCF calculation will be
 performed using Pulay DIIS extrapolation
 SCF converges when DIIS error is below 1.0E-08
 Geometry optimization detected.  Setting ReadMinima to 0
 Setting SaveMinima to 0
 using 16 threads for integral computing 
 ---------------------------------------
  Cycle       Energy         DIIS Error
 ---------------------------------------
    1   -1101.5967254552      6.83E-05
    2   -1101.5964029746      1.03E-05
    3   -1101.5964064538      5.25E-06
    4   -1101.5964071829      2.06E-06
    5   -1101.5964073756      8.65E-07
    6   -1101.5964073987      2.57E-07
    7   -1101.5964074017      9.67E-08
    8   -1101.5964074017      3.35E-08
    9   -1101.5964074017      1.30E-08
   10   -1101.5964074012      4.93E-09 Convergence criterion met
 ---------------------------------------
 SCF time:  CPU 619.20 s  wall 38.73 s
 SCF   energy in the final basis set = -1101.5964074012
 Total energy in the final basis set = -1101.5964074012
 
 Components of the MP2 correlation energy:
        aaaa  correlation energy =        -0.2320376388 au
        abab  correlation energy =        -1.3503557906 au
        bbbb  correlation energy =        -0.2320376388 au
        non-Brillouin singles    =        -0.0000000000 au

 Total  MP2   correlation energy =        -1.8144310683 au
        MP2         total energy =     -1103.4108384696 au

  Entering Z-vector solver.
   1         0           1      0.000265    0.000265
   2         0           1      0.000117    0.000117
   3         0           1      0.000048    0.000048
   4         0           1      0.000024    0.000024
   5         0           1      0.000007    0.000007
   6         0           1      0.000002    0.000002
   7         1           0      0.000000    0.000000    Roots Converged
 
 --------------------------------------------------------------
             Orbital Energies (a.u.) and Symmetries
 --------------------------------------------------------------
 
 Alpha MOs, Restricted
 -- Occupied --                  
-91.984 -91.984 -11.271 -11.271 -11.261 -11.261 -11.238 -11.238
  1 B     1 A     2 A     2 B     3 B     3 A     4 A     4 B                  
-11.236 -11.236  -8.985  -8.985  -6.666  -6.666  -6.666  -6.666
  5 B     5 A     6 B     6 A     7 A     7 B     8 A     8 B                  
 -6.665  -6.665  -1.194  -1.166  -1.032  -0.991  -0.991  -0.948
  9 B     9 A    10 A    10 B    11 A    11 B    12 A    12 B                  
 -0.805  -0.764  -0.762  -0.718  -0.703  -0.645  -0.570  -0.567
 13 A    13 B    14 A    14 B    15 A    15 B    16 A    16 B                  
 -0.565  -0.555  -0.537  -0.512  -0.511  -0.476  -0.475  -0.354
 17 A    17 B    18 A    18 B    19 A    19 B    20 A    21 A                  
 -0.343  -0.323  -0.322
 20 B    22 A    21 B                                                          
 -- Virtual --                   
  0.108   0.110   0.150   0.153   0.164   0.173   0.184   0.188
 23 A    22 B    23 B    24 A    25 A    24 B    26 A    27 A                  
  0.189   0.204   0.208   0.218   0.245   0.247   0.317   0.322
 25 B    28 A    26 B    27 B    28 B    29 A    30 A    29 B                  
  0.345   0.354   0.369   0.372   0.389   0.401   0.418   0.424
 30 B    31 A    31 B    32 A    33 A    32 B    33 B    34 A                  
  0.443   0.453   0.454   0.467   0.467   0.479   0.484   0.492
 35 A    36 A    34 B    37 A    35 B    36 B    38 A    37 B                  
  0.511   0.522   0.538   0.545   0.547   0.556   0.573   0.574
 38 B    39 A    39 B    40 B    40 A    41 A    41 B    42 A                  
  0.580   0.584   0.597   0.604   0.606   0.613   0.622   0.626
 43 A    42 B    44 A    43 B    45 A    44 B    46 A    45 B                  
  0.638   0.640   0.648   0.671   0.672   0.692   0.701   0.725
 47 A    46 B    47 B    48 A    48 B    49 A    50 A    49 B                  
  0.751   0.751   0.784   0.790   0.805   0.824   0.845   0.857
 51 A    50 B    51 B    52 A    52 B    53 A    53 B    54 A                  
  0.857   0.870   0.881   0.888   0.903   0.920   0.933   0.953
 54 B    55 A    55 B    56 B    56 A    57 A    57 B    58 A                  
  0.969   0.976   0.994   1.001   1.021   1.034   1.056   1.080
 59 A    58 B    59 B    60 A    61 A    60 B    61 B    62 A                  
  1.100   1.107   1.115   1.122   1.143   1.152   1.175   1.177
 62 B    63 A    63 B    64 A    65 A    64 B    65 B    66 A                  
  1.189   1.193   1.220   1.223   1.235   1.264   1.293   1.303
 67 A    66 B    68 A    67 B    69 A    68 B    70 A    69 B                  
  1.309   1.311   1.323   1.355   1.365   1.385   1.401   1.434
 70 B    71 A    71 B    72 A    72 B    73 A    73 B    74 A                  
  1.434   1.460   1.476   1.491   1.500   1.514   1.519   1.541
 74 B    75 B    75 A    76 A    76 B    77 B    77 A    78 B                  
  1.548   1.562   1.570   1.588   1.591   1.617   1.633   1.645
 79 B    78 A    79 A    80 B    80 A    81 A    81 B    82 A                  
  1.678   1.687   1.705   1.737   1.743   1.759   1.781   1.822
 82 B    83 A    83 B    84 B    84 A    85 B    85 A    86 A                  
  1.826   1.863   1.890   1.893   1.903   1.912   1.926   1.954
 86 B    87 B    87 A    88 B    88 A    89 B    89 A    90 B                  
  1.957   2.027   2.035   2.061   2.067   2.131   2.133   2.142
 90 A    91 B    91 A    92 B    92 A    93 A    93 B    94 A                  
  2.165   2.185   2.194   2.201   2.217   2.243   2.254   2.260
 94 B    95 A    95 B    96 A    96 B    97 A    97 B    98 A                  
  2.289   2.300   2.325   2.392   2.423   2.423   2.452   2.480
 98 B    99 B    99 A   100 A   101 A   100 B   102 A   101 B                  
  2.492   2.509   2.524   2.537   2.544   2.558   2.581   2.604
103 A   102 B   103 B   104 B   104 A   105 A   105 B   106 A                  
  2.606   2.642   2.661   2.688   2.712   2.722   2.745   2.768
106 B   107 B   107 A   108 A   108 B   109 B   109 A   110 A                  
  2.770   2.775   2.779   2.800   2.801   2.872   2.889   2.901
110 B   111 B   111 A   112 A   112 B   113 A   114 A   113 B                  
  2.920   2.927   2.933   2.970   3.006   3.012   3.016   3.027
114 B   115 B   115 A   116 A   117 A   116 B   118 A   117 B                  
  3.048   3.067   3.093   3.143   3.149   3.161   3.177   3.197
119 A   118 B   119 B   120 B   120 A   121 B   121 A   122 A                  
  3.212   3.223   3.235   3.238   3.253   3.272   3.285   3.285
122 B   123 A   123 B   124 A   124 B   125 A   125 B   126 A                  
  3.295   3.300   3.327   3.334   3.344   3.363   3.376   3.399
126 B   127 A   128 A   127 B   128 B   129 A   129 B   130 B                  
  3.411   3.421   3.425   3.448   3.449   3.459   3.467   3.476
130 A   131 B   131 A   132 A   133 A   132 B   134 A   133 B                  
  3.484   3.499   3.510   3.510   3.523   3.525   3.537   3.538
135 A   134 B   135 B   136 A   137 A   136 B   138 A   137 B                  
  3.552   3.580   3.587   3.595   3.607   3.614   3.657   3.660
138 B   139 A   140 A   139 B   140 B   141 A   142 A   141 B                  
  3.698   3.699   3.728   3.731   3.743   3.746   3.775   3.779
143 A   142 B   144 A   143 B   144 B   145 A   146 A   147 A                  
  3.793   3.839   3.870   3.877   3.895   3.909   3.925   3.938
145 B   146 B   147 B   148 A   148 B   149 A   149 B   150 A                  
  3.966   3.972   3.999   4.013   4.022   4.024   4.033   4.055
150 B   151 A   151 B   152 A   152 B   153 A   154 A   153 B                  
  4.076   4.106   4.118   4.157   4.167   4.168   4.189   4.194
154 B   155 B   155 A   156 A   157 A   156 B   158 A   157 B                  
  4.197   4.211   4.234   4.255   4.264   4.282   4.312   4.317
158 B   159 A   160 A   159 B   160 B   161 A   161 B   162 A                  
  4.346   4.378   4.400   4.410   4.455   4.476   4.518   4.523
162 B   163 A   163 B   164 A   164 B   165 A   165 B   166 A                  
  4.543   4.546   4.584   4.608   4.647   4.681   4.693   4.705
167 A   166 B   167 B   168 A   169 A   168 B   170 A   169 B                  
  4.719   4.725   4.748   4.765   4.783   4.823   4.850   4.886
171 A   170 B   171 B   172 B   172 A   173 A   173 B   174 A                  
  4.900   4.953   4.974   4.985   5.043   5.068   5.075   5.084
174 B   175 A   176 A   175 B   176 B   177 A   178 A   177 B                  
  5.090   5.098   5.193   5.237   5.244   5.295   5.301   5.377
179 A   178 B   179 B   180 A   180 B   181 A   181 B   182 A                  
  5.385   5.419   5.421   5.494   5.571   5.597   5.661   5.663
182 B   183 A   183 B   184 A   184 B   185 A   186 A   185 B                  
  5.813   5.870   5.953   6.021   6.093   6.128   6.184   6.190
186 B   187 A   187 B   188 A   188 B   189 A   189 B   190 A                  
  6.211   6.546   6.562   6.703   6.751   9.501  10.646  11.918
190 B   191 A   191 B   192 A   192 B   193 A   193 B   194 A                  
 12.149  13.505  13.544  14.567  14.645
194 B   195 A   195 B   196 A   196 B                                          
 
 Beta MOs, Restricted
 -- Occupied --                  
-91.984 -91.984 -11.271 -11.271 -11.261 -11.261 -11.238 -11.238
  1 B     1 A     2 A     2 B     3 B     3 A     4 A     4 B                  
-11.236 -11.236  -8.985  -8.985  -6.666  -6.666  -6.666  -6.666
  5 B     5 A     6 B     6 A     7 A     7 B     8 A     8 B                  
 -6.665  -6.665  -1.194  -1.166  -1.032  -0.991  -0.991  -0.948
  9 B     9 A    10 A    10 B    11 A    11 B    12 A    12 B                  
 -0.805  -0.764  -0.762  -0.718  -0.703  -0.645  -0.570  -0.567
 13 A    13 B    14 A    14 B    15 A    15 B    16 A    16 B                  
 -0.565  -0.555  -0.537  -0.512  -0.511  -0.476  -0.475  -0.354
 17 A    17 B    18 A    18 B    19 A    19 B    20 A    21 A                  
 -0.343  -0.323  -0.322
 20 B    22 A    21 B                                                          
 -- Virtual --                   
  0.108   0.110   0.150   0.153   0.164   0.173   0.184   0.188
 23 A    22 B    23 B    24 A    25 A    24 B    26 A    27 A                  
  0.189   0.204   0.208   0.218   0.245   0.247   0.317   0.322
 25 B    28 A    26 B    27 B    28 B    29 A    30 A    29 B                  
  0.345   0.354   0.369   0.372   0.389   0.401   0.418   0.424
 30 B    31 A    31 B    32 A    33 A    32 B    33 B    34 A                  
  0.443   0.453   0.454   0.467   0.467   0.479   0.484   0.492
 35 A    36 A    34 B    37 A    35 B    36 B    38 A    37 B                  
  0.511   0.522   0.538   0.545   0.547   0.556   0.573   0.574
 38 B    39 A    39 B    40 B    40 A    41 A    41 B    42 A                  
  0.580   0.584   0.597   0.604   0.606   0.613   0.622   0.626
 43 A    42 B    44 A    43 B    45 A    44 B    46 A    45 B                  
  0.638   0.640   0.648   0.671   0.672   0.692   0.701   0.725
 47 A    46 B    47 B    48 A    48 B    49 A    50 A    49 B                  
  0.751   0.751   0.784   0.790   0.805   0.824   0.845   0.857
 51 A    50 B    51 B    52 A    52 B    53 A    53 B    54 A                  
  0.857   0.870   0.881   0.888   0.903   0.920   0.933   0.953
 54 B    55 A    55 B    56 B    56 A    57 A    57 B    58 A                  
  0.969   0.976   0.994   1.001   1.021   1.034   1.056   1.080
 59 A    58 B    59 B    60 A    61 A    60 B    61 B    62 A                  
  1.100   1.107   1.115   1.122   1.143   1.152   1.175   1.177
 62 B    63 A    63 B    64 A    65 A    64 B    65 B    66 A                  
  1.189   1.193   1.220   1.223   1.235   1.264   1.293   1.303
 67 A    66 B    68 A    67 B    69 A    68 B    70 A    69 B                  
  1.309   1.311   1.323   1.355   1.365   1.385   1.401   1.434
 70 B    71 A    71 B    72 A    72 B    73 A    73 B    74 A                  
  1.434   1.460   1.476   1.491   1.500   1.514   1.519   1.541
 74 B    75 B    75 A    76 A    76 B    77 B    77 A    78 B                  
  1.548   1.562   1.570   1.588   1.591   1.617   1.633   1.645
 79 B    78 A    79 A    80 B    80 A    81 A    81 B    82 A                  
  1.678   1.687   1.705   1.737   1.743   1.759   1.781   1.822
 82 B    83 A    83 B    84 B    84 A    85 B    85 A    86 A                  
  1.826   1.863   1.890   1.893   1.903   1.912   1.926   1.954
 86 B    87 B    87 A    88 B    88 A    89 B    89 A    90 B                  
  1.957   2.027   2.035   2.061   2.067   2.131   2.133   2.142
 90 A    91 B    91 A    92 B    92 A    93 A    93 B    94 A                  
  2.165   2.185   2.194   2.201   2.217   2.243   2.254   2.260
 94 B    95 A    95 B    96 A    96 B    97 A    97 B    98 A                  
  2.289   2.300   2.325   2.392   2.423   2.423   2.452   2.480
 98 B    99 B    99 A   100 A   101 A   100 B   102 A   101 B                  
  2.492   2.509   2.524   2.537   2.544   2.558   2.581   2.604
103 A   102 B   103 B   104 B   104 A   105 A   105 B   106 A                  
  2.606   2.642   2.661   2.688   2.712   2.722   2.745   2.768
106 B   107 B   107 A   108 A   108 B   109 B   109 A   110 A                  
  2.770   2.775   2.779   2.800   2.801   2.872   2.889   2.901
110 B   111 B   111 A   112 A   112 B   113 A   114 A   113 B                  
  2.920   2.927   2.933   2.970   3.006   3.012   3.016   3.027
114 B   115 B   115 A   116 A   117 A   116 B   118 A   117 B                  
  3.048   3.067   3.093   3.143   3.149   3.161   3.177   3.197
119 A   118 B   119 B   120 B   120 A   121 B   121 A   122 A                  
  3.212   3.223   3.235   3.238   3.253   3.272   3.285   3.285
122 B   123 A   123 B   124 A   124 B   125 A   125 B   126 A                  
  3.295   3.300   3.327   3.334   3.344   3.363   3.376   3.399
126 B   127 A   128 A   127 B   128 B   129 A   129 B   130 B                  
  3.411   3.421   3.425   3.448   3.449   3.459   3.467   3.476
130 A   131 B   131 A   132 A   133 A   132 B   134 A   133 B                  
  3.484   3.499   3.510   3.510   3.523   3.525   3.537   3.538
135 A   134 B   135 B   136 A   137 A   136 B   138 A   137 B                  
  3.552   3.580   3.587   3.595   3.607   3.614   3.657   3.660
138 B   139 A   140 A   139 B   140 B   141 A   142 A   141 B                  
  3.698   3.699   3.728   3.731   3.743   3.746   3.775   3.779
143 A   142 B   144 A   143 B   144 B   145 A   146 A   147 A                  
  3.793   3.839   3.870   3.877   3.895   3.909   3.925   3.938
145 B   146 B   147 B   148 A   148 B   149 A   149 B   150 A                  
  3.966   3.972   3.999   4.013   4.022   4.024   4.033   4.055
150 B   151 A   151 B   152 A   152 B   153 A   154 A   153 B                  
  4.076   4.106   4.118   4.157   4.167   4.168   4.189   4.194
154 B   155 B   155 A   156 A   157 A   156 B   158 A   157 B                  
  4.197   4.211   4.234   4.255   4.264   4.282   4.312   4.317
158 B   159 A   160 A   159 B   160 B   161 A   161 B   162 A                  
  4.346   4.378   4.400   4.410   4.455   4.476   4.518   4.523
162 B   163 A   163 B   164 A   164 B   165 A   165 B   166 A                  
  4.543   4.546   4.584   4.608   4.647   4.681   4.693   4.705
167 A   166 B   167 B   168 A   169 A   168 B   170 A   169 B                  
  4.719   4.725   4.748   4.765   4.783   4.823   4.850   4.886
171 A   170 B   171 B   172 B   172 A   173 A   173 B   174 A                  
  4.900   4.953   4.974   4.985   5.043   5.068   5.075   5.084
174 B   175 A   176 A   175 B   176 B   177 A   178 A   177 B                  
  5.090   5.098   5.193   5.237   5.244   5.295   5.301   5.377
179 A   178 B   179 B   180 A   180 B   181 A   181 B   182 A                  
  5.385   5.419   5.421   5.494   5.571   5.597   5.661   5.663
182 B   183 A   183 B   184 A   184 B   185 A   186 A   185 B                  
  5.813   5.870   5.953   6.021   6.093   6.128   6.184   6.190
186 B   187 A   187 B   188 A   188 B   189 A   189 B   190 A                  
  6.211   6.546   6.562   6.703   6.751   9.501  10.646  11.918
190 B   191 A   191 B   192 A   192 B   193 A   193 B   194 A                  
 12.149  13.505  13.544  14.567  14.645
194 B   195 A   195 B   196 A   196 B                                          
 --------------------------------------------------------------
 
          Ground-State Mulliken Net Atomic Charges

     Atom                 Charge (a.u.)
  ----------------------------------------
      1 S                     0.131291
      2 C                    -0.239670
      3 C                    -0.191014
      4 C                    -0.192196
      5 C                    -0.043676
      6 H                     0.176326
      7 C                    -0.043676
      8 S                     0.131291
      9 C                    -0.192196
     10 C                    -0.239670
     11 C                    -0.191014
     12 H                     0.174721
     13 H                     0.184218
     14 H                     0.174721
     15 H                     0.184218
     16 H                     0.176326
  ----------------------------------------
  Sum of atomic charges =    -0.000000

 -----------------------------------------------------------------
                    Cartesian Multipole Moments
 -----------------------------------------------------------------
    Charge (ESU x 10^10)
                 0.0000
    Dipole Moment (Debye)
         X      -0.0000      Y      -0.0000      Z      -0.5196
       Tot       0.5196
    Quadrupole Moments (Debye-Ang)
        XX     -61.3932     XY       0.9052     YY     -72.8061
        XZ      -0.0000     YZ      -0.0000     ZZ     -72.6263
    Octopole Moments (Debye-Ang^2)
       XXX      -0.0000    XXY       0.0000    XYY      -0.0000
       YYY      -0.0000    XXZ       6.4258    XYZ     -12.9269
       YYZ      -3.9658    XZZ      -0.0000    YZZ      -0.0000
       ZZZ       2.2974
    Hexadecapole Moments (Debye-Ang^3)
      XXXX   -1838.8324   XXXY      -4.6518   XXYY    -404.5127
      XYYY      -0.4840   YYYY    -345.3929   XXXZ      -0.0000
      XXYZ       0.0000   XYYZ       0.0000   YYYZ      -0.0000
      XXZZ    -404.0704   XYZZ       6.4757   YYZZ    -100.7040
      XZZZ       0.0000   YZZZ      -0.0000   ZZZZ    -338.2355
 -----------------------------------------------------------------
 DrvMan is completing analytic gradient of the MP2 energy
 MP2 relaxed dipole moment
            1
    1  -0.0000000
    2  -0.0000000
    3  -0.2044366
	Magnitude:	 0.204 au	 0.520 Debye
 MP2 energy read as -1103.410838
 Full Analytical Gradient of MP2 Energy (in au.)
             1             2             3             4             5
    1    0.00013411   -0.00007839   -0.00014793    0.00011413    0.00050335
    2   -0.00022707    0.00007020   -0.00010976    0.00022431    0.00020565
    3    0.00019594    0.00001657   -0.00018493    0.00043602   -0.00028638
             6             7             8             9            10
    1    0.00004534   -0.00050335   -0.00013411   -0.00011413    0.00007839
    2   -0.00021391   -0.00020565    0.00022707   -0.00022431   -0.00007020
    3   -0.00023068   -0.00028638    0.00019594    0.00043602    0.00001657
            11            12            13            14            15
    1    0.00014793    0.00002812   -0.00005067   -0.00002812    0.00005067
    2    0.00010976   -0.00009910   -0.00003261    0.00009910    0.00003261
    3   -0.00018493    0.00001586    0.00003759    0.00001586    0.00003759
            16
    1   -0.00004534
    2    0.00021391
    3   -0.00023068
 Gradient time:  CPU 1.52 s  wall 0.10 s
 Geometry Optimization Parameters
   NAtoms,    NIC,     NZ,  NCons,   NDum,   NFix, NCnnct, MaxDiis
       16     111       0       1       0       0       0       0

 Cartesian Hessian Update
 Hessian Updated using BFGS Update


** CONSTRAINED OPTIMIZATION IN DELOCALIZED INTERNAL COORDINATES **
   Searching for a Minimum

   Optimization Cycle:   3

[...]
         Gradient           0.000083      0.000300     YES
         Displacement       0.003978      0.001200      NO
         Energy change     -0.000001      0.000001     YES

 Final energy is   -1103.41084756700     


 ******************************
 **  OPTIMIZATION CONVERGED  **
 ******************************

                       Coordinates (Angstroms)
     ATOM                X               Y               Z
      1  S         1.7079325892   -0.8844214048    0.7983905335
      2  C         3.1397501006   -0.1683398994    0.2151041634
      3  C         2.8728092037    0.7787978107   -0.7434662448
      4  C         1.4981751007    0.9155538640   -0.9965498654
      5  C         0.7208704700    0.0717194957   -0.2338153442
      6  H         1.0706023274    1.6009750489   -1.7058232853
      7  C        -0.7208704700   -0.0717194957   -0.2338153442
      8  S        -1.7079325892    0.8844214048    0.7983905335
      9  C        -1.4981751007   -0.9155538640   -0.9965498654
     10  C        -3.1397501006    0.1683398994    0.2151041634
     11  C        -2.8728092037   -0.7787978107   -0.7434662448
     12  H        -3.6405565301   -1.3453259132   -1.2371323450
     13  H         4.0944718539   -0.4723879414    0.5960083907
     14  H         3.6405565301    1.3453259132   -1.2371323450
     15  H        -4.0944718539    0.4723879414    0.5960083907
     16  H        -1.0706023274   -1.6009750489   -1.7058232853

Z-matrix Print:
$molecule
0 1
S 
C  1 1.703848
H  2 1.071927 1 120.504365
C  2 1.373748 1 111.428566 3 -179.909527 0
H  4 1.074289 2 123.049598 1 179.973139 0
C  4 1.404412 2 112.524335 1 -0.031385 0
H  6 1.075030 4 124.769616 2 -179.790865 0
C  6 1.377688 4 113.131058 2 0.133487 0
C  8 1.448859 6 128.467914 4 179.401104 0
C  9 1.377688 8 128.467914 6 -90.000009 0
H  10 1.075030 9 122.099281 8 -0.672251 0
C  10 1.404412 9 113.131058 8 179.401104 0
H  12 1.074289 10 124.426067 9 -179.871109 0
C  12 1.373748 10 112.524335 9 0.133487 0
H  14 1.071927 12 128.066996 10 -179.932374 0
S  14 1.703848 12 111.428566 10 -0.031385 0
$end

 
 --------------------------------------------------------------
             Orbital Energies (a.u.) and Symmetries
 --------------------------------------------------------------
 
 Alpha MOs, Restricted
 -- Occupied --                  
-91.984 -91.984 -11.271 -11.270 -11.261 -11.261 -11.238 -11.238
  1 B     1 A     2 A     2 B     3 B     3 A     4 A     4 B                  
-11.236 -11.236  -8.985  -8.985  -6.666  -6.666  -6.666  -6.666
  5 B     5 A     6 B     6 A     7 A     7 B     8 A     8 B                  
 -6.665  -6.665  -1.194  -1.166  -1.032  -0.991  -0.991  -0.948
  9 B     9 A    10 A    10 B    11 A    11 B    12 A    12 B                  
 -0.806  -0.764  -0.761  -0.718  -0.703  -0.645  -0.570  -0.568
 13 A    13 B    14 A    14 B    15 A    15 B    16 A    16 B                  
 -0.565  -0.555  -0.537  -0.513  -0.511  -0.476  -0.475  -0.354
 17 A    17 B    18 A    18 B    19 A    19 B    20 A    21 A                  
 -0.343  -0.323  -0.322
 20 B    22 A    21 B                                                          
 -- Virtual --                   
  0.108   0.110   0.150   0.153   0.164   0.173   0.184   0.189
 23 A    22 B    23 B    24 A    25 A    24 B    26 A    27 A                  
  0.189   0.204   0.208   0.218   0.245   0.247   0.318   0.322
 25 B    28 A    26 B    27 B    28 B    29 A    30 A    29 B                  
  0.345   0.354   0.370   0.372   0.388   0.401   0.417   0.425
 30 B    31 A    31 B    32 A    33 A    32 B    33 B    34 A                  
  0.443   0.453   0.454   0.467   0.467   0.479   0.484   0.493
 35 A    36 A    34 B    37 A    35 B    36 B    38 A    37 B                  
  0.511   0.522   0.538   0.546   0.548   0.556   0.573   0.574
 38 B    39 A    39 B    40 B    40 A    41 A    41 B    42 A                  
  0.579   0.584   0.597   0.604   0.606   0.613   0.622   0.626
 43 A    42 B    44 A    43 B    45 A    44 B    46 A    45 B                  
  0.638   0.640   0.648   0.671   0.672   0.692   0.701   0.726
 47 A    46 B    47 B    48 A    48 B    49 A    50 A    49 B                  
  0.751   0.751   0.784   0.790   0.805   0.824   0.846   0.857
 50 B    51 A    51 B    52 A    52 B    53 A    53 B    54 A                  
  0.857   0.870   0.881   0.888   0.904   0.920   0.933   0.952
 54 B    55 A    55 B    56 B    56 A    57 A    57 B    58 A                  
  0.967   0.978   0.994   1.001   1.022   1.034   1.056   1.081
 59 A    58 B    59 B    60 A    61 A    60 B    61 B    62 A                  
  1.100   1.107   1.115   1.122   1.141   1.152   1.176   1.176
 62 B    63 A    63 B    64 A    65 A    64 B    65 B    66 A                  
  1.189   1.193   1.220   1.223   1.235   1.264   1.294   1.304
 67 A    66 B    68 A    67 B    69 A    68 B    70 A    69 B                  
  1.309   1.311   1.323   1.355   1.365   1.385   1.402   1.434
 70 B    71 A    71 B    72 A    72 B    73 A    73 B    74 A                  
  1.434   1.460   1.477   1.491   1.500   1.514   1.519   1.541
 74 B    75 B    75 A    76 A    76 B    77 B    77 A    78 B                  
  1.548   1.562   1.570   1.588   1.590   1.617   1.634   1.645
 79 B    78 A    79 A    80 B    80 A    81 A    81 B    82 A                  
  1.679   1.688   1.705   1.736   1.744   1.758   1.781   1.822
 82 B    83 A    83 B    84 B    84 A    85 B    85 A    86 A                  
  1.826   1.862   1.891   1.893   1.904   1.912   1.926   1.953
 86 B    87 B    87 A    88 B    88 A    89 B    89 A    90 B                  
  1.957   2.027   2.035   2.062   2.067   2.131   2.133   2.142
 90 A    91 B    91 A    92 B    92 A    93 A    93 B    94 A                  
  2.166   2.185   2.194   2.202   2.216   2.242   2.254   2.260
 94 B    95 A    95 B    96 A    96 B    97 A    97 B    98 A                  
  2.289   2.301   2.326   2.390   2.423   2.424   2.452   2.479
 98 B    99 B    99 A   100 A   101 A   100 B   102 A   101 B                  
  2.492   2.509   2.525   2.536   2.545   2.558   2.582   2.603
103 A   102 B   103 B   104 B   104 A   105 A   105 B   106 A                  
  2.606   2.642   2.662   2.689   2.710   2.722   2.745   2.768
106 B   107 B   107 A   108 A   108 B   109 B   109 A   110 A                  
  2.769   2.776   2.779   2.799   2.801   2.873   2.889   2.902
110 B   111 B   111 A   112 A   112 B   113 A   114 A   113 B                  
  2.920   2.926   2.934   2.970   3.006   3.012   3.016   3.027
114 B   115 B   115 A   116 A   117 A   116 B   118 A   117 B                  
  3.048   3.067   3.094   3.144   3.149   3.162   3.177   3.196
119 A   118 B   119 B   120 B   120 A   121 B   121 A   122 A                  
  3.213   3.221   3.235   3.238   3.255   3.272   3.284   3.285
122 B   123 A   123 B   124 A   124 B   125 A   125 B   126 A                  
  3.295   3.298   3.327   3.334   3.344   3.363   3.375   3.399
126 B   127 A   128 A   127 B   128 B   129 A   129 B   130 B                  
  3.411   3.422   3.427   3.448   3.450   3.458   3.467   3.477
130 A   131 B   131 A   132 A   133 A   132 B   134 A   133 B                  
  3.484   3.500   3.510   3.510   3.523   3.525   3.537   3.539
135 A   134 B   136 A   135 B   137 A   136 B   138 A   137 B                  
  3.552   3.580   3.587   3.596   3.607   3.614   3.657   3.660
138 B   139 A   140 A   139 B   140 B   141 A   142 A   141 B                  
  3.697   3.699   3.728   3.731   3.742   3.746   3.777   3.779
143 A   142 B   144 A   143 B   144 B   145 A   146 A   147 A                  
  3.794   3.840   3.868   3.877   3.895   3.909   3.925   3.939
145 B   146 B   147 B   148 A   148 B   149 A   149 B   150 A                  
  3.966   3.973   4.000   4.012   4.022   4.024   4.032   4.056
150 B   151 A   151 B   152 A   152 B   153 A   154 A   153 B                  
  4.074   4.107   4.118   4.158   4.167   4.168   4.190   4.195
154 B   155 B   155 A   156 A   157 A   156 B   158 A   157 B                  
  4.197   4.211   4.235   4.256   4.263   4.281   4.313   4.318
158 B   159 A   160 A   159 B   160 B   161 A   161 B   162 A                  
  4.346   4.378   4.400   4.411   4.454   4.477   4.518   4.523
162 B   163 A   163 B   164 A   164 B   165 A   165 B   166 A                  
  4.543   4.547   4.584   4.608   4.647   4.681   4.693   4.705
167 A   166 B   167 B   168 A   169 A   168 B   170 A   169 B                  
  4.719   4.725   4.747   4.766   4.784   4.824   4.849   4.886
171 A   170 B   171 B   172 B   172 A   173 A   173 B   174 A                  
  4.900   4.951   4.976   4.986   5.043   5.068   5.075   5.084
174 B   175 A   176 A   175 B   176 B   177 A   178 A   177 B                  
  5.090   5.097   5.192   5.238   5.244   5.295   5.300   5.377
179 A   178 B   179 B   180 A   180 B   181 A   181 B   182 A                  
  5.385   5.418   5.421   5.494   5.571   5.597   5.662   5.662
182 B   183 A   183 B   184 A   184 B   185 A   186 A   185 B                  
  5.815   5.870   5.952   6.022   6.093   6.128   6.184   6.190
186 B   187 A   187 B   188 A   188 B   189 A   189 B   190 A                  
  6.212   6.547   6.562   6.701   6.751   9.498  10.653  11.917
190 B   191 A   191 B   192 A   192 B   193 A   193 B   194 A                  
 12.154  13.504  13.545  14.564  14.644
194 B   195 A   195 B   196 A   196 B                                          
 
 Beta MOs, Restricted
 -- Occupied --                  
-91.984 -91.984 -11.271 -11.270 -11.261 -11.261 -11.238 -11.238
  1 B     1 A     2 A     2 B     3 B     3 A     4 A     4 B                  
-11.236 -11.236  -8.985  -8.985  -6.666  -6.666  -6.666  -6.666
  5 B     5 A     6 B     6 A     7 A     7 B     8 A     8 B                  
 -6.665  -6.665  -1.194  -1.166  -1.032  -0.991  -0.991  -0.948
  9 B     9 A    10 A    10 B    11 A    11 B    12 A    12 B                  
 -0.806  -0.764  -0.761  -0.718  -0.703  -0.645  -0.570  -0.568
 13 A    13 B    14 A    14 B    15 A    15 B    16 A    16 B                  
 -0.565  -0.555  -0.537  -0.513  -0.511  -0.476  -0.475  -0.354
 17 A    17 B    18 A    18 B    19 A    19 B    20 A    21 A                  
 -0.343  -0.323  -0.322
 20 B    22 A    21 B                                                          
 -- Virtual --                   
  0.108   0.110   0.150   0.153   0.164   0.173   0.184   0.189
 23 A    22 B    23 B    24 A    25 A    24 B    26 A    27 A                  
  0.189   0.204   0.208   0.218   0.245   0.247   0.318   0.322
 25 B    28 A    26 B    27 B    28 B    29 A    30 A    29 B                  
  0.345   0.354   0.370   0.372   0.388   0.401   0.417   0.425
 30 B    31 A    31 B    32 A    33 A    32 B    33 B    34 A                  
  0.443   0.453   0.454   0.467   0.467   0.479   0.484   0.493
 35 A    36 A    34 B    37 A    35 B    36 B    38 A    37 B                  
  0.511   0.522   0.538   0.546   0.548   0.556   0.573   0.574
 38 B    39 A    39 B    40 B    40 A    41 A    41 B    42 A                  
  0.579   0.584   0.597   0.604   0.606   0.613   0.622   0.626
 43 A    42 B    44 A    43 B    45 A    44 B    46 A    45 B                  
  0.638   0.640   0.648   0.671   0.672   0.692   0.701   0.726
 47 A    46 B    47 B    48 A    48 B    49 A    50 A    49 B                  
  0.751   0.751   0.784   0.790   0.805   0.824   0.846   0.857
 50 B    51 A    51 B    52 A    52 B    53 A    53 B    54 A                  
  0.857   0.870   0.881   0.888   0.904   0.920   0.933   0.952
 54 B    55 A    55 B    56 B    56 A    57 A    57 B    58 A                  
  0.967   0.978   0.994   1.001   1.022   1.034   1.056   1.081
 59 A    58 B    59 B    60 A    61 A    60 B    61 B    62 A                  
  1.100   1.107   1.115   1.122   1.141   1.152   1.176   1.176
 62 B    63 A    63 B    64 A    65 A    64 B    65 B    66 A                  
  1.189   1.193   1.220   1.223   1.235   1.264   1.294   1.304
 67 A    66 B    68 A    67 B    69 A    68 B    70 A    69 B                  
  1.309   1.311   1.323   1.355   1.365   1.385   1.402   1.434
 70 B    71 A    71 B    72 A    72 B    73 A    73 B    74 A                  
  1.434   1.460   1.477   1.491   1.500   1.514   1.519   1.541
 74 B    75 B    75 A    76 A    76 B    77 B    77 A    78 B                  
  1.548   1.562   1.570   1.588   1.590   1.617   1.634   1.645
 79 B    78 A    79 A    80 B    80 A    81 A    81 B    82 A                  
  1.679   1.688   1.705   1.736   1.744   1.758   1.781   1.822
 82 B    83 A    83 B    84 B    84 A    85 B    85 A    86 A                  
  1.826   1.862   1.891   1.893   1.904   1.912   1.926   1.953
 86 B    87 B    87 A    88 B    88 A    89 B    89 A    90 B                  
  1.957   2.027   2.035   2.062   2.067   2.131   2.133   2.142
 90 A    91 B    91 A    92 B    92 A    93 A    93 B    94 A                  
  2.166   2.185   2.194   2.202   2.216   2.242   2.254   2.260
 94 B    95 A    95 B    96 A    96 B    97 A    97 B    98 A                  
  2.289   2.301   2.326   2.390   2.423   2.424   2.452   2.479
 98 B    99 B    99 A   100 A   101 A   100 B   102 A   101 B                  
  2.492   2.509   2.525   2.536   2.545   2.558   2.582   2.603
103 A   102 B   103 B   104 B   104 A   105 A   105 B   106 A                  
  2.606   2.642   2.662   2.689   2.710   2.722   2.745   2.768
106 B   107 B   107 A   108 A   108 B   109 B   109 A   110 A                  
  2.769   2.776   2.779   2.799   2.801   2.873   2.889   2.902
110 B   111 B   111 A   112 A   112 B   113 A   114 A   113 B                  
  2.920   2.926   2.934   2.970   3.006   3.012   3.016   3.027
114 B   115 B   115 A   116 A   117 A   116 B   118 A   117 B                  
  3.048   3.067   3.094   3.144   3.149   3.162   3.177   3.196
119 A   118 B   119 B   120 B   120 A   121 B   121 A   122 A                  
  3.213   3.221   3.235   3.238   3.255   3.272   3.284   3.285
122 B   123 A   123 B   124 A   124 B   125 A   125 B   126 A                  
  3.295   3.298   3.327   3.334   3.344   3.363   3.375   3.399
126 B   127 A   128 A   127 B   128 B   129 A   129 B   130 B                  
  3.411   3.422   3.427   3.448   3.450   3.458   3.467   3.477
130 A   131 B   131 A   132 A   133 A   132 B   134 A   133 B                  
  3.484   3.500   3.510   3.510   3.523   3.525   3.537   3.539
135 A   134 B   136 A   135 B   137 A   136 B   138 A   137 B                  
  3.552   3.580   3.587   3.596   3.607   3.614   3.657   3.660
138 B   139 A   140 A   139 B   140 B   141 A   142 A   141 B                  
  3.697   3.699   3.728   3.731   3.742   3.746   3.777   3.779
143 A   142 B   144 A   143 B   144 B   145 A   146 A   147 A                  
  3.794   3.840   3.868   3.877   3.895   3.909   3.925   3.939
145 B   146 B   147 B   148 A   148 B   149 A   149 B   150 A                  
  3.966   3.973   4.000   4.012   4.022   4.024   4.032   4.056
150 B   151 A   151 B   152 A   152 B   153 A   154 A   153 B                  
  4.074   4.107   4.118   4.158   4.167   4.168   4.190   4.195
154 B   155 B   155 A   156 A   157 A   156 B   158 A   157 B                  
  4.197   4.211   4.235   4.256   4.263   4.281   4.313   4.318
158 B   159 A   160 A   159 B   160 B   161 A   161 B   162 A                  
  4.346   4.378   4.400   4.411   4.454   4.477   4.518   4.523
162 B   163 A   163 B   164 A   164 B   165 A   165 B   166 A                  
  4.543   4.547   4.584   4.608   4.647   4.681   4.693   4.705
167 A   166 B   167 B   168 A   169 A   168 B   170 A   169 B                  
  4.719   4.725   4.747   4.766   4.784   4.824   4.849   4.886
171 A   170 B   171 B   172 B   172 A   173 A   173 B   174 A                  
  4.900   4.951   4.976   4.986   5.043   5.068   5.075   5.084
174 B   175 A   176 A   175 B   176 B   177 A   178 A   177 B                  
  5.090   5.097   5.192   5.238   5.244   5.295   5.300   5.377
179 A   178 B   179 B   180 A   180 B   181 A   181 B   182 A                  
  5.385   5.418   5.421   5.494   5.571   5.597   5.662   5.662
182 B   183 A   183 B   184 A   184 B   185 A   186 A   185 B                  
  5.815   5.870   5.952   6.022   6.093   6.128   6.184   6.190
186 B   187 A   187 B   188 A   188 B   189 A   189 B   190 A                  
  6.212   6.547   6.562   6.701   6.751   9.498  10.653  11.917
190 B   191 A   191 B   192 A   192 B   193 A   193 B   194 A                  
 12.154  13.504  13.545  14.564  14.644
194 B   195 A   195 B   196 A   196 B                                          
 --------------------------------------------------------------
 
          Ground-State Mulliken Net Atomic Charges

     Atom                 Charge (a.u.)
  ----------------------------------------
      1 S                     0.131423
      2 C                    -0.239766
      3 C                    -0.191220
      4 C                    -0.192072
      5 C                    -0.043728
      6 H                     0.176364
      7 C                    -0.043728
      8 S                     0.131423
      9 C                    -0.192072
     10 C                    -0.239766
     11 C                    -0.191220
     12 H                     0.174724
     13 H                     0.184275
     14 H                     0.174724
     15 H                     0.184275
     16 H                     0.176364
  ----------------------------------------
  Sum of atomic charges =    -0.000000

 -----------------------------------------------------------------
                    Cartesian Multipole Moments
 -----------------------------------------------------------------
    Charge (ESU x 10^10)
                -0.0000
    Dipole Moment (Debye)
         X      -0.0000      Y      -0.0000      Z      -0.5205
       Tot       0.5205
    Quadrupole Moments (Debye-Ang)
        XX     -61.3751     XY       0.8688     YY     -72.7525
        XZ       0.0000     YZ      -0.0000     ZZ     -72.7040
    Octopole Moments (Debye-Ang^2)
       XXX      -0.0000    XXY      -0.0000    XYY      -0.0000
       YYY      -0.0000    XXZ       6.2243    XYZ     -12.8933
       YYZ      -3.9780    XZZ      -0.0000    YZZ      -0.0000
       ZZZ       2.5284
    Hexadecapole Moments (Debye-Ang^3)
      XXXX   -1838.6431   XXXY      -4.4605   XXYY    -404.7925
      XYYY       0.7556   YYYY    -347.0117   XXXZ       0.0000
      XXYZ       0.0000   XYYZ       0.0000   YYYZ      -0.0000
      XXZZ    -404.3505   XYZZ       6.8924   YYZZ    -100.7012
      XZZZ       0.0000   YZZZ      -0.0000   ZZZZ    -336.6259
 -----------------------------------------------------------------
Archival summary:
1\1\nid01258\OPT\MP2\BasisUnspecified\286\MonMar616:27:192017MonMar616:27:192017\0\\#,OPT,MP2,BasisUnspecified,\\0,1\S\C,1,1.70385\H,2,1.07193,1,120.504\C,2,1.37375,1,111.429,3,-179.91,0\H,4,1.07429,2,123.05,1,179.973,0\C,4,1.40441,2,112.524,1,-0.0313848,0\H,6,1.07503,4,124.77,2,-179.791,0\C,6,1.37769,4,113.131,2,0.133487,0\C,8,1.44886,6,128.468,4,179.401,0\C,9,1.37769,8,128.468,6,-90,0\H,10,1.07503,9,122.099,8,-0.672251,0\C,10,1.40441,9,113.131,8,179.401,0\H,12,1.07429,10,124.426,9,-179.871,0\C,12,1.37375,10,112.524,9,0.133487,0\H,14,1.07193,12,128.067,10,-179.932,0\S,14,1.70385,12,111.429,10,-0.0313848,0\\HF=-1101.59638\MP2=-1103.41085\\@

 Total job time:  8817.94s(wall), 45469.35s(cpu) 
 Mon Mar  6 16:27:19 2017

        *************************************************************
        *                                                           *
        *  Thank you very much for using Q-Chem.  Have a nice day.  *
        *                                                           *
        *************************************************************


0 sent ACK to 0 
now end server 0 ... 
