srun -N 1 --ntasks-per-node 1 --cpus-per-task 64 --cpu_bind=cores --nodelist nid01253 /global/project/projectdirs/jcesr/qchem/qc44/cnl_qc441/dist/exe/qcprog.cori.haswell.exe .pt_mp2_70.0.in.28961.qcin.1 /dev/shm/eg_qchem/qchem28961/
Process 0 of 1 is on nid01253 - thread support 0
initial socket setup ...start
initial socket setup ...done 
now start server 0 ... 
nid01253 10.128.4
Q-Chem Developer Version! Running on 10.128.4.*
                  Welcome to Q-Chem
     A Quantum Leap Into The Future Of Chemistry


 Q-Chem 4.4, Q-Chem, Inc., Pleasanton, CA (2016)

 Y. Shao,  Z. Gan,  E. Epifanovsky,  A. T. B. Gilbert,  M. Wormit,  
 J. Kussmann,  A. W. Lange,  A. Behn,  J. Deng,  X. Feng,  D. Ghosh,  
 M. Goldey,  P. R. Horn,  L. D. Jacobson,  I. Kaliman,  F.Rob,  
 R. Z. Khaliullin,  T. Kus,  A. Landau,  J. Liu,  E. I. Proynov,  Y. M. Rhee,  
 R. M. Richard,  M. A. Rohrdanz,  R. P. Steele,  E. J. Sundstrom,  
 H. L. Woodcock III,  P. M. Zimmerman,  D. Zuev,  B. Albrecht,  E. Alguire,  
 B. Austin,  S. A. Baeppler,  G. J. O. Beran,  Y. A. Bernard,  E. Berquist,  
 K. Brandhorst,  K. B. Bravaya,  S. T. Brown,  D. Casanova,  C.-M. Chang,  
 Y. Chen,  S. H. Chien,  K. D. Closser,  M. P. Coons,  D. L. Crittenden,  
 S. Dasgupta,  M. Diedenhofen,  R. A. DiStasio Jr.,  H. Do,  A. D. Dutoi,  
 R. G. Edgar,  P.-T. Fang,  S. Fatehi,  Q. Feng,  L. Fusti-Molnar,  
 A. Ghysels,  A. Golubeva-Zadorozhnaya,  J. Gomes,  A. Gunina,  
 M. W. D. Hanson-Heine,  P. H. P. Harbach,  A. W. Hauser,  E. G. Hohenstein,  
 Z. C. Holden,  K. Hui,  T.-C. Jagau,  H. Ji,  B. Kaduk,  K. Khistyaev,  
 Jaehoon Kim,  Jihan Kim,  R. A. King,  P. Klunzinger,  D. Kosenkov,  
 T. Kowalczyk,  C. M. Krauter,  A. Kunitsa,  K. U. Lao,  A. Laurent,  
 K. V. Lawler,  D. Lefrancois,  S. Lehtola,  S. V. Levchenko,  C. Y. Lin,  
 Y.-S. Lin,  F. Liu,  E. Livshits,  R. C. Lochan,  A. Luenser,  P. Manohar,  
 S. F. Manzer,  S.-P. Mao,  Y. Mao,  N. Mardirossian,  A. V. Marenich,  
 L. A. Martinez-Martinez,  S. A. Maurer,  N. J. Mayhall,  J.-M. Mewes,  
 A. F. Morrison,  K. Nanda,  C. M. Oana,  R. Olivares-Amaya,  D. P. O'Neill,  
 J. A. Parkhill,  T. M. Perrine,  R. Peverati,  P. A. Pieniazek,  F. Plasser,  
 A. Prociuk,  D. R. Rehn,  E. Rosta,  N. J. Russ,  N. Sergueev,  
 S. M. Sharada,  S. Sharma,  D. W. Small,  A. Sodt,  T. Stauch,  T. Stein,  
 D. Stuck,  Y.-C. Su,  A. J. W. Thom,  T. Tsuchimochi,  L. Vogt,  O. Vydrov,  
 T. Wang,  M. A. Watson,  J. Wenzel,  A. White,  C. F. Williams,  
 V. Vanovschi,  S. Yeganeh,  S. R. Yost,  Z.-Q. You,  I. Y. Zhang,  X. Zhang,  
 Y. Zhao,  B. R. Brooks,  G. K. L. Chan,  D. M. Chipman,  C. J. Cramer,  
 W. A. Goddard III,  M. S. Gordon,  W. J. Hehre,  A. Klamt,  
 H. F. Schaefer III,  M. W. Schmidt,  C. D. Sherrill,  D. G. Truhlar,  
 A. Warshel,  X. Xu,  A. Aspuru-Guzik,  R. Baer,  A. T. Bell,  N. A. Besley,  
 J.-D. Chai,  A. Dreuw,  B. D. Dunietz,  T. R. Furlani,  S. R. Gwaltney,  
 C.-P. Hsu,  Y. Jung,  J. Kong,  D. S. Lambrecht,  W. Liang,  C. Ochsenfeld,  
 V. A. Rassolov,  L. V. Slipchenko,  J. E. Subotnik,  T. Van Voorhis,  
 J. M. Herbert,  A. I. Krylov,  P. M. W. Gill,  M. Head-Gordon

 Contributors to earlier versions of Q-Chem not listed above: 
 R. D. Adamson,  J. Baker,  E. F. C. Byrd,  A. K. Chakraborty,  C.-L. Cheng,  
 H. Dachsel,  R. J. Doerksen,  G. Hawkins,  A. Heyden,  S. Hirata,  
 G. Kedziora,  F. J. Keil,  C. Kelley,  P. P. Korambath,  W. Kurlancheek,  
 A. M. Lee,  M. S. Lee,  D. Liotard,  I. Lotan,  P. E. Maslen,  N. Nair,  
 D. Neuhauser,  R. Olson,  B. Peters,  J. Ritchie,  N. E. Schultz,  
 N. Shenvi,  A. C. Simmonett,  K. S. Thanthiriwatte,  Q. Wu,  W. Zhang

 Please cite Q-Chem as follows:
 Y. Shao et al., Mol. Phys. 113, 184-215 (2015)
 DOI: 10.1080/00268976.2014.952696

 Q-Chem 4.4.1 for Intel X86 EM64T Linux

 Parts of Q-Chem use Armadillo 5.200.1 (Boston Tea Smuggler).
 http://arma.sourceforge.net/

 Q-Chem begins on Mon Mar  6 14:00:19 2017  

Host: nid01196
0

     Scratch files written to /dev/shm/eg_qchem/qchem28961//
 Parallel job on  1  processors

Checking the input file for inconsistencies... 	...done.

--------------------------------------------------------------
User input:
--------------------------------------------------------------
$molecule
 0  1
 S           1.80900300       -1.15938900        0.25896800
 C           3.16466000       -0.14246800        0.05606700
 C           2.78757500        1.14089100       -0.25226100
 C           1.39402000        1.28822000       -0.33563400
 C           0.70898100        0.11689900       -0.08798100
 H           0.89277600        2.20524100       -0.58940400
 C          -0.70898100       -0.11689900       -0.08798100
 S          -1.54618942       -0.43454963        1.38086658
 C          -1.58415392       -0.13507638       -1.15397597
 C          -3.04716573       -0.57012325        0.57974676
 C          -2.91074963       -0.39384894       -0.77472273
 H          -3.73821869       -0.44163359       -1.45822406
 H           4.15569300       -0.53353100        0.17259300
 H           3.49202900        1.93475000       -0.41867900
 H          -3.94072531       -0.77022699        1.13667113
 H          -1.26570602        0.05654307       -2.16315642
$end


$rem
         jobtype = opt
        exchange = hf
           basis = cc-pvtz
  max_scf_cycles = 100
      mem_static = 6200
       mem_total = 62000
          method = mp2
$end


$opt
CONSTRAINT
tors 4 5 7 9 70.0
ENDCONSTRAINT
$end

--------------------------------------------------------------
 Atom   8: ( -1.6583088017,  0.7143900108,  0.9328259813)
         ->( -1.6583088049,  0.7143900152,  0.9328259716)
 Atom  10: ( -3.1208261778,  0.1463593791,  0.2608980226)
         ->( -3.1208261779,  0.1463593851,  0.2608980180)
 Atom  11: ( -2.8955234823, -0.6251143151, -0.8519077191)
         ->( -2.8955234771, -0.6251143225, -0.8519077095)
 Atom   9: ( -1.5310866951, -0.7396063469, -1.1615143471)
         ->( -1.5310866929, -0.7396063509, -1.1615143416)
 Atom  16: ( -1.1416380433, -1.2786022000, -2.0067276204)
         ->( -1.1416380374, -1.2786022196, -2.0067276124)
 Atom  14: (  3.6862220202,  1.0783556346, -1.4207052372)
         ->(  3.6862220183,  1.0783556246, -1.4207052460)
 Atom  15: ( -4.0584728747,  0.4039346291,  0.7115959768)
         ->( -4.0584728773,  0.4039346309,  0.7115959718)
 ----------------------------------------------------------------
             Standard Nuclear Orientation (Angstroms)
    I     Atom           X                Y                Z
 ----------------------------------------------------------------
    1      S       1.6583088049    -0.7143900152     0.9328259716
    2      C       3.1208261779    -0.1463593851     0.2608980180
    3      C       2.8955234771     0.6251143225    -0.8519077095
    4      C       1.5310866929     0.7396063509    -1.1615143416
    5      C       0.7162807531     0.0571079376    -0.2823724182
    6      H       1.1416380374     1.2786022196    -2.0067276124
    7      C      -0.7162807543    -0.0571079360    -0.2823724183
    8      S      -1.6583088049     0.7143900152     0.9328259716
    9      C      -1.5310866929    -0.7396063509    -1.1615143416
   10      C      -3.1208261779     0.1463593851     0.2608980180
   11      C      -2.8955234771    -0.6251143225    -0.8519077095
   12      H      -3.6862220183    -1.0783556246    -1.4207052460
   13      H       4.0584728773    -0.4039346309     0.7115959718
   14      H       3.6862220183     1.0783556246    -1.4207052460
   15      H      -4.0584728773     0.4039346309     0.7115959718
   16      H      -1.1416380374    -1.2786022196    -2.0067276124
 ----------------------------------------------------------------
 Molecular Point Group                 C2    NOp =  2
 Largest Abelian Subgroup              C2    NOp =  2
 Nuclear Repulsion Energy =   637.2010281027 hartrees
 There are       43 alpha and       43 beta electrons
 Requested basis set is cc-pVTZ
 There are 140 shells and 392 basis functions

 Total QAlloc Memory Limit  62000 MB
 Mega-Array Size      6061 MB
 MEM_STATIC part      6200 MB
 A cutoff of  1.0D-11 yielded   8040 shell pairs
 There are     62596 function pairs (     81642 Cartesian)
 
 -------------------------------------------------------
 OpenMP Integral Computing Module                       
 Release: version 1.0, May 2013, Q-Chem Inc. Pittsburgh 
 -------------------------------------------------------
 Integral Job Info:
 Integral job number is                      11
 Integral operator is                         1
 short-range coefficients                     0
 long-range coefficients              100000000
 Omega coefficients                           0
 if combine SR and LR in K                    0
 Integral screening is                        0
 Integral computing path is                   2
 max size of driver memory is            800000
 size of driver memory is                776718
 size of scratch memory is             26248924
 max col of scratch BK array              10000
 max len of scratch array in speh3          662
 max len of scratch index in speh4           32
 max int batch size is                      520
 min int batch size is                       52
 fixed nKL is                                52
 max L of basis functions is                  3
 order of int derivative is                   0
 number of shells is                        140
 number of basis is                         448
 number of cartesian basis is               448
 number of contracted shell pairs          8040
 number of primitive shell pairs          28558
 maxK2 (contraction) of shell pair          121
 max number of K2 of shell pair               1
 max number of CS2 of shell pair           1066
 max number of PS2 of shell pair           3066
 mem total for path MDJ                  225820
 -------------------------------------------------------
 Smallest overlap matrix eigenvalue = 9.37E-05

 Scale SEOQF with 1.000000e-01/1.000000e+00/1.000000e-01

 Standard Electronic Orientation quadrupole field applied
 Nucleus-field energy     =     0.0000000313 hartrees
 Guess from superposition of atomic densities
 Warning:  Energy on first SCF cycle will be non-variational
 A restricted Hartree-Fock SCF calculation will be
 performed using Pulay DIIS extrapolation
 SCF converges when DIIS error is below 1.0E-08
 using 16 threads for integral computing 
 ---------------------------------------
  Cycle       Energy         DIIS Error
 ---------------------------------------
    1   -1106.0781013234      2.99E-02
    2   -1091.8367430261      1.94E-02
    3   -1101.0213718190      4.96E-03
    4   -1101.4515487741      2.69E-03
    5   -1101.5869264152      6.12E-04
    6   -1101.5946143782      2.35E-04
    7   -1101.5960181899      5.48E-05
    8   -1101.5961671964      2.76E-05
    9   -1101.5962114471      1.24E-05
   10   -1101.5962258527      5.87E-06
   11   -1101.5962284647      1.81E-06
   12   -1101.5962287460      5.99E-07
   13   -1101.5962287741      2.08E-07
   14   -1101.5962287779      8.43E-08
   15   -1101.5962287787      3.41E-08
   16   -1101.5962287764      9.85E-09 Convergence criterion met
 ---------------------------------------
 SCF time:  CPU 639.90 s  wall 40.05 s
 SCF   energy in the final basis set = -1101.5962287764
 Total energy in the final basis set = -1101.5962287764
 
 Components of the MP2 correlation energy:
        aaaa  correlation energy =        -0.2321949243 au
        abab  correlation energy =        -1.3506303150 au
        bbbb  correlation energy =        -0.2321949243 au
        non-Brillouin singles    =        -0.0000000000 au

 Total  MP2   correlation energy =        -1.8150201636 au
        MP2         total energy =     -1103.4112489400 au

  Entering Z-vector solver.
   1         0           1      0.000267    0.000267
   2         0           1      0.000119    0.000119
   3         0           1      0.000049    0.000049
   4         0           1      0.000023    0.000023
   5         0           1      0.000007    0.000007
   6         0           1      0.000003    0.000003
   7         1           0      0.000000    0.000000    Roots Converged
 
 --------------------------------------------------------------
             Orbital Energies (a.u.) and Symmetries
 --------------------------------------------------------------
 
 Alpha MOs, Restricted
 -- Occupied --                  
-91.984 -91.984 -11.272 -11.271 -11.261 -11.261 -11.238 -11.238
  1 B     1 A     2 A     2 B     3 B     3 A     4 B     4 A                  
-11.236 -11.236  -8.985  -8.985  -6.666  -6.666  -6.666  -6.666
  5 A     5 B     6 B     6 A     7 A     7 B     8 A     8 B                  
 -6.665  -6.665  -1.195  -1.166  -1.034  -0.994  -0.988  -0.948
  9 B     9 A    10 A    10 B    11 A    12 A    11 B    12 B                  
 -0.808  -0.768  -0.758  -0.718  -0.704  -0.645  -0.571  -0.568
 13 A    14 A    13 B    14 B    15 A    15 B    16 A    17 A                  
 -0.566  -0.555  -0.538  -0.511  -0.511  -0.478  -0.473  -0.354
 16 B    17 B    18 A    19 A    18 B    20 A    19 B    21 A                  
 -0.344  -0.341  -0.305
 20 B    21 B    22 A                                                          
 -- Virtual --                   
  0.098   0.119   0.151   0.151   0.162   0.173   0.181   0.192
 22 B    23 A    24 A    23 B    25 A    24 B    26 A    27 A                  
  0.195   0.202   0.204   0.222   0.242   0.251   0.315   0.333
 25 B    28 A    26 B    27 B    29 A    28 B    30 A    29 B                  
  0.345   0.357   0.368   0.377   0.389   0.399   0.417   0.427
 30 B    31 A    32 A    31 B    33 A    32 B    33 B    34 A                  
  0.443   0.453   0.457   0.466   0.472   0.482   0.488   0.493
 35 A    36 A    34 B    35 B    37 A    36 B    37 B    38 A                  
  0.519   0.519   0.537   0.543   0.547   0.554   0.571   0.572
 39 A    38 B    40 A    39 B    40 B    41 A    42 A    41 B                  
  0.587   0.587   0.594   0.600   0.610   0.615   0.620   0.625
 42 B    43 A    44 A    43 B    45 A    44 B    46 A    45 B                  
  0.629   0.638   0.656   0.666   0.676   0.690   0.708   0.732
 47 A    46 B    47 B    48 A    48 B    49 A    50 A    49 B                  
  0.745   0.753   0.785   0.791   0.799   0.812   0.846   0.857
 51 A    50 B    51 B    52 A    52 B    53 A    53 B    54 A                  
  0.868   0.869   0.884   0.897   0.899   0.919   0.936   0.942
 55 A    54 B    55 B    56 A    56 B    57 A    57 B    58 B                  
  0.956   0.990   0.996   1.009   1.018   1.036   1.056   1.074
 58 A    59 A    59 B    60 A    61 A    60 B    61 B    62 A                  
  1.097   1.102   1.116   1.122   1.155   1.167   1.174   1.183
 62 B    63 A    63 B    64 A    64 B    65 B    65 A    66 A                  
  1.189   1.197   1.222   1.224   1.238   1.241   1.287   1.289
 67 A    66 B    68 A    67 B    69 A    68 B    70 A    69 B                  
  1.307   1.311   1.320   1.370   1.381   1.398   1.404   1.428
 70 B    71 A    71 B    72 A    72 B    73 B    73 A    74 B                  
  1.435   1.461   1.471   1.489   1.492   1.514   1.520   1.544
 74 A    75 B    75 A    76 A    76 B    77 B    77 A    78 B                  
  1.554   1.567   1.572   1.585   1.586   1.615   1.634   1.645
 78 A    79 B    79 A    80 A    80 B    81 A    81 B    82 A                  
  1.674   1.681   1.702   1.736   1.738   1.753   1.785   1.813
 83 A    82 B    83 B    84 B    84 A    85 B    85 A    86 B                  
  1.834   1.878   1.888   1.894   1.919   1.920   1.931   1.957
 86 A    87 B    87 A    88 B    88 A    89 B    89 A    90 A                  
  1.970   2.007   2.019   2.054   2.076   2.121   2.121   2.159
 90 B    91 A    91 B    92 B    92 A    93 B    93 A    94 B                  
  2.171   2.187   2.189   2.194   2.216   2.238   2.257   2.264
 94 A    95 A    95 B    96 A    96 B    97 A    97 B    98 A                  
  2.288   2.308   2.311   2.396   2.428   2.429   2.464   2.478
 98 B    99 B    99 A   100 A   100 B   101 A   102 A   101 B                  
  2.496   2.503   2.514   2.533   2.553   2.558   2.576   2.610
103 A   102 B   103 B   104 A   104 B   105 A   105 B   106 A                  
  2.612   2.634   2.664   2.686   2.719   2.739   2.748   2.759
106 B   107 B   107 A   108 A   108 B   109 B   109 A   110 A                  
  2.765   2.777   2.788   2.812   2.813   2.876   2.878   2.897
110 B   111 B   111 A   112 B   112 A   113 A   114 A   113 B                  
  2.915   2.926   2.939   2.969   3.002   3.014   3.017   3.027
114 B   115 A   115 B   116 A   116 B   117 A   118 A   117 B                  
  3.036   3.048   3.078   3.144   3.152   3.167   3.184   3.200
119 A   118 B   119 B   120 B   120 A   121 A   121 B   122 A                  
  3.203   3.227   3.239   3.245   3.247   3.278   3.280   3.287
122 B   123 B   123 A   124 B   124 A   125 B   125 A   126 A                  
  3.299   3.323   3.331   3.339   3.348   3.367   3.373   3.389
126 B   127 A   127 B   128 A   128 B   129 A   129 B   130 B                  
  3.401   3.414   3.425   3.439   3.449   3.463   3.473   3.475
130 A   131 A   131 B   132 A   133 A   134 A   135 A   132 B                  
  3.481   3.489   3.503   3.509   3.517   3.523   3.526   3.537
133 B   134 B   136 A   135 B   137 A   136 B   138 A   137 B                  
  3.563   3.585   3.596   3.598   3.605   3.623   3.657   3.665
138 B   139 A   140 A   139 B   140 B   141 A   141 B   142 A                  
  3.688   3.708   3.719   3.721   3.752   3.759   3.761   3.782
142 B   143 A   143 B   144 A   145 A   144 B   146 A   147 A                  
  3.787   3.827   3.875   3.885   3.903   3.914   3.937   3.942
145 B   146 B   147 B   148 A   148 B   149 A   149 B   150 A                  
  3.967   3.976   3.990   4.011   4.023   4.031   4.039   4.040
150 B   151 A   151 B   152 A   152 B   153 A   154 A   153 B                  
  4.088   4.110   4.125   4.145   4.169   4.180   4.184   4.186
154 B   155 B   155 A   156 A   156 B   157 A   158 A   157 B                  
  4.211   4.212   4.248   4.253   4.259   4.287   4.295   4.322
159 A   158 B   159 B   160 A   160 B   161 B   161 A   162 A                  
  4.339   4.379   4.403   4.429   4.468   4.485   4.503   4.518
162 B   163 A   163 B   164 A   164 B   165 A   165 B   166 A                  
  4.539   4.549   4.593   4.604   4.641   4.691   4.695   4.698
167 A   166 B   167 B   168 A   169 A   168 B   170 A   171 A                  
  4.700   4.726   4.758   4.767   4.787   4.815   4.851   4.863
169 B   170 B   171 B   172 B   172 A   173 A   173 B   174 A                  
  4.915   4.941   5.001   5.002   5.044   5.073   5.074   5.087
174 B   175 A   176 A   175 B   176 B   177 A   178 A   179 A                  
  5.097   5.107   5.199   5.227   5.247   5.299   5.315   5.381
177 B   178 B   179 B   180 A   180 B   181 A   181 B   182 A                  
  5.392   5.413   5.417   5.472   5.581   5.596   5.660   5.670
182 B   183 A   183 B   184 A   184 B   185 A   185 B   186 A                  
  5.826   5.853   5.971   6.015   6.110   6.132   6.187   6.187
186 B   187 A   187 B   188 A   188 B   189 A   190 A   189 B                  
  6.214   6.549   6.559   6.696   6.771   9.527  10.731  11.875
190 B   191 A   191 B   192 A   192 B   193 A   193 B   194 A                  
 12.258  13.493  13.595  14.558  14.707
194 B   195 A   195 B   196 A   196 B                                          
 
 Beta MOs, Restricted
 -- Occupied --                  
-91.984 -91.984 -11.272 -11.271 -11.261 -11.261 -11.238 -11.238
  1 B     1 A     2 A     2 B     3 B     3 A     4 B     4 A                  
-11.236 -11.236  -8.985  -8.985  -6.666  -6.666  -6.666  -6.666
  5 A     5 B     6 B     6 A     7 A     7 B     8 A     8 B                  
 -6.665  -6.665  -1.195  -1.166  -1.034  -0.994  -0.988  -0.948
  9 B     9 A    10 A    10 B    11 A    12 A    11 B    12 B                  
 -0.808  -0.768  -0.758  -0.718  -0.704  -0.645  -0.571  -0.568
 13 A    14 A    13 B    14 B    15 A    15 B    16 A    17 A                  
 -0.566  -0.555  -0.538  -0.511  -0.511  -0.478  -0.473  -0.354
 16 B    17 B    18 A    19 A    18 B    20 A    19 B    21 A                  
 -0.344  -0.341  -0.305
 20 B    21 B    22 A                                                          
 -- Virtual --                   
  0.098   0.119   0.151   0.151   0.162   0.173   0.181   0.192
 22 B    23 A    24 A    23 B    25 A    24 B    26 A    27 A                  
  0.195   0.202   0.204   0.222   0.242   0.251   0.315   0.333
 25 B    28 A    26 B    27 B    29 A    28 B    30 A    29 B                  
  0.345   0.357   0.368   0.377   0.389   0.399   0.417   0.427
 30 B    31 A    32 A    31 B    33 A    32 B    33 B    34 A                  
  0.443   0.453   0.457   0.466   0.472   0.482   0.488   0.493
 35 A    36 A    34 B    35 B    37 A    36 B    37 B    38 A                  
  0.519   0.519   0.537   0.543   0.547   0.554   0.571   0.572
 39 A    38 B    40 A    39 B    40 B    41 A    42 A    41 B                  
  0.587   0.587   0.594   0.600   0.610   0.615   0.620   0.625
 42 B    43 A    44 A    43 B    45 A    44 B    46 A    45 B                  
  0.629   0.638   0.656   0.666   0.676   0.690   0.708   0.732
 47 A    46 B    47 B    48 A    48 B    49 A    50 A    49 B                  
  0.745   0.753   0.785   0.791   0.799   0.812   0.846   0.857
 51 A    50 B    51 B    52 A    52 B    53 A    53 B    54 A                  
  0.868   0.869   0.884   0.897   0.899   0.919   0.936   0.942
 55 A    54 B    55 B    56 A    56 B    57 A    57 B    58 B                  
  0.956   0.990   0.996   1.009   1.018   1.036   1.056   1.074
 58 A    59 A    59 B    60 A    61 A    60 B    61 B    62 A                  
  1.097   1.102   1.116   1.122   1.155   1.167   1.174   1.183
 62 B    63 A    63 B    64 A    64 B    65 B    65 A    66 A                  
  1.189   1.197   1.222   1.224   1.238   1.241   1.287   1.289
 67 A    66 B    68 A    67 B    69 A    68 B    70 A    69 B                  
  1.307   1.311   1.320   1.370   1.381   1.398   1.404   1.428
 70 B    71 A    71 B    72 A    72 B    73 B    73 A    74 B                  
  1.435   1.461   1.471   1.489   1.492   1.514   1.520   1.544
 74 A    75 B    75 A    76 A    76 B    77 B    77 A    78 B                  
  1.554   1.567   1.572   1.585   1.586   1.615   1.634   1.645
 78 A    79 B    79 A    80 A    80 B    81 A    81 B    82 A                  
  1.674   1.681   1.702   1.736   1.738   1.753   1.785   1.813
 83 A    82 B    83 B    84 B    84 A    85 B    85 A    86 B                  
  1.834   1.878   1.888   1.894   1.919   1.920   1.931   1.957
 86 A    87 B    87 A    88 B    88 A    89 B    89 A    90 A                  
  1.970   2.007   2.019   2.054   2.076   2.121   2.121   2.159
 90 B    91 A    91 B    92 B    92 A    93 B    93 A    94 B                  
  2.171   2.187   2.189   2.194   2.216   2.238   2.257   2.264
 94 A    95 A    95 B    96 A    96 B    97 A    97 B    98 A                  
  2.288   2.308   2.311   2.396   2.428   2.429   2.464   2.478
 98 B    99 B    99 A   100 A   100 B   101 A   102 A   101 B                  
  2.496   2.503   2.514   2.533   2.553   2.558   2.576   2.610
103 A   102 B   103 B   104 A   104 B   105 A   105 B   106 A                  
  2.612   2.634   2.664   2.686   2.719   2.739   2.748   2.759
106 B   107 B   107 A   108 A   108 B   109 B   109 A   110 A                  
  2.765   2.777   2.788   2.812   2.813   2.876   2.878   2.897
110 B   111 B   111 A   112 B   112 A   113 A   114 A   113 B                  
  2.915   2.926   2.939   2.969   3.002   3.014   3.017   3.027
114 B   115 A   115 B   116 A   116 B   117 A   118 A   117 B                  
  3.036   3.048   3.078   3.144   3.152   3.167   3.184   3.200
119 A   118 B   119 B   120 B   120 A   121 A   121 B   122 A                  
  3.203   3.227   3.239   3.245   3.247   3.278   3.280   3.287
122 B   123 B   123 A   124 B   124 A   125 B   125 A   126 A                  
  3.299   3.323   3.331   3.339   3.348   3.367   3.373   3.389
126 B   127 A   127 B   128 A   128 B   129 A   129 B   130 B                  
  3.401   3.414   3.425   3.439   3.449   3.463   3.473   3.475
130 A   131 A   131 B   132 A   133 A   134 A   135 A   132 B                  
  3.481   3.489   3.503   3.509   3.517   3.523   3.526   3.537
133 B   134 B   136 A   135 B   137 A   136 B   138 A   137 B                  
  3.563   3.585   3.596   3.598   3.605   3.623   3.657   3.665
138 B   139 A   140 A   139 B   140 B   141 A   141 B   142 A                  
  3.688   3.708   3.719   3.721   3.752   3.759   3.761   3.782
142 B   143 A   143 B   144 A   145 A   144 B   146 A   147 A                  
  3.787   3.827   3.875   3.885   3.903   3.914   3.937   3.942
145 B   146 B   147 B   148 A   148 B   149 A   149 B   150 A                  
  3.967   3.976   3.990   4.011   4.023   4.031   4.039   4.040
150 B   151 A   151 B   152 A   152 B   153 A   154 A   153 B                  
  4.088   4.110   4.125   4.145   4.169   4.180   4.184   4.186
154 B   155 B   155 A   156 A   156 B   157 A   158 A   157 B                  
  4.211   4.212   4.248   4.253   4.259   4.287   4.295   4.322
159 A   158 B   159 B   160 A   160 B   161 B   161 A   162 A                  
  4.339   4.379   4.403   4.429   4.468   4.485   4.503   4.518
162 B   163 A   163 B   164 A   164 B   165 A   165 B   166 A                  
  4.539   4.549   4.593   4.604   4.641   4.691   4.695   4.698
167 A   166 B   167 B   168 A   169 A   168 B   170 A   171 A                  
  4.700   4.726   4.758   4.767   4.787   4.815   4.851   4.863
169 B   170 B   171 B   172 B   172 A   173 A   173 B   174 A                  
  4.915   4.941   5.001   5.002   5.044   5.073   5.074   5.087
174 B   175 A   176 A   175 B   176 B   177 A   178 A   179 A                  
  5.097   5.107   5.199   5.227   5.247   5.299   5.315   5.381
177 B   178 B   179 B   180 A   180 B   181 A   181 B   182 A                  
  5.392   5.413   5.417   5.472   5.581   5.596   5.660   5.670
182 B   183 A   183 B   184 A   184 B   185 A   185 B   186 A                  
  5.826   5.853   5.971   6.015   6.110   6.132   6.187   6.187
186 B   187 A   187 B   188 A   188 B   189 A   190 A   189 B                  
  6.214   6.549   6.559   6.696   6.771   9.527  10.731  11.875
190 B   191 A   191 B   192 A   192 B   193 A   193 B   194 A                  
 12.258  13.493  13.595  14.558  14.707
194 B   195 A   195 B   196 A   196 B                                          
 --------------------------------------------------------------
 
          Ground-State Mulliken Net Atomic Charges

     Atom                 Charge (a.u.)
  ----------------------------------------
      1 S                     0.127477
      2 C                    -0.238814
      3 C                    -0.190321
      4 C                    -0.192617
      5 C                    -0.040078
      6 H                     0.175749
      7 C                    -0.040077
      8 S                     0.127477
      9 C                    -0.192617
     10 C                    -0.238815
     11 C                    -0.190320
     12 H                     0.174586
     13 H                     0.184018
     14 H                     0.174586
     15 H                     0.184018
     16 H                     0.175749
  ----------------------------------------
  Sum of atomic charges =    -0.000000

 -----------------------------------------------------------------
                    Cartesian Multipole Moments
 -----------------------------------------------------------------
    Charge (ESU x 10^10)
                 0.0000
    Dipole Moment (Debye)
         X       0.0000      Y      -0.0000      Z      -0.6243
       Tot       0.6243
    Quadrupole Moments (Debye-Ang)
        XX     -61.3328     XY       0.7405     YY     -74.6268
        XZ      -0.0000     YZ       0.0000     ZZ     -70.7515
    Octopole Moments (Debye-Ang^2)
       XXX      -0.0000    XXY       0.0000    XYY       0.0000
       YYY      -0.0000    XXZ       6.0433    XYZ     -12.4842
       YYZ      -1.7934    XZZ       0.0000    YZZ       0.0000
       ZZZ      -0.9809
    Hexadecapole Moments (Debye-Ang^3)
      XXXX   -1825.9283   XXXY      -4.4069   XXYY    -401.4616
      XYYY      -6.1009   YYYY    -263.5128   XXXZ      -0.0000
      XXYZ       0.0000   XYYZ      -0.0000   YYYZ       0.0000
      XXZZ    -399.8743   XYZZ       8.1676   YYZZ    -102.9820
      XZZZ      -0.0000   YZZZ       0.0000   ZZZZ    -412.7939
 -----------------------------------------------------------------
 DrvMan is completing analytic gradient of the MP2 energy
 MP2 relaxed dipole moment
            1
    1   0.0000000
    2  -0.0000000
    3  -0.2456117
	Magnitude:	 0.246 au	 0.624 Debye
 MP2 energy read as -1103.411249
 Full Analytical Gradient of MP2 Energy (in au.)
             1             2             3             4             5
    1   -0.00154375    0.00095943   -0.00039839    0.00093611   -0.00714461
    2   -0.00040764   -0.00003486    0.00131188    0.00241905   -0.00174324
    3    0.00127807   -0.00210890    0.00116672    0.00129487   -0.00024876
             6             7             8             9            10
    1    0.00054879    0.00714461    0.00154375   -0.00093611   -0.00095943
    2   -0.00091182    0.00174325    0.00040764   -0.00241905    0.00003486
    3   -0.00112418   -0.00024876    0.00127807    0.00129487   -0.00210890
            11            12            13            14            15
    1    0.00039839    0.00003351   -0.00021275   -0.00003351    0.00021275
    2   -0.00131188    0.00004434   -0.00061724   -0.00004434    0.00061724
    3    0.00116672   -0.00004101   -0.00021681   -0.00004101   -0.00021681
            16
    1   -0.00054879
    2    0.00091182
    3   -0.00112418
 Gradient time:  CPU 1.47 s  wall 0.09 s
 Geometry Optimization Parameters
   NAtoms,    NIC,     NZ,  NCons,   NDum,   NFix, NCnnct, MaxDiis
       16     111       0       1       0       0       0       0


** CONSTRAINED OPTIMIZATION IN DELOCALIZED INTERNAL COORDINATES **
   Searching for a Minimum

   Optimization Cycle:   1

                       Coordinates (Angstroms)
     ATOM                X               Y               Z
      1  S         1.6583088049   -0.7143900152    0.9328259716
      2  C         3.1208261779   -0.1463593851    0.2608980180
      3  C         2.8955234771    0.6251143225   -0.8519077095
      4  C         1.5310866929    0.7396063509   -1.1615143416
      5  C         0.7162807537    0.0571079368   -0.2823724182
      6  H         1.1416380374    1.2786022196   -2.0067276124
      7  C        -0.7162807537   -0.0571079368   -0.2823724182
      8  S        -1.6583088049    0.7143900152    0.9328259716
      9  C        -1.5310866929   -0.7396063509   -1.1615143416
     10  C        -3.1208261779    0.1463593851    0.2608980180
     11  C        -2.8955234771   -0.6251143225   -0.8519077095
     12  H        -3.6862220183   -1.0783556246   -1.4207052460
     13  H         4.0584728773   -0.4039346309    0.7115959718
     14  H         3.6862220183    1.0783556246   -1.4207052460
     15  H        -4.0584728773    0.4039346309    0.7115959718
     16  H        -1.1416380374   -1.2786022196   -2.0067276124
   Point Group: c2    Number of degrees of freedom:    22


   Energy is  -1103.411248940

              Constraints and their Current Values
                                        Value     Constraint
   Dihedral:        4   5   7   9       70.000       70.000

 Attempting to Generate Delocalized Internal Coordinates

 21 Hessian modes will be used to form the next step
  Hessian Eigenvalues:
     0.045000    0.045000    0.045000    0.045002    0.045003    0.045012
     0.159945    0.159993    0.160000    0.221308    0.238060    0.249999
     0.326324    0.340049    0.365509    0.366895    0.370094    0.399848
     0.435412    0.463135    0.495504

 Minimum Search - Taking Simple RFO Step
 Searching for Lamda that Minimizes Along All modes
 Value Taken    Lamda =  -0.00041555
 Step Taken.  Stepsize is  0.074654

                             Maximum     Tolerance    Cnvgd?
         Gradient           0.003698      0.000300      NO
         Displacement       0.054640      0.001200      NO
         Energy change     *********      0.000001      NO


 New Cartesian Coordinates Obtained by Inverse Iteration

 Displacement from previous Coordinates is:  0.094149
 ----------------------------------------------------------------
             Standard Nuclear Orientation (Angstroms)
    I     Atom           X                Y                Z
 ----------------------------------------------------------------
    1      S       1.6657875245    -0.7162474564     0.9317332741
    2      C       3.1262440661    -0.1412492850     0.2660631350
    3      C       2.9001313256     0.6141348743    -0.8582984292
    4      C       1.5345302466     0.7292575091    -1.1658943900
    5      C       0.7212393682     0.0517608677    -0.2839540348
    6      H       1.1399444897     1.2742815839    -2.0044140516
    7      C      -0.7212393682    -0.0517608677    -0.2839540348
    8      S      -1.6657875245     0.7162474564     0.9317332741
    9      C      -1.5345302466    -0.7292575091    -1.1658943900
   10      C      -3.1262440661     0.1412492850     0.2660631350
   11      C      -2.9001313256    -0.6141348743    -0.8582984292
   12      H      -3.6900191547    -1.0689081619    -1.4270588524
   13      H       4.0643707963    -0.3848442583     0.7239159827
   14      H       3.6900191547     1.0689081619    -1.4270588524
   15      H      -4.0643707963     0.3848442583     0.7239159827
   16      H      -1.1399444897    -1.2742815839    -2.0044140516
 ----------------------------------------------------------------
 Molecular Point Group                 C2    NOp =  2
 Largest Abelian Subgroup              C2    NOp =  2
 Nuclear Repulsion Energy =   636.6186266400 hartrees
 There are       43 alpha and       43 beta electrons
 Applying Cartesian multipole field
    Component          Value
    ---------          -----
     (2,0,0)        1.00000E-11
     (0,2,0)        2.00000E-10
     (0,0,2)       -3.00000E-11
 Nucleus-field energy     =     0.0000000310 hartrees
 Requested basis set is cc-pVTZ
 There are 140 shells and 392 basis functions
 A cutoff of  1.0D-11 yielded   8038 shell pairs
 There are     62590 function pairs (     81636 Cartesian)
 Smallest overlap matrix eigenvalue = 9.65E-05
 Guess MOs from SCF MO coefficient file
 Reading MOs from coefficient file
 Reading MOs from coefficient file
 A restricted Hartree-Fock SCF calculation will be
 performed using Pulay DIIS extrapolation
 SCF converges when DIIS error is below 1.0E-08
 Geometry optimization detected.  Setting ReadMinima to 0
 Setting SaveMinima to 0
 using 16 threads for integral computing 
 ---------------------------------------
  Cycle       Energy         DIIS Error
 ---------------------------------------
    1   -1101.5976256121      2.51E-04
    2   -1101.5969382210      2.82E-05
    3   -1101.5969684343      1.19E-05
    4   -1101.5969732170      6.41E-06
    5   -1101.5969747579      2.36E-06
    6   -1101.5969749998      9.22E-07
    7   -1101.5969750555      3.38E-07
    8   -1101.5969750622      1.30E-07
    9   -1101.5969750637      4.44E-08
   10   -1101.5969750638      1.80E-08
   11   -1101.5969750637      7.35E-09 Convergence criterion met
 ---------------------------------------
 SCF time:  CPU 702.91 s  wall 43.97 s
 SCF   energy in the final basis set = -1101.5969750637
 Total energy in the final basis set = -1101.5969750637
 
 Components of the MP2 correlation energy:
        aaaa  correlation energy =        -0.2320933883 au
        abab  correlation energy =        -1.3503354766 au
        bbbb  correlation energy =        -0.2320933883 au
        non-Brillouin singles    =        -0.0000000000 au

 Total  MP2   correlation energy =        -1.8145222531 au
        MP2         total energy =     -1103.4114973168 au

  Entering Z-vector solver.
   1         0           1      0.000266    0.000266
   2         0           1      0.000118    0.000118
   3         0           1      0.000049    0.000049
   4         0           1      0.000023    0.000023
   5         0           1      0.000007    0.000007
   6         0           1      0.000003    0.000003
   7         1           0      0.000000    0.000000    Roots Converged
 
 --------------------------------------------------------------
             Orbital Energies (a.u.) and Symmetries
 --------------------------------------------------------------
 
 Alpha MOs, Restricted
 -- Occupied --                  
-91.984 -91.984 -11.272 -11.271 -11.261 -11.261 -11.238 -11.238
  1 B     1 A     2 A     2 B     3 B     3 A     4 B     4 A                  
-11.236 -11.236  -8.985  -8.985  -6.666  -6.666  -6.666  -6.666
  5 A     5 B     6 B     6 A     7 A     7 B     8 A     8 B                  
 -6.665  -6.665  -1.194  -1.166  -1.033  -0.994  -0.988  -0.948
  9 B     9 A    10 A    10 B    11 A    12 A    11 B    12 B                  
 -0.806  -0.768  -0.758  -0.718  -0.704  -0.645  -0.571  -0.567
 13 A    14 A    13 B    14 B    15 A    15 B    16 A    17 A                  
 -0.566  -0.554  -0.537  -0.512  -0.512  -0.478  -0.473  -0.354
 16 B    17 B    18 A    18 B    19 A    20 A    19 B    21 A                  
 -0.344  -0.341  -0.306
 20 B    21 B    22 A                                                          
 -- Virtual --                   
  0.098   0.120   0.151   0.151   0.163   0.174   0.181   0.192
 22 B    23 A    24 A    23 B    25 A    24 B    26 A    27 A                  
  0.195   0.202   0.204   0.223   0.242   0.251   0.315   0.333
 25 B    28 A    26 B    27 B    29 A    28 B    30 A    29 B                  
  0.344   0.356   0.367   0.376   0.388   0.399   0.417   0.426
 30 B    31 A    32 A    31 B    33 A    32 B    33 B    34 A                  
  0.443   0.454   0.456   0.467   0.472   0.482   0.487   0.493
 35 A    36 A    34 B    35 B    37 A    36 B    37 B    38 A                  
  0.520   0.520   0.536   0.541   0.548   0.553   0.571   0.572
 38 B    39 A    40 A    39 B    40 B    41 A    42 A    41 B                  
  0.586   0.588   0.594   0.602   0.610   0.614   0.620   0.625
 42 B    43 A    44 A    43 B    45 A    44 B    46 A    45 B                  
  0.629   0.637   0.656   0.665   0.676   0.690   0.707   0.731
 47 A    46 B    47 B    48 A    48 B    49 A    50 A    49 B                  
  0.745   0.751   0.784   0.791   0.800   0.813   0.846   0.856
 51 A    50 B    51 B    52 A    52 B    53 A    53 B    54 A                  
  0.868   0.869   0.882   0.895   0.902   0.920   0.937   0.941
 54 B    55 A    55 B    56 A    56 B    57 A    57 B    58 B                  
  0.955   0.989   0.993   1.007   1.018   1.035   1.054   1.075
 58 A    59 A    59 B    60 A    61 A    60 B    61 B    62 A                  
  1.098   1.102   1.116   1.122   1.153   1.167   1.173   1.183
 62 B    63 A    63 B    64 A    64 B    65 B    65 A    66 A                  
  1.190   1.195   1.222   1.225   1.235   1.239   1.288   1.290
 67 A    66 B    68 A    67 B    69 A    68 B    69 B    70 A                  
  1.304   1.313   1.318   1.370   1.383   1.397   1.404   1.428
 70 B    71 A    71 B    72 A    72 B    73 B    73 A    74 B                  
  1.433   1.461   1.470   1.490   1.492   1.515   1.519   1.544
 74 A    75 B    75 A    76 A    76 B    77 B    77 A    78 B                  
  1.555   1.565   1.571   1.583   1.587   1.615   1.635   1.643
 78 A    79 B    79 A    80 A    80 B    81 A    81 B    82 A                  
  1.673   1.680   1.700   1.739   1.739   1.755   1.784   1.813
 83 A    82 B    83 B    84 A    84 B    85 B    85 A    86 B                  
  1.833   1.877   1.889   1.894   1.917   1.920   1.931   1.956
 86 A    87 B    87 A    88 B    89 B    88 A    89 A    90 A                  
  1.967   2.004   2.018   2.053   2.075   2.119   2.121   2.162
 90 B    91 A    91 B    92 B    92 A    93 B    93 A    94 B                  
  2.171   2.187   2.188   2.194   2.219   2.238   2.257   2.265
 94 A    95 A    95 B    96 A    96 B    97 A    97 B    98 A                  
  2.288   2.306   2.311   2.398   2.428   2.429   2.461   2.477
 98 B    99 B    99 A   100 A   100 B   101 A   102 A   101 B                  
  2.494   2.500   2.513   2.534   2.553   2.558   2.575   2.610
103 A   102 B   103 B   104 A   104 B   105 A   105 B   106 A                  
  2.611   2.634   2.661   2.687   2.721   2.739   2.749   2.760
106 B   107 B   107 A   108 A   108 B   109 B   109 A   110 A                  
  2.767   2.776   2.786   2.811   2.812   2.875   2.880   2.898
110 B   111 B   111 A   112 B   112 A   113 A   114 A   113 B                  
  2.912   2.925   2.938   2.967   3.002   3.014   3.016   3.027
114 B   115 A   115 B   116 A   116 B   117 A   118 A   117 B                  
  3.033   3.046   3.079   3.142   3.152   3.167   3.184   3.200
119 A   118 B   119 B   120 B   120 A   121 A   121 B   122 A                  
  3.203   3.226   3.239   3.244   3.245   3.278   3.282   3.287
122 B   123 B   123 A   124 B   124 A   125 B   125 A   126 A                  
  3.299   3.323   3.330   3.339   3.349   3.365   3.370   3.388
126 B   127 A   127 B   128 A   128 B   129 A   129 B   130 B                  
  3.401   3.410   3.425   3.438   3.451   3.463   3.474   3.475
130 A   131 A   131 B   132 A   133 A   134 A   135 A   132 B                  
  3.479   3.492   3.503   3.508   3.516   3.523   3.523   3.536
133 B   134 B   136 A   135 B   137 A   138 A   136 B   137 B                  
  3.563   3.585   3.596   3.598   3.603   3.624   3.656   3.663
138 B   139 A   139 B   140 A   140 B   141 A   141 B   142 A                  
  3.688   3.705   3.717   3.722   3.748   3.758   3.759   3.781
142 B   143 A   143 B   144 A   145 A   144 B   146 A   147 A                  
  3.787   3.830   3.874   3.886   3.902   3.911   3.932   3.941
145 B   146 B   147 B   148 A   148 B   149 A   149 B   150 A                  
  3.966   3.976   3.990   4.010   4.022   4.030   4.038   4.041
150 B   151 A   151 B   152 A   152 B   153 A   154 A   153 B                  
  4.088   4.107   4.125   4.146   4.168   4.181   4.183   4.186
154 B   155 B   155 A   156 A   156 B   157 A   158 A   157 B                  
  4.211   4.214   4.248   4.251   4.257   4.287   4.294   4.324
159 A   158 B   159 B   160 A   160 B   161 B   161 A   162 A                  
  4.338   4.379   4.402   4.426   4.468   4.480   4.504   4.515
162 B   163 A   163 B   164 A   164 B   165 A   165 B   166 A                  
  4.541   4.549   4.593   4.603   4.640   4.691   4.692   4.699
167 A   166 B   167 B   168 A   169 A   170 A   168 B   171 A                  
  4.701   4.725   4.753   4.770   4.788   4.812   4.850   4.861
169 B   170 B   171 B   172 B   172 A   173 A   173 B   174 A                  
  4.914   4.940   4.994   4.995   5.040   5.071   5.074   5.084
174 B   175 A   175 B   176 A   176 B   177 A   178 A   179 A                  
  5.094   5.107   5.195   5.225   5.247   5.294   5.312   5.379
177 B   178 B   179 B   180 A   180 B   181 A   181 B   182 A                  
  5.389   5.413   5.417   5.474   5.580   5.595   5.658   5.669
182 B   183 A   183 B   184 A   184 B   185 A   185 B   186 A                  
  5.824   5.850   5.969   6.015   6.107   6.132   6.185   6.188
186 B   187 A   187 B   188 A   188 B   189 A   190 A   189 B                  
  6.217   6.551   6.561   6.693   6.765   9.516  10.682  11.868
190 B   191 A   191 B   192 A   192 B   193 A   193 B   194 A                  
 12.180  13.497  13.576  14.553  14.699
194 B   195 A   195 B   196 A   196 B                                          
 
 Beta MOs, Restricted
 -- Occupied --                  
-91.984 -91.984 -11.272 -11.271 -11.261 -11.261 -11.238 -11.238
  1 B     1 A     2 A     2 B     3 B     3 A     4 B     4 A                  
-11.236 -11.236  -8.985  -8.985  -6.666  -6.666  -6.666  -6.666
  5 A     5 B     6 B     6 A     7 A     7 B     8 A     8 B                  
 -6.665  -6.665  -1.194  -1.166  -1.033  -0.994  -0.988  -0.948
  9 B     9 A    10 A    10 B    11 A    12 A    11 B    12 B                  
 -0.806  -0.768  -0.758  -0.718  -0.704  -0.645  -0.571  -0.567
 13 A    14 A    13 B    14 B    15 A    15 B    16 A    17 A                  
 -0.566  -0.554  -0.537  -0.512  -0.512  -0.478  -0.473  -0.354
 16 B    17 B    18 A    18 B    19 A    20 A    19 B    21 A                  
 -0.344  -0.341  -0.306
 20 B    21 B    22 A                                                          
 -- Virtual --                   
  0.098   0.120   0.151   0.151   0.163   0.174   0.181   0.192
 22 B    23 A    24 A    23 B    25 A    24 B    26 A    27 A                  
  0.195   0.202   0.204   0.223   0.242   0.251   0.315   0.333
 25 B    28 A    26 B    27 B    29 A    28 B    30 A    29 B                  
  0.344   0.356   0.367   0.376   0.388   0.399   0.417   0.426
 30 B    31 A    32 A    31 B    33 A    32 B    33 B    34 A                  
  0.443   0.454   0.456   0.467   0.472   0.482   0.487   0.493
 35 A    36 A    34 B    35 B    37 A    36 B    37 B    38 A                  
  0.520   0.520   0.536   0.541   0.548   0.553   0.571   0.572
 38 B    39 A    40 A    39 B    40 B    41 A    42 A    41 B                  
  0.586   0.588   0.594   0.602   0.610   0.614   0.620   0.625
 42 B    43 A    44 A    43 B    45 A    44 B    46 A    45 B                  
  0.629   0.637   0.656   0.665   0.676   0.690   0.707   0.731
 47 A    46 B    47 B    48 A    48 B    49 A    50 A    49 B                  
  0.745   0.751   0.784   0.791   0.800   0.813   0.846   0.856
 51 A    50 B    51 B    52 A    52 B    53 A    53 B    54 A                  
  0.868   0.869   0.882   0.895   0.902   0.920   0.937   0.941
 54 B    55 A    55 B    56 A    56 B    57 A    57 B    58 B                  
  0.955   0.989   0.993   1.007   1.018   1.035   1.054   1.075
 58 A    59 A    59 B    60 A    61 A    60 B    61 B    62 A                  
  1.098   1.102   1.116   1.122   1.153   1.167   1.173   1.183
 62 B    63 A    63 B    64 A    64 B    65 B    65 A    66 A                  
  1.190   1.195   1.222   1.225   1.235   1.239   1.288   1.290
 67 A    66 B    68 A    67 B    69 A    68 B    69 B    70 A                  
  1.304   1.313   1.318   1.370   1.383   1.397   1.404   1.428
 70 B    71 A    71 B    72 A    72 B    73 B    73 A    74 B                  
  1.433   1.461   1.470   1.490   1.492   1.515   1.519   1.544
 74 A    75 B    75 A    76 A    76 B    77 B    77 A    78 B                  
  1.555   1.565   1.571   1.583   1.587   1.615   1.635   1.643
 78 A    79 B    79 A    80 A    80 B    81 A    81 B    82 A                  
  1.673   1.680   1.700   1.739   1.739   1.755   1.784   1.813
 83 A    82 B    83 B    84 A    84 B    85 B    85 A    86 B                  
  1.833   1.877   1.889   1.894   1.917   1.920   1.931   1.956
 86 A    87 B    87 A    88 B    89 B    88 A    89 A    90 A                  
  1.967   2.004   2.018   2.053   2.075   2.119   2.121   2.162
 90 B    91 A    91 B    92 B    92 A    93 B    93 A    94 B                  
  2.171   2.187   2.188   2.194   2.219   2.238   2.257   2.265
 94 A    95 A    95 B    96 A    96 B    97 A    97 B    98 A                  
  2.288   2.306   2.311   2.398   2.428   2.429   2.461   2.477
 98 B    99 B    99 A   100 A   100 B   101 A   102 A   101 B                  
  2.494   2.500   2.513   2.534   2.553   2.558   2.575   2.610
103 A   102 B   103 B   104 A   104 B   105 A   105 B   106 A                  
  2.611   2.634   2.661   2.687   2.721   2.739   2.749   2.760
106 B   107 B   107 A   108 A   108 B   109 B   109 A   110 A                  
  2.767   2.776   2.786   2.811   2.812   2.875   2.880   2.898
110 B   111 B   111 A   112 B   112 A   113 A   114 A   113 B                  
  2.912   2.925   2.938   2.967   3.002   3.014   3.016   3.027
114 B   115 A   115 B   116 A   116 B   117 A   118 A   117 B                  
  3.033   3.046   3.079   3.142   3.152   3.167   3.184   3.200
119 A   118 B   119 B   120 B   120 A   121 A   121 B   122 A                  
  3.203   3.226   3.239   3.244   3.245   3.278   3.282   3.287
122 B   123 B   123 A   124 B   124 A   125 B   125 A   126 A                  
  3.299   3.323   3.330   3.339   3.349   3.365   3.370   3.388
126 B   127 A   127 B   128 A   128 B   129 A   129 B   130 B                  
  3.401   3.410   3.425   3.438   3.451   3.463   3.474   3.475
130 A   131 A   131 B   132 A   133 A   134 A   135 A   132 B                  
  3.479   3.492   3.503   3.508   3.516   3.523   3.523   3.536
133 B   134 B   136 A   135 B   137 A   138 A   136 B   137 B                  
  3.563   3.585   3.596   3.598   3.603   3.624   3.656   3.663
138 B   139 A   139 B   140 A   140 B   141 A   141 B   142 A                  
  3.688   3.705   3.717   3.722   3.748   3.758   3.759   3.781
142 B   143 A   143 B   144 A   145 A   144 B   146 A   147 A                  
  3.787   3.830   3.874   3.886   3.902   3.911   3.932   3.941
145 B   146 B   147 B   148 A   148 B   149 A   149 B   150 A                  
  3.966   3.976   3.990   4.010   4.022   4.030   4.038   4.041
150 B   151 A   151 B   152 A   152 B   153 A   154 A   153 B                  
  4.088   4.107   4.125   4.146   4.168   4.181   4.183   4.186
154 B   155 B   155 A   156 A   156 B   157 A   158 A   157 B                  
  4.211   4.214   4.248   4.251   4.257   4.287   4.294   4.324
159 A   158 B   159 B   160 A   160 B   161 B   161 A   162 A                  
  4.338   4.379   4.402   4.426   4.468   4.480   4.504   4.515
162 B   163 A   163 B   164 A   164 B   165 A   165 B   166 A                  
  4.541   4.549   4.593   4.603   4.640   4.691   4.692   4.699
167 A   166 B   167 B   168 A   169 A   170 A   168 B   171 A                  
  4.701   4.725   4.753   4.770   4.788   4.812   4.850   4.861
169 B   170 B   171 B   172 B   172 A   173 A   173 B   174 A                  
  4.914   4.940   4.994   4.995   5.040   5.071   5.074   5.084
174 B   175 A   175 B   176 A   176 B   177 A   178 A   179 A                  
  5.094   5.107   5.195   5.225   5.247   5.294   5.312   5.379
177 B   178 B   179 B   180 A   180 B   181 A   181 B   182 A                  
  5.389   5.413   5.417   5.474   5.580   5.595   5.658   5.669
182 B   183 A   183 B   184 A   184 B   185 A   185 B   186 A                  
  5.824   5.850   5.969   6.015   6.107   6.132   6.185   6.188
186 B   187 A   187 B   188 A   188 B   189 A   190 A   189 B                  
  6.217   6.551   6.561   6.693   6.765   9.516  10.682  11.868
190 B   191 A   191 B   192 A   192 B   193 A   193 B   194 A                  
 12.180  13.497  13.576  14.553  14.699
194 B   195 A   195 B   196 A   196 B                                          
 --------------------------------------------------------------
 
          Ground-State Mulliken Net Atomic Charges

     Atom                 Charge (a.u.)
  ----------------------------------------
      1 S                     0.127591
      2 C                    -0.238548
      3 C                    -0.190597
      4 C                    -0.192487
      5 C                    -0.041183
      6 H                     0.176398
      7 C                    -0.041183
      8 S                     0.127591
      9 C                    -0.192487
     10 C                    -0.238548
     11 C                    -0.190597
     12 H                     0.174467
     13 H                     0.184359
     14 H                     0.174467
     15 H                     0.184359
     16 H                     0.176398
  ----------------------------------------
  Sum of atomic charges =     0.000000

 -----------------------------------------------------------------
                    Cartesian Multipole Moments
 -----------------------------------------------------------------
    Charge (ESU x 10^10)
                 0.0000
    Dipole Moment (Debye)
         X      -0.0000      Y      -0.0000      Z      -0.6010
       Tot       0.6010
    Quadrupole Moments (Debye-Ang)
        XX     -61.2836     XY       0.8448     YY     -74.6469
        XZ      -0.0000     YZ       0.0000     ZZ     -70.7795
    Octopole Moments (Debye-Ang^2)
       XXX       0.0000    XXY      -0.0000    XYY      -0.0000
       YYY      -0.0000    XXZ       6.6186    XYZ     -12.3659
       YYZ      -1.6856    XZZ      -0.0000    YZZ      -0.0000
       ZZZ      -0.5747
    Hexadecapole Moments (Debye-Ang^3)
      XXXX   -1833.1071   XXXY      -0.8888   XXYY    -403.6046
      XYYY      -4.5333   YYYY    -261.3446   XXXZ      -0.0000
      XXYZ       0.0000   XYYZ       0.0000   YYYZ       0.0000
      XXZZ    -400.9356   XYZZ       8.7038   YYZZ    -103.0249
      XZZZ      -0.0000   YZZZ       0.0000   ZZZZ    -414.7242
 -----------------------------------------------------------------
 DrvMan is completing analytic gradient of the MP2 energy
 MP2 relaxed dipole moment
            1
    1  -0.0000000
    2  -0.0000000
    3  -0.2364535
	Magnitude:	 0.236 au	 0.601 Debye
 MP2 energy read as -1103.411497
 Full Analytical Gradient of MP2 Energy (in au.)
             1             2             3             4             5
    1    0.00009727    0.00073526   -0.00012353   -0.00003966   -0.00087706
    2   -0.00063036    0.00030897   -0.00026960    0.00192764   -0.00125476
    3   -0.00020458   -0.00018062    0.00026607    0.00165751   -0.00109657
             6             7             8             9            10
    1    0.00014156    0.00087706   -0.00009727    0.00003966   -0.00073526
    2   -0.00063984    0.00125476    0.00063036   -0.00192764   -0.00030897
    3   -0.00050598   -0.00109657   -0.00020458    0.00165751   -0.00018062
            11            12            13            14            15
    1    0.00012353    0.00000113   -0.00000770   -0.00000113    0.00000770
    2    0.00026960   -0.00000985   -0.00015348    0.00000985    0.00015348
    3    0.00026607    0.00001282    0.00005136    0.00001282    0.00005136
            16
    1   -0.00014156
    2    0.00063984
    3   -0.00050598
 Gradient time:  CPU 1.50 s  wall 0.10 s
 Geometry Optimization Parameters
   NAtoms,    NIC,     NZ,  NCons,   NDum,   NFix, NCnnct, MaxDiis
       16     111       0       1       0       0       0       0

 Cartesian Hessian Update
 Hessian Updated using BFGS Update


** CONSTRAINED OPTIMIZATION IN DELOCALIZED INTERNAL COORDINATES **
   Searching for a Minimum

   Optimization Cycle:   2

                       Coordinates (Angstroms)
     ATOM                X               Y               Z
      1  S         1.6657875245   -0.7162474564    0.9317332741
      2  C         3.1262440661   -0.1412492850    0.2660631350
      3  C         2.9001313256    0.6141348743   -0.8582984292
      4  C         1.5345302466    0.7292575091   -1.1658943900
      5  C         0.7212393682    0.0517608677   -0.2839540348
      6  H         1.1399444897    1.2742815839   -2.0044140516
      7  C        -0.7212393682   -0.0517608677   -0.2839540348
      8  S        -1.6657875245    0.7162474564    0.9317332741
      9  C        -1.5345302466   -0.7292575091   -1.1658943900
     10  C        -3.1262440661    0.1412492850    0.2660631350
     11  C        -2.9001313256   -0.6141348743   -0.8582984292
     12  H        -3.6900191547   -1.0689081619   -1.4270588524
     13  H         4.0643707963   -0.3848442583    0.7239159827
     14  H         3.6900191547    1.0689081619   -1.4270588524
     15  H        -4.0643707963    0.3848442583    0.7239159827
     16  H        -1.1399444897   -1.2742815839   -2.0044140516
   Point Group: c2    Number of degrees of freedom:    22


   Energy is  -1103.411497317

              Constraints and their Current Values
                                        Value     Constraint
   Dihedral:        4   5   7   9       70.000       70.000
 Hessian Updated using BFGS Update

 21 Hessian modes will be used to form the next step
  Hessian Eigenvalues:
     0.032353    0.045000    0.045000    0.045001    0.045007    0.051292
     0.158413    0.159990    0.160097    0.222184    0.234413    0.248825
     0.325779    0.339867    0.365519    0.366894    0.370127    0.417095
     0.442533    0.463857    0.497989

 Minimum Search - Taking Simple RFO Step
 Searching for Lamda that Minimizes Along All modes
 Value Taken    Lamda =  -0.00007125
 Step Taken.  Stepsize is  0.041777

                             Maximum     Tolerance    Cnvgd?
         Gradient           0.000986      0.000300      NO
         Displacement       0.027730      0.001200      NO
         Energy change     -0.000248      0.000001      NO


 New Cartesian Coordinates Obtained by Inverse Iteration

 Displacement from previous Coordinates is:  0.039355
 ----------------------------------------------------------------
             Standard Nuclear Orientation (Angstroms)
    I     Atom           X                Y                Z
 ----------------------------------------------------------------
    1      S       1.6654721756    -0.7129102742     0.9360992905
    2      C       3.1243604039    -0.1408152092     0.2663123763
    3      C       2.8991559400     0.6095955843    -0.8620112672
    4      C       1.5334996572     0.7239161005    -1.1684714715
    5      C       0.7222156468     0.0484601220    -0.2835536587
    6      H       1.1357469327     1.2746871527    -2.0016226312
    7      C      -0.7222156468    -0.0484601220    -0.2835536587
    8      S      -1.6654721756     0.7129102742     0.9360992905
    9      C      -1.5334996572    -0.7239161005    -1.1684714715
   10      C      -3.1243604039     0.1408152092     0.2663123763
   11      C      -2.8991559400    -0.6095955843    -0.8620112672
   12      H      -3.6888160638    -1.0648719790    -1.4307054324
   13      H       4.0629283457    -0.3788483848     0.7260454279
   14      H       3.6888160638     1.0648719790    -1.4307054324
   15      H      -4.0629283457     0.3788483848     0.7260454279
   16      H      -1.1357469327    -1.2746871527    -2.0016226312
 ----------------------------------------------------------------
 Molecular Point Group                 C2    NOp =  2
 Largest Abelian Subgroup              C2    NOp =  2
 Nuclear Repulsion Energy =   636.7139026562 hartrees
 There are       43 alpha and       43 beta electrons
 Applying Cartesian multipole field
    Component          Value
    ---------          -----
     (2,0,0)        1.00000E-11
     (0,2,0)        2.00000E-10
     (0,0,2)       -3.00000E-11
 Nucleus-field energy     =     0.0000000307 hartrees
 Requested basis set is cc-pVTZ
 There are 140 shells and 392 basis functions
 A cutoff of  1.0D-11 yielded   8040 shell pairs
 There are     62620 function pairs (     81672 Cartesian)
 Smallest overlap matrix eigenvalue = 9.67E-05
 Guess MOs from SCF MO coefficient file
 Reading MOs from coefficient file
 Reading MOs from coefficient file
 A restricted Hartree-Fock SCF calculation will be
 performed using Pulay DIIS extrapolation
 SCF converges when DIIS error is below 1.0E-08
 Geometry optimization detected.  Setting ReadMinima to 0
 Setting SaveMinima to 0
 using 16 threads for integral computing 
 ---------------------------------------
  Cycle       Energy         DIIS Error
 ---------------------------------------
    1   -1101.5972541601      1.09E-04
    2   -1101.5970348592      1.39E-05
    3   -1101.5970421443      6.60E-06
    4   -1101.5970433945      3.21E-06
    5   -1101.5970437937      1.14E-06
    6   -1101.5970438395      3.96E-07
    7   -1101.5970438487      1.58E-07
    8   -1101.5970438492      5.41E-08
    9   -1101.5970438496      2.05E-08
   10   -1101.5970438500      7.49E-09 Convergence criterion met
 ---------------------------------------
 SCF time:  CPU 636.91 s  wall 39.84 s
 SCF   energy in the final basis set = -1101.5970438500
 Total energy in the final basis set = -1101.5970438500
 
 Components of the MP2 correlation energy:
        aaaa  correlation energy =        -0.2320971640 au
        abab  correlation energy =        -1.3503042165 au
        bbbb  correlation energy =        -0.2320971640 au
        non-Brillouin singles    =        -0.0000000000 au

 Total  MP2   correlation energy =        -1.8144985446 au
        MP2         total energy =     -1103.4115423946 au

  Entering Z-vector solver.
   1         0           1      0.000266    0.000266
   2         0           1      0.000118    0.000118
   3         0           1      0.000049    0.000049
   4         0           1      0.000023    0.000023
   5         0           1      0.000007    0.000007
   6         0           1      0.000003    0.000003
   7         1           0      0.000000    0.000000    Roots Converged
 
 --------------------------------------------------------------
             Orbital Energies (a.u.) and Symmetries
 --------------------------------------------------------------
 
 Alpha MOs, Restricted
 -- Occupied --                  
-91.984 -91.984 -11.272 -11.271 -11.261 -11.261 -11.238 -11.238
  1 B     1 A     2 A     2 B     3 B     3 A     4 B     4 A                  
-11.236 -11.236  -8.985  -8.985  -6.666  -6.666  -6.666  -6.666
  5 A     5 B     6 B     6 A     7 A     7 B     8 A     8 B                  
 -6.665  -6.665  -1.195  -1.166  -1.033  -0.994  -0.988  -0.948
  9 B     9 A    10 A    10 B    11 A    12 A    11 B    12 B                  
 -0.806  -0.768  -0.758  -0.718  -0.704  -0.645  -0.571  -0.567
 13 A    14 A    13 B    14 B    15 A    15 B    16 A    17 A                  
 -0.566  -0.554  -0.537  -0.512  -0.512  -0.478  -0.474  -0.354
 16 B    17 B    18 A    18 B    19 A    20 A    19 B    21 A                  
 -0.345  -0.341  -0.305
 20 B    21 B    22 A                                                          
 -- Virtual --                   
  0.097   0.121   0.151   0.151   0.163   0.174   0.182   0.192
 22 B    23 A    24 A    23 B    25 A    24 B    26 A    27 A                  
  0.195   0.202   0.204   0.223   0.242   0.251   0.315   0.333
 25 B    28 A    26 B    27 B    29 A    28 B    30 A    29 B                  
  0.344   0.356   0.367   0.376   0.388   0.399   0.417   0.426
 30 B    31 A    32 A    31 B    33 A    32 B    33 B    34 A                  
  0.443   0.454   0.456   0.466   0.472   0.482   0.488   0.493
 35 A    36 A    34 B    35 B    37 A    36 B    37 B    38 A                  
  0.520   0.520   0.536   0.540   0.548   0.554   0.571   0.572
 38 B    39 A    40 A    39 B    40 B    41 A    42 A    41 B                  
  0.586   0.588   0.595   0.602   0.610   0.613   0.620   0.625
 42 B    43 A    44 A    43 B    45 A    44 B    46 A    45 B                  
  0.629   0.637   0.656   0.665   0.677   0.691   0.707   0.731
 47 A    46 B    47 B    48 A    48 B    49 A    50 A    49 B                  
  0.746   0.751   0.784   0.791   0.801   0.812   0.846   0.856
 51 A    50 B    51 B    52 A    52 B    53 A    53 B    54 A                  
  0.868   0.869   0.882   0.895   0.903   0.921   0.938   0.941
 54 B    55 A    55 B    56 A    56 B    57 A    57 B    58 B                  
  0.955   0.989   0.993   1.006   1.019   1.036   1.053   1.075
 58 A    59 A    59 B    60 A    61 A    60 B    61 B    62 A                  
  1.098   1.103   1.117   1.122   1.152   1.166   1.172   1.183
 62 B    63 A    63 B    64 A    64 B    65 B    65 A    66 A                  
  1.190   1.195   1.222   1.224   1.233   1.239   1.288   1.292
 67 A    66 B    68 A    67 B    69 A    68 B    69 B    70 A                  
  1.303   1.315   1.318   1.370   1.384   1.397   1.405   1.428
 70 B    71 A    71 B    72 A    72 B    73 B    73 A    74 B                  
  1.432   1.462   1.470   1.491   1.493   1.515   1.519   1.544
 74 A    75 B    75 A    76 A    76 B    77 B    77 A    78 B                  
  1.555   1.564   1.570   1.583   1.588   1.615   1.635   1.643
 78 A    79 B    79 A    80 A    80 B    81 A    81 B    82 A                  
  1.673   1.680   1.700   1.738   1.739   1.754   1.784   1.813
 83 A    82 B    83 B    84 A    84 B    85 B    85 A    86 B                  
  1.833   1.877   1.888   1.894   1.916   1.921   1.930   1.956
 86 A    87 B    87 A    88 B    89 B    88 A    89 A    90 A                  
  1.967   2.003   2.019   2.054   2.075   2.118   2.121   2.163
 90 B    91 A    91 B    92 B    92 A    93 B    93 A    94 B                  
  2.171   2.188   2.188   2.195   2.221   2.237   2.257   2.266
 94 A    95 B    95 A    96 A    96 B    97 A    97 B    98 A                  
  2.288   2.305   2.310   2.399   2.429   2.429   2.461   2.477
 98 B    99 B    99 A   100 A   100 B   101 A   102 A   101 B                  
  2.495   2.499   2.513   2.534   2.554   2.558   2.575   2.609
103 A   102 B   103 B   104 A   104 B   105 A   105 B   106 A                  
  2.611   2.633   2.660   2.688   2.721   2.740   2.749   2.761
106 B   107 B   107 A   108 A   108 B   109 B   109 A   110 A                  
  2.767   2.776   2.787   2.811   2.812   2.875   2.883   2.899
110 B   111 B   111 A   112 B   112 A   113 A   114 A   113 B                  
  2.911   2.925   2.939   2.967   3.002   3.014   3.016   3.027
114 B   115 A   115 B   116 A   116 B   117 A   118 A   117 B                  
  3.032   3.044   3.081   3.142   3.152   3.168   3.186   3.200
119 A   118 B   119 B   120 B   120 A   121 A   121 B   122 A                  
  3.202   3.226   3.239   3.244   3.245   3.278   3.282   3.288
122 B   123 B   123 A   124 B   124 A   125 B   125 A   126 A                  
  3.298   3.323   3.331   3.339   3.349   3.367   3.368   3.388
126 B   127 A   127 B   128 A   128 B   129 A   129 B   130 B                  
  3.401   3.409   3.426   3.438   3.452   3.463   3.473   3.475
130 A   131 A   131 B   132 A   133 A   134 A   135 A   132 B                  
  3.480   3.493   3.503   3.508   3.516   3.521   3.523   3.537
133 B   134 B   136 A   135 B   137 A   138 A   136 B   137 B                  
  3.564   3.586   3.596   3.599   3.604   3.625   3.655   3.663
138 B   139 A   139 B   140 A   140 B   141 A   141 B   142 A                  
  3.689   3.705   3.717   3.724   3.748   3.758   3.759   3.781
142 B   143 A   143 B   144 A   145 A   144 B   146 A   147 A                  
  3.788   3.832   3.872   3.886   3.903   3.911   3.931   3.942
145 B   146 B   147 B   148 A   148 B   149 A   149 B   150 A                  
  3.966   3.977   3.991   4.009   4.022   4.030   4.039   4.042
150 B   151 A   151 B   152 A   152 B   153 A   154 A   153 B                  
  4.087   4.108   4.125   4.147   4.169   4.181   4.183   4.186
154 B   155 B   155 A   156 A   156 B   157 A   158 A   157 B                  
  4.212   4.215   4.248   4.251   4.257   4.287   4.294   4.324
159 A   158 B   159 B   160 A   160 B   161 B   161 A   162 A                  
  4.338   4.381   4.402   4.426   4.468   4.479   4.506   4.513
162 B   163 A   163 B   164 A   164 B   165 A   165 B   166 A                  
  4.542   4.549   4.595   4.602   4.640   4.690   4.692   4.700
167 A   166 B   167 B   168 A   169 A   170 A   168 B   171 A                  
  4.701   4.724   4.751   4.772   4.789   4.813   4.850   4.861
169 B   170 B   171 B   172 B   172 A   173 A   173 B   174 A                  
  4.915   4.941   4.990   4.992   5.038   5.071   5.075   5.084
174 B   175 A   175 B   176 A   176 B   177 A   178 A   179 A                  
  5.094   5.108   5.194   5.226   5.249   5.293   5.311   5.379
177 B   178 B   179 B   180 A   180 B   181 A   181 B   182 A                  
  5.389   5.413   5.417   5.474   5.580   5.594   5.657   5.669
182 B   183 A   183 B   184 A   184 B   185 A   185 B   186 A                  
  5.825   5.849   5.971   6.017   6.107   6.131   6.187   6.190
186 B   187 A   187 B   188 A   188 B   189 A   190 A   189 B                  
  6.220   6.551   6.561   6.693   6.763   9.512  10.676  11.868
190 B   191 A   191 B   192 A   192 B   193 A   193 B   194 A                  
 12.171  13.498  13.570  14.554  14.701
194 B   195 A   195 B   196 A   196 B                                          
 
 Beta MOs, Restricted
 -- Occupied --                  
-91.984 -91.984 -11.272 -11.271 -11.261 -11.261 -11.238 -11.238
  1 B     1 A     2 A     2 B     3 B     3 A     4 B     4 A                  
-11.236 -11.236  -8.985  -8.985  -6.666  -6.666  -6.666  -6.666
  5 A     5 B     6 B     6 A     7 A     7 B     8 A     8 B                  
 -6.665  -6.665  -1.195  -1.166  -1.033  -0.994  -0.988  -0.948
  9 B     9 A    10 A    10 B    11 A    12 A    11 B    12 B                  
 -0.806  -0.768  -0.758  -0.718  -0.704  -0.645  -0.571  -0.567
 13 A    14 A    13 B    14 B    15 A    15 B    16 A    17 A                  
 -0.566  -0.554  -0.537  -0.512  -0.512  -0.478  -0.474  -0.354
 16 B    17 B    18 A    18 B    19 A    20 A    19 B    21 A                  
 -0.345  -0.341  -0.305
 20 B    21 B    22 A                                                          
 -- Virtual --                   
  0.097   0.121   0.151   0.151   0.163   0.174   0.182   0.192
 22 B    23 A    24 A    23 B    25 A    24 B    26 A    27 A                  
  0.195   0.202   0.204   0.223   0.242   0.251   0.315   0.333
 25 B    28 A    26 B    27 B    29 A    28 B    30 A    29 B                  
  0.344   0.356   0.367   0.376   0.388   0.399   0.417   0.426
 30 B    31 A    32 A    31 B    33 A    32 B    33 B    34 A                  
  0.443   0.454   0.456   0.466   0.472   0.482   0.488   0.493
 35 A    36 A    34 B    35 B    37 A    36 B    37 B    38 A                  
  0.520   0.520   0.536   0.540   0.548   0.554   0.571   0.572
 38 B    39 A    40 A    39 B    40 B    41 A    42 A    41 B                  
  0.586   0.588   0.595   0.602   0.610   0.613   0.620   0.625
 42 B    43 A    44 A    43 B    45 A    44 B    46 A    45 B                  
  0.629   0.637   0.656   0.665   0.677   0.691   0.707   0.731
 47 A    46 B    47 B    48 A    48 B    49 A    50 A    49 B                  
  0.746   0.751   0.784   0.791   0.801   0.812   0.846   0.856
 51 A    50 B    51 B    52 A    52 B    53 A    53 B    54 A                  
  0.868   0.869   0.882   0.895   0.903   0.921   0.938   0.941
 54 B    55 A    55 B    56 A    56 B    57 A    57 B    58 B                  
  0.955   0.989   0.993   1.006   1.019   1.036   1.053   1.075
 58 A    59 A    59 B    60 A    61 A    60 B    61 B    62 A                  
  1.098   1.103   1.117   1.122   1.152   1.166   1.172   1.183
 62 B    63 A    63 B    64 A    64 B    65 B    65 A    66 A                  
  1.190   1.195   1.222   1.224   1.233   1.239   1.288   1.292
 67 A    66 B    68 A    67 B    69 A    68 B    69 B    70 A                  
  1.303   1.315   1.318   1.370   1.384   1.397   1.405   1.428
 70 B    71 A    71 B    72 A    72 B    73 B    73 A    74 B                  
  1.432   1.462   1.470   1.491   1.493   1.515   1.519   1.544
 74 A    75 B    75 A    76 A    76 B    77 B    77 A    78 B                  
  1.555   1.564   1.570   1.583   1.588   1.615   1.635   1.643
 78 A    79 B    79 A    80 A    80 B    81 A    81 B    82 A                  
  1.673   1.680   1.700   1.738   1.739   1.754   1.784   1.813
 83 A    82 B    83 B    84 A    84 B    85 B    85 A    86 B                  
  1.833   1.877   1.888   1.894   1.916   1.921   1.930   1.956
 86 A    87 B    87 A    88 B    89 B    88 A    89 A    90 A                  
  1.967   2.003   2.019   2.054   2.075   2.118   2.121   2.163
 90 B    91 A    91 B    92 B    92 A    93 B    93 A    94 B                  
  2.171   2.188   2.188   2.195   2.221   2.237   2.257   2.266
 94 A    95 B    95 A    96 A    96 B    97 A    97 B    98 A                  
  2.288   2.305   2.310   2.399   2.429   2.429   2.461   2.477
 98 B    99 B    99 A   100 A   100 B   101 A   102 A   101 B                  
  2.495   2.499   2.513   2.534   2.554   2.558   2.575   2.609
103 A   102 B   103 B   104 A   104 B   105 A   105 B   106 A                  
  2.611   2.633   2.660   2.688   2.721   2.740   2.749   2.761
106 B   107 B   107 A   108 A   108 B   109 B   109 A   110 A                  
  2.767   2.776   2.787   2.811   2.812   2.875   2.883   2.899
110 B   111 B   111 A   112 B   112 A   113 A   114 A   113 B                  
  2.911   2.925   2.939   2.967   3.002   3.014   3.016   3.027
114 B   115 A   115 B   116 A   116 B   117 A   118 A   117 B                  
  3.032   3.044   3.081   3.142   3.152   3.168   3.186   3.200
119 A   118 B   119 B   120 B   120 A   121 A   121 B   122 A                  
  3.202   3.226   3.239   3.244   3.245   3.278   3.282   3.288
122 B   123 B   123 A   124 B   124 A   125 B   125 A   126 A                  
  3.298   3.323   3.331   3.339   3.349   3.367   3.368   3.388
126 B   127 A   127 B   128 A   128 B   129 A   129 B   130 B                  
  3.401   3.409   3.426   3.438   3.452   3.463   3.473   3.475
130 A   131 A   131 B   132 A   133 A   134 A   135 A   132 B                  
  3.480   3.493   3.503   3.508   3.516   3.521   3.523   3.537
133 B   134 B   136 A   135 B   137 A   138 A   136 B   137 B                  
  3.564   3.586   3.596   3.599   3.604   3.625   3.655   3.663
138 B   139 A   139 B   140 A   140 B   141 A   141 B   142 A                  
  3.689   3.705   3.717   3.724   3.748   3.758   3.759   3.781
142 B   143 A   143 B   144 A   145 A   144 B   146 A   147 A                  
  3.788   3.832   3.872   3.886   3.903   3.911   3.931   3.942
145 B   146 B   147 B   148 A   148 B   149 A   149 B   150 A                  
  3.966   3.977   3.991   4.009   4.022   4.030   4.039   4.042
150 B   151 A   151 B   152 A   152 B   153 A   154 A   153 B                  
  4.087   4.108   4.125   4.147   4.169   4.181   4.183   4.186
154 B   155 B   155 A   156 A   156 B   157 A   158 A   157 B                  
  4.212   4.215   4.248   4.251   4.257   4.287   4.294   4.324
159 A   158 B   159 B   160 A   160 B   161 B   161 A   162 A                  
  4.338   4.381   4.402   4.426   4.468   4.479   4.506   4.513
162 B   163 A   163 B   164 A   164 B   165 A   165 B   166 A                  
  4.542   4.549   4.595   4.602   4.640   4.690   4.692   4.700
167 A   166 B   167 B   168 A   169 A   170 A   168 B   171 A                  
  4.701   4.724   4.751   4.772   4.789   4.813   4.850   4.861
169 B   170 B   171 B   172 B   172 A   173 A   173 B   174 A                  
  4.915   4.941   4.990   4.992   5.038   5.071   5.075   5.084
174 B   175 A   175 B   176 A   176 B   177 A   178 A   179 A                  
  5.094   5.108   5.194   5.226   5.249   5.293   5.311   5.379
177 B   178 B   179 B   180 A   180 B   181 A   181 B   182 A                  
  5.389   5.413   5.417   5.474   5.580   5.594   5.657   5.669
182 B   183 A   183 B   184 A   184 B   185 A   185 B   186 A                  
  5.825   5.849   5.971   6.017   6.107   6.131   6.187   6.190
186 B   187 A   187 B   188 A   188 B   189 A   190 A   189 B                  
  6.220   6.551   6.561   6.693   6.763   9.512  10.676  11.868
190 B   191 A   191 B   192 A   192 B   193 A   193 B   194 A                  
 12.171  13.498  13.570  14.554  14.701
194 B   195 A   195 B   196 A   196 B                                          
 --------------------------------------------------------------
 
          Ground-State Mulliken Net Atomic Charges

     Atom                 Charge (a.u.)
  ----------------------------------------
      1 S                     0.127800
      2 C                    -0.238529
      3 C                    -0.190885
      4 C                    -0.192616
      5 C                    -0.041125
      6 H                     0.176591
      7 C                    -0.041125
      8 S                     0.127800
      9 C                    -0.192616
     10 C                    -0.238529
     11 C                    -0.190885
     12 H                     0.174517
     13 H                     0.184246
     14 H                     0.174517
     15 H                     0.184246
     16 H                     0.176591
  ----------------------------------------
  Sum of atomic charges =    -0.000000

 -----------------------------------------------------------------
                    Cartesian Multipole Moments
 -----------------------------------------------------------------
    Charge (ESU x 10^10)
                -0.0000
    Dipole Moment (Debye)
         X      -0.0000      Y      -0.0000      Z      -0.5792
       Tot       0.5792
    Quadrupole Moments (Debye-Ang)
        XX     -61.3417     XY       0.9029     YY     -74.6333
        XZ       0.0000     YZ      -0.0000     ZZ     -70.7713
    Octopole Moments (Debye-Ang^2)
       XXX       0.0000    XXY       0.0000    XYY      -0.0000
       YYY      -0.0000    XXZ       6.6420    XYZ     -12.3356
       YYZ      -1.7719    XZZ       0.0000    YZZ      -0.0000
       ZZZ      -0.5471
    Hexadecapole Moments (Debye-Ang^3)
      XXXX   -1832.8271   XXXY       0.3750   XXYY    -403.3291
      XYYY      -4.0609   YYYY    -259.4185   XXXZ      -0.0000
      XXYZ      -0.0000   XYYZ       0.0000   YYYZ      -0.0000
      XXZZ    -400.7398   XYZZ       8.8312   YYZZ    -103.0617
      XZZZ       0.0000   YZZZ       0.0000   ZZZZ    -416.9421
 -----------------------------------------------------------------
 DrvMan is completing analytic gradient of the MP2 energy
 MP2 relaxed dipole moment
            1
    1  -0.0000000
    2  -0.0000000
    3  -0.2278712
	Magnitude:	 0.228 au	 0.579 Debye
 MP2 energy read as -1103.411542
 Full Analytical Gradient of MP2 Energy (in au.)
             1             2             3             4             5
    1    0.00017481   -0.00014068   -0.00010385   -0.00006915    0.00098788
    2   -0.00044786   -0.00000898   -0.00028547    0.00164882   -0.00192357
    3    0.00000588    0.00007855   -0.00027212    0.00139378   -0.00108989
             6             7             8             9            10
    1    0.00003687   -0.00098788   -0.00017481    0.00006915    0.00014068
    2   -0.00025863    0.00192357    0.00044786   -0.00164882    0.00000898
    3   -0.00018025   -0.00108989    0.00000588    0.00139378    0.00007855
            11            12            13            14            15
    1    0.00010385    0.00002829   -0.00004012   -0.00002829    0.00004012
    2    0.00028547   -0.00013792    0.00002981    0.00013792   -0.00002981
    3   -0.00027212    0.00001557    0.00004849    0.00001557    0.00004849
            16
    1   -0.00003687
    2    0.00025863
    3   -0.00018025
 Gradient time:  CPU 1.52 s  wall 0.10 s
 Geometry Optimization Parameters
   NAtoms,    NIC,     NZ,  NCons,   NDum,   NFix, NCnnct, MaxDiis
       16     111       0       1       0       0       0       0

 Cartesian Hessian Update
 Hessian Updated using BFGS Update


** CONSTRAINED OPTIMIZATION IN DELOCALIZED INTERNAL COORDINATES **
   Searching for a Minimum

   Optimization Cycle:   3

                       Coordinates (Angstroms)
     ATOM                X               Y               Z
[...]
         Gradient           0.000073      0.000300     YES
         Displacement       0.002276      0.001200      NO
         Energy change     -0.000001      0.000001     YES

 Final energy is   -1103.41156218128     


 ******************************
 **  OPTIMIZATION CONVERGED  **
 ******************************

                       Coordinates (Angstroms)
     ATOM                X               Y               Z
      1  S         1.6614437147   -0.7016090343    0.9424111541
      2  C         3.1224460440   -0.1338902952    0.2728105303
      3  C         2.9002206747    0.6068260868   -0.8623620282
      4  C         1.5355354592    0.7153463768   -1.1755950794
      5  C         0.7218091781    0.0439382589   -0.2891069547
      6  H         1.1392505209    1.2660028321   -2.0095272590
      7  C        -0.7218091781   -0.0439382589   -0.2891069547
      8  S        -1.6614437147    0.7016090343    0.9424111541
      9  C        -1.5355354592   -0.7153463768   -1.1755950794
     10  C        -3.1224460440    0.1338902952    0.2728105303
     11  C        -2.9002206747   -0.6068260868   -0.8623620282
     12  H        -3.6918847818   -1.0559073436   -1.4331330137
     13  H         4.0598286831   -0.3687572982    0.7365952843
     14  H         3.6918847818    1.0559073436   -1.4331330137
     15  H        -4.0598286831    0.3687572982    0.7365952843
     16  H        -1.1392505209   -1.2660028321   -2.0095272590

Z-matrix Print:
$molecule
0 1
S 
C  1 1.704464
H  2 1.071889 1 120.440292
C  2 1.373558 1 111.445133 3 -179.907915 0
H  4 1.074330 2 123.043449 1 -179.871888 0
C  4 1.404371 2 112.533230 1 -0.410548 0
H  6 1.075038 4 124.806499 2 -178.725435 0
C  6 1.377970 4 113.122480 2 0.763803 0
C  8 1.446291 6 128.246021 4 -178.979174 0
C  9 1.377970 8 128.246021 6 -70.000001 0
H  10 1.075038 9 122.068993 8 0.525931 0
C  10 1.404371 9 113.122480 8 -178.979174 0
H  12 1.074330 10 124.420944 9 -179.783576 0
C  12 1.373558 10 112.533230 9 0.763803 0
H  14 1.071889 12 128.114500 10 179.690359 0
S  14 1.704464 12 111.445133 10 -0.410548 0
$end

 
 --------------------------------------------------------------
             Orbital Energies (a.u.) and Symmetries
 --------------------------------------------------------------
 
 Alpha MOs, Restricted
 -- Occupied --                  
-91.984 -91.984 -11.272 -11.271 -11.261 -11.261 -11.238 -11.238
  1 B     1 A     2 A     2 B     3 B     3 A     4 B     4 A                  
-11.236 -11.236  -8.985  -8.985  -6.666  -6.666  -6.666  -6.666
  5 A     5 B     6 B     6 A     7 A     7 B     8 A     8 B                  
 -6.665  -6.665  -1.195  -1.166  -1.033  -0.994  -0.988  -0.948
  9 B     9 A    10 A    10 B    11 A    12 A    11 B    12 B                  
 -0.806  -0.768  -0.758  -0.718  -0.704  -0.645  -0.571  -0.567
 13 A    14 A    13 B    14 B    15 A    15 B    16 A    17 A                  
 -0.566  -0.554  -0.537  -0.512  -0.512  -0.479  -0.473  -0.354
 16 B    17 B    18 A    18 B    19 A    20 A    19 B    21 A                  
 -0.345  -0.342  -0.304
 20 B    21 B    22 A                                                          
 -- Virtual --                   
  0.097   0.121   0.151   0.151   0.163   0.174   0.182   0.192
 22 B    23 A    24 A    23 B    25 A    24 B    26 A    27 A                  
  0.195   0.202   0.203   0.223   0.241   0.251   0.314   0.333
 25 B    28 A    26 B    27 B    29 A    28 B    30 A    29 B                  
  0.344   0.356   0.367   0.376   0.388   0.399   0.417   0.426
 30 B    31 A    32 A    31 B    33 A    32 B    33 B    34 A                  
  0.444   0.454   0.456   0.466   0.473   0.483   0.489   0.494
 35 A    36 A    34 B    35 B    37 A    36 B    37 B    38 A                  
  0.520   0.521   0.536   0.541   0.548   0.553   0.571   0.572
 39 A    38 B    40 A    39 B    40 B    41 A    42 A    41 B                  
  0.586   0.588   0.596   0.601   0.610   0.613   0.620   0.625
 42 B    43 A    44 A    43 B    45 A    44 B    46 A    45 B                  
  0.629   0.637   0.658   0.664   0.677   0.691   0.708   0.731
 47 A    46 B    47 B    48 A    48 B    49 A    50 A    49 B                  
  0.745   0.751   0.783   0.791   0.802   0.812   0.846   0.855
 51 A    50 B    51 B    52 A    52 B    53 A    53 B    54 A                  
  0.868   0.869   0.883   0.895   0.905   0.921   0.939   0.939
 55 A    54 B    55 B    56 A    56 B    57 A    57 B    58 B                  
  0.956   0.990   0.992   1.006   1.019   1.036   1.055   1.075
 58 A    59 A    59 B    60 A    61 A    60 B    61 B    62 A                  
  1.099   1.104   1.117   1.123   1.151   1.167   1.173   1.184
 62 B    63 A    63 B    64 A    64 B    65 B    65 A    66 A                  
  1.190   1.194   1.222   1.225   1.233   1.237   1.288   1.292
 67 A    66 B    68 A    67 B    69 A    68 B    69 B    70 A                  
  1.301   1.315   1.318   1.370   1.386   1.396   1.405   1.428
 70 B    71 A    71 B    72 A    72 B    73 B    73 A    74 B                  
  1.432   1.462   1.470   1.490   1.493   1.516   1.520   1.544
 74 A    75 B    75 A    76 A    76 B    77 B    77 A    78 B                  
  1.555   1.564   1.570   1.582   1.589   1.614   1.635   1.644
 78 A    79 B    79 A    80 A    80 B    81 A    81 B    82 A                  
  1.673   1.680   1.700   1.736   1.740   1.756   1.784   1.812
 83 A    82 B    83 B    84 A    84 B    85 B    85 A    86 B                  
  1.835   1.878   1.886   1.894   1.916   1.923   1.929   1.957
 86 A    87 B    87 A    88 B    89 B    88 A    89 A    90 A                  
  1.968   2.001   2.020   2.055   2.075   2.116   2.120   2.164
 90 B    91 A    91 B    92 B    92 A    93 B    93 A    94 B                  
  2.172   2.187   2.188   2.194   2.223   2.237   2.258   2.267
 94 A    95 B    95 A    96 A    96 B    97 A    97 B    98 A                  
  2.288   2.306   2.310   2.401   2.430   2.430   2.462   2.476
 98 B    99 B    99 A   100 A   101 A   100 B   102 A   101 B                  
  2.495   2.497   2.513   2.532   2.555   2.558   2.574   2.609
103 A   102 B   103 B   104 A   104 B   105 A   105 B   106 A                  
  2.610   2.632   2.660   2.689   2.721   2.745   2.748   2.761
106 B   107 B   107 A   108 A   108 B   109 B   109 A   110 A                  
  2.767   2.776   2.787   2.810   2.813   2.876   2.884   2.901
110 B   111 B   111 A   112 B   112 A   113 A   114 A   113 B                  
  2.909   2.924   2.940   2.968   3.000   3.014   3.017   3.028
114 B   115 A   115 B   116 A   116 B   117 A   118 A   117 B                  
  3.031   3.043   3.081   3.141   3.152   3.167   3.189   3.200
119 A   118 B   119 B   120 B   120 A   121 A   121 B   122 A                  
  3.201   3.227   3.240   3.244   3.244   3.276   3.281   3.290
122 B   123 B   123 A   124 B   124 A   125 B   125 A   126 A                  
  3.297   3.323   3.331   3.340   3.350   3.366   3.368   3.388
126 B   127 A   127 B   128 A   128 B   129 B   129 A   130 B                  
  3.400   3.407   3.426   3.438   3.450   3.463   3.474   3.475
130 A   131 A   131 B   132 A   133 A   134 A   135 A   132 B                  
  3.479   3.492   3.502   3.508   3.516   3.521   3.523   3.537
133 B   134 B   136 A   135 B   137 A   138 A   136 B   137 B                  
  3.564   3.587   3.596   3.601   3.605   3.626   3.654   3.661
138 B   139 A   139 B   140 A   140 B   141 A   141 B   142 A                  
  3.688   3.705   3.716   3.724   3.747   3.759   3.760   3.780
142 B   143 A   143 B   144 A   145 A   144 B   146 A   147 A                  
  3.789   3.832   3.871   3.887   3.902   3.910   3.930   3.943
145 B   146 B   147 B   148 A   148 B   149 A   149 B   150 A                  
  3.966   3.977   3.992   4.008   4.023   4.032   4.039   4.042
150 B   151 A   151 B   152 A   152 B   153 A   154 A   153 B                  
  4.088   4.109   4.126   4.146   4.171   4.180   4.183   4.186
154 B   155 B   155 A   156 A   156 B   157 A   158 A   157 B                  
  4.212   4.215   4.248   4.251   4.257   4.287   4.295   4.325
159 A   158 B   159 B   160 A   160 B   161 B   161 A   162 A                  
  4.338   4.381   4.403   4.426   4.468   4.479   4.507   4.513
162 B   163 A   163 B   164 A   164 B   165 A   165 B   166 A                  
  4.542   4.549   4.595   4.602   4.640   4.690   4.692   4.699
167 A   166 B   167 B   168 A   169 A   170 A   168 B   169 B                  
  4.700   4.725   4.751   4.773   4.788   4.813   4.849   4.860
171 A   170 B   171 B   172 B   172 A   173 A   173 B   174 A                  
  4.916   4.943   4.988   4.992   5.039   5.071   5.076   5.084
174 B   175 A   175 B   176 A   176 B   177 A   178 A   179 A                  
  5.094   5.108   5.193   5.225   5.249   5.292   5.312   5.379
177 B   178 B   179 B   180 A   180 B   181 A   181 B   182 A                  
  5.389   5.414   5.417   5.474   5.581   5.594   5.656   5.670
182 B   183 A   183 B   184 A   184 B   185 A   185 B   186 A                  
  5.825   5.849   5.972   6.017   6.107   6.131   6.186   6.191
186 B   187 A   187 B   188 A   188 B   189 A   190 A   189 B                  
  6.223   6.551   6.562   6.693   6.760   9.510  10.686  11.863
190 B   191 A   191 B   192 A   192 B   193 A   193 B   194 A                  
 12.181  13.496  13.570  14.552  14.699
194 B   195 A   195 B   196 A   196 B                                          
 
 Beta MOs, Restricted
 -- Occupied --                  
-91.984 -91.984 -11.272 -11.271 -11.261 -11.261 -11.238 -11.238
  1 B     1 A     2 A     2 B     3 B     3 A     4 B     4 A                  
-11.236 -11.236  -8.985  -8.985  -6.666  -6.666  -6.666  -6.666
  5 A     5 B     6 B     6 A     7 A     7 B     8 A     8 B                  
 -6.665  -6.665  -1.195  -1.166  -1.033  -0.994  -0.988  -0.948
  9 B     9 A    10 A    10 B    11 A    12 A    11 B    12 B                  
 -0.806  -0.768  -0.758  -0.718  -0.704  -0.645  -0.571  -0.567
 13 A    14 A    13 B    14 B    15 A    15 B    16 A    17 A                  
 -0.566  -0.554  -0.537  -0.512  -0.512  -0.479  -0.473  -0.354
 16 B    17 B    18 A    18 B    19 A    20 A    19 B    21 A                  
 -0.345  -0.342  -0.304
 20 B    21 B    22 A                                                          
 -- Virtual --                   
  0.097   0.121   0.151   0.151   0.163   0.174   0.182   0.192
 22 B    23 A    24 A    23 B    25 A    24 B    26 A    27 A                  
  0.195   0.202   0.203   0.223   0.241   0.251   0.314   0.333
 25 B    28 A    26 B    27 B    29 A    28 B    30 A    29 B                  
  0.344   0.356   0.367   0.376   0.388   0.399   0.417   0.426
 30 B    31 A    32 A    31 B    33 A    32 B    33 B    34 A                  
  0.444   0.454   0.456   0.466   0.473   0.483   0.489   0.494
 35 A    36 A    34 B    35 B    37 A    36 B    37 B    38 A                  
  0.520   0.521   0.536   0.541   0.548   0.553   0.571   0.572
 39 A    38 B    40 A    39 B    40 B    41 A    42 A    41 B                  
  0.586   0.588   0.596   0.601   0.610   0.613   0.620   0.625
 42 B    43 A    44 A    43 B    45 A    44 B    46 A    45 B                  
  0.629   0.637   0.658   0.664   0.677   0.691   0.708   0.731
 47 A    46 B    47 B    48 A    48 B    49 A    50 A    49 B                  
  0.745   0.751   0.783   0.791   0.802   0.812   0.846   0.855
 51 A    50 B    51 B    52 A    52 B    53 A    53 B    54 A                  
  0.868   0.869   0.883   0.895   0.905   0.921   0.939   0.939
 55 A    54 B    55 B    56 A    56 B    57 A    57 B    58 B                  
  0.956   0.990   0.992   1.006   1.019   1.036   1.055   1.075
 58 A    59 A    59 B    60 A    61 A    60 B    61 B    62 A                  
  1.099   1.104   1.117   1.123   1.151   1.167   1.173   1.184
 62 B    63 A    63 B    64 A    64 B    65 B    65 A    66 A                  
  1.190   1.194   1.222   1.225   1.233   1.237   1.288   1.292
 67 A    66 B    68 A    67 B    69 A    68 B    69 B    70 A                  
  1.301   1.315   1.318   1.370   1.386   1.396   1.405   1.428
 70 B    71 A    71 B    72 A    72 B    73 B    73 A    74 B                  
  1.432   1.462   1.470   1.490   1.493   1.516   1.520   1.544
 74 A    75 B    75 A    76 A    76 B    77 B    77 A    78 B                  
  1.555   1.564   1.570   1.582   1.589   1.614   1.635   1.644
 78 A    79 B    79 A    80 A    80 B    81 A    81 B    82 A                  
  1.673   1.680   1.700   1.736   1.740   1.756   1.784   1.812
 83 A    82 B    83 B    84 A    84 B    85 B    85 A    86 B                  
  1.835   1.878   1.886   1.894   1.916   1.923   1.929   1.957
 86 A    87 B    87 A    88 B    89 B    88 A    89 A    90 A                  
  1.968   2.001   2.020   2.055   2.075   2.116   2.120   2.164
 90 B    91 A    91 B    92 B    92 A    93 B    93 A    94 B                  
  2.172   2.187   2.188   2.194   2.223   2.237   2.258   2.267
 94 A    95 B    95 A    96 A    96 B    97 A    97 B    98 A                  
  2.288   2.306   2.310   2.401   2.430   2.430   2.462   2.476
 98 B    99 B    99 A   100 A   101 A   100 B   102 A   101 B                  
  2.495   2.497   2.513   2.532   2.555   2.558   2.574   2.609
103 A   102 B   103 B   104 A   104 B   105 A   105 B   106 A                  
  2.610   2.632   2.660   2.689   2.721   2.745   2.748   2.761
106 B   107 B   107 A   108 A   108 B   109 B   109 A   110 A                  
  2.767   2.776   2.787   2.810   2.813   2.876   2.884   2.901
110 B   111 B   111 A   112 B   112 A   113 A   114 A   113 B                  
  2.909   2.924   2.940   2.968   3.000   3.014   3.017   3.028
114 B   115 A   115 B   116 A   116 B   117 A   118 A   117 B                  
  3.031   3.043   3.081   3.141   3.152   3.167   3.189   3.200
119 A   118 B   119 B   120 B   120 A   121 A   121 B   122 A                  
  3.201   3.227   3.240   3.244   3.244   3.276   3.281   3.290
122 B   123 B   123 A   124 B   124 A   125 B   125 A   126 A                  
  3.297   3.323   3.331   3.340   3.350   3.366   3.368   3.388
126 B   127 A   127 B   128 A   128 B   129 B   129 A   130 B                  
  3.400   3.407   3.426   3.438   3.450   3.463   3.474   3.475
130 A   131 A   131 B   132 A   133 A   134 A   135 A   132 B                  
  3.479   3.492   3.502   3.508   3.516   3.521   3.523   3.537
133 B   134 B   136 A   135 B   137 A   138 A   136 B   137 B                  
  3.564   3.587   3.596   3.601   3.605   3.626   3.654   3.661
138 B   139 A   139 B   140 A   140 B   141 A   141 B   142 A                  
  3.688   3.705   3.716   3.724   3.747   3.759   3.760   3.780
142 B   143 A   143 B   144 A   145 A   144 B   146 A   147 A                  
  3.789   3.832   3.871   3.887   3.902   3.910   3.930   3.943
145 B   146 B   147 B   148 A   148 B   149 A   149 B   150 A                  
  3.966   3.977   3.992   4.008   4.023   4.032   4.039   4.042
150 B   151 A   151 B   152 A   152 B   153 A   154 A   153 B                  
  4.088   4.109   4.126   4.146   4.171   4.180   4.183   4.186
154 B   155 B   155 A   156 A   156 B   157 A   158 A   157 B                  
  4.212   4.215   4.248   4.251   4.257   4.287   4.295   4.325
159 A   158 B   159 B   160 A   160 B   161 B   161 A   162 A                  
  4.338   4.381   4.403   4.426   4.468   4.479   4.507   4.513
162 B   163 A   163 B   164 A   164 B   165 A   165 B   166 A                  
  4.542   4.549   4.595   4.602   4.640   4.690   4.692   4.699
167 A   166 B   167 B   168 A   169 A   170 A   168 B   169 B                  
  4.700   4.725   4.751   4.773   4.788   4.813   4.849   4.860
171 A   170 B   171 B   172 B   172 A   173 A   173 B   174 A                  
  4.916   4.943   4.988   4.992   5.039   5.071   5.076   5.084
174 B   175 A   175 B   176 A   176 B   177 A   178 A   179 A                  
  5.094   5.108   5.193   5.225   5.249   5.292   5.312   5.379
177 B   178 B   179 B   180 A   180 B   181 A   181 B   182 A                  
  5.389   5.414   5.417   5.474   5.581   5.594   5.656   5.670
182 B   183 A   183 B   184 A   184 B   185 A   185 B   186 A                  
  5.825   5.849   5.972   6.017   6.107   6.131   6.186   6.191
186 B   187 A   187 B   188 A   188 B   189 A   190 A   189 B                  
  6.223   6.551   6.562   6.693   6.760   9.510  10.686  11.863
190 B   191 A   191 B   192 A   192 B   193 A   193 B   194 A                  
 12.181  13.496  13.570  14.552  14.699
194 B   195 A   195 B   196 A   196 B                                          
 --------------------------------------------------------------
 
          Ground-State Mulliken Net Atomic Charges

     Atom                 Charge (a.u.)
  ----------------------------------------
      1 S                     0.127258
      2 C                    -0.238254
      3 C                    -0.191025
      4 C                    -0.193238
      5 C                    -0.040053
      6 H                     0.176500
      7 C                    -0.040053
      8 S                     0.127258
      9 C                    -0.193238
     10 C                    -0.238254
     11 C                    -0.191025
     12 H                     0.174541
     13 H                     0.184271
     14 H                     0.174541
     15 H                     0.184271
     16 H                     0.176500
  ----------------------------------------
  Sum of atomic charges =    -0.000000

 -----------------------------------------------------------------
                    Cartesian Multipole Moments
 -----------------------------------------------------------------
    Charge (ESU x 10^10)
                 0.0000
    Dipole Moment (Debye)
         X      -0.0000      Y       0.0000      Z      -0.5686
       Tot       0.5686
    Quadrupole Moments (Debye-Ang)
        XX     -61.3303     XY       0.9326     YY     -74.6963
        XZ       0.0000     YZ      -0.0000     ZZ     -70.7178
    Octopole Moments (Debye-Ang^2)
       XXX      -0.0000    XXY      -0.0000    XYY      -0.0000
       YYY      -0.0000    XXZ       6.6376    XYZ     -12.2553
       YYZ      -1.8474    XZZ      -0.0000    YZZ      -0.0000
       ZZZ      -0.8019
    Hexadecapole Moments (Debye-Ang^3)
      XXXX   -1830.8606   XXXY      -0.6486   XXYY    -403.0409
      XYYY      -5.8220   YYYY    -255.4193   XXXZ       0.0000
      XXYZ       0.0000   XYYZ       0.0000   YYYZ       0.0000
      XXZZ    -400.2469   XYZZ       8.2525   YYZZ    -103.1986
      XZZZ       0.0000   YZZZ       0.0000   ZZZZ    -420.4855
 -----------------------------------------------------------------
Archival summary:
1\1\nid01253\OPT\MP2\BasisUnspecified\286\MonMar616:51:492017MonMar616:51:492017\0\\#,OPT,MP2,BasisUnspecified,\\0,1\S\C,1,1.70446\H,2,1.07189,1,120.44\C,2,1.37356,1,111.445,3,-179.908,0\H,4,1.07433,2,123.043,1,-179.872,0\C,4,1.40437,2,112.533,1,-0.410548,0\H,6,1.07504,4,124.806,2,-178.725,0\C,6,1.37797,4,113.122,2,0.763803,0\C,8,1.44629,6,128.246,4,-178.979,0\C,9,1.37797,8,128.246,6,-70,0\H,10,1.07504,9,122.069,8,0.525931,0\C,10,1.40437,9,113.122,8,-178.979,0\H,12,1.07433,10,124.421,9,-179.784,0\C,12,1.37356,10,112.533,9,0.763803,0\H,14,1.07189,12,128.114,10,179.69,0\S,14,1.70446,12,111.445,10,-0.410548,0\\HF=-1101.59701\MP2=-1103.41156\\@

 Total job time:  10289.99s(wall), 53404.27s(cpu) 
 Mon Mar  6 16:51:49 2017

        *************************************************************
        *                                                           *
        *  Thank you very much for using Q-Chem.  Have a nice day.  *
        *                                                           *
        *************************************************************


0 sent ACK to 0 
now end server 0 ... 
