srun -N 1 --ntasks-per-node 22 --cpus-per-task 2 --cpu_bind=cores --nodelist nid00478 /global/project/projectdirs/jcesr/qchem/qc44/cnl_qc441/dist/exe/qcprog.cori.haswell.exe .pt_nn_neutral_0.0.in.37071.qcin.1 /dev/shm/eg_qchem/qchem37071/
Process 3 of 22 is on nid00478 - thread support 0
Process 4 of 22 is on nid00478 - thread support 0
Process 5 of 22 is on nid00478 - thread support 0
Process 21 of 22 is on nid00478 - thread support 0
Process 0 of 22 is on nid00478 - thread support 0
Process 1 of 22 is on nid00478 - thread support 0
Process 2 of 22 is on nid00478 - thread support 0
Process 6 of 22 is on nid00478 - thread support 0
initial socket setup ...start
initial socket setup ...done 
now start server 0 ... 
nid00478 10.128.1
Q-Chem Developer Version! Running on 10.128.1.*
                  Welcome to Q-Chem
     A Quantum Leap Into The Future Of Chemistry


 Q-Chem 4.4, Q-Chem, Inc., Pleasanton, CA (2016)

 Y. Shao,  Z. Gan,  E. Epifanovsky,  A. T. B. Gilbert,  M. Wormit,  
 J. Kussmann,  A. W. Lange,  A. Behn,  J. Deng,  X. Feng,  D. Ghosh,  
 M. Goldey,  P. R. Horn,  L. D. Jacobson,  I. Kaliman,  F. Rob,  
 R. Z. Khaliullin,  T. Kus,  A. Landau,  J. Liu,  E. I. Proynov,  Y. M. Rhee,  
 R. M. Richard,  M. A. Rohrdanz,  R. P. Steele,  E. J. Sundstrom,  
 H. L. Woodcock III,  P. M. Zimmerman,  D. Zuev,  B. Albrecht,  E. Alguire,  
 B. Austin,  S. A. Baeppler,  G. J. O. Beran,  Y. A. Bernard,  
 E. J. Berquist,  K. Brandhorst,  K. B. Bravaya,  S. T. Brown,  D. Casanova,  
 C.-M. Chang,  Y. Chen,  S. H. Chien,  K. D. Closser,  M. P. Coons,  
 D. L. Crittenden,  S. Dasgupta,  M. Diedenhofen,  R. A. DiStasio Jr.,  
 H. Do,  A. D. Dutoi,  R. G. Edgar,  P.-T. Fang,  S. Fatehi,  Q. Feng,  
 L. Fusti-Molnar,  A. Ghysels,  A. Golubeva-Zadorozhnaya,  J. Gomes,  
 A. Gunina,  M. W. D. Hanson-Heine,  P. H. P. Harbach,  A. W. Hauser,  
 J. E. Herr,  E. G. Hohenstein,  Z. C. Holden,  K. Hui,  T.-C. Jagau,  H. Ji,  
 B. Kaduk,  K. Khistyaev,  Jaehoon Kim,  Jihan Kim,  R. A. King,  
 P. Klunzinger,  K. Koh,  D. Kosenkov,  T. Kowalczyk,  C. M. Krauter,  
 A. Kunitsa,  K. U. Lao,  A. Laurent,  K. V. Lawler,  J. Lee,  D. Lefrancois,  
 S. Lehtola,  S. V. Levchenko,  C. Y. Lin,  Y.-S. Lin,  F. Liu,  E. Livshits,  
 R. C. Lochan,  A. Luenser,  P. Manohar,  S. F. Manzer,  S.-P. Mao,  Y. Mao,  
 N. Mardirossian,  A. V. Marenich,  L. A. Martinez-Martinez,  S. A. Maurer,  
 N. J. Mayhall,  J.-M. Mewes,  A. F. Morrison,  K. Nanda,  T. S. Nguyen-Beck,  
 C. M. Oana,  R. Olivares-Amaya,  D. P. O'Neill,  J. A. Parkhill,  
 T. M. Perrine,  R. Peverati,  P. A. Pieniazek,  F. Plasser,  A. Prociuk,  
 D. R. Rehn,  E. Rosta,  N. J. Russ,  N. Sergueev,  S. M. Sharada,  
 S. Sharma,  D. W. Small,  A. Sodt,  T. Stauch,  T. Stein,  D. Stuck,  
 Y.-C. Su,  A. J. W. Thom,  T. Tsuchimochi,  L. Vogt,  O. Vydrov,  T. Wang,  
 M. A. Watson,  J. Wenzel,  A. White,  C. F. Williams,  V. Vanovschi,  
 K. Yao,  S. Yeganeh,  S. R. Yost,  Z.-Q. You,  I. Y. Zhang,  X. Zhang,  
 Y. Zhao,  B. R. Brooks,  G. K. L. Chan,  D. M. Chipman,  C. J. Cramer,  
 W. A. Goddard III,  M. S. Gordon,  W. J. Hehre,  A. Klamt,  
 H. F. Schaefer III,  M. W. Schmidt,  C. D. Sherrill,  D. G. Truhlar,  
 A. Warshel,  X. Xu,  A. Aspuru-Guzik,  R. Baer,  A. T. Bell,  N. A. Besley,  
 J.-D. Chai,  A. Dreuw,  B. D. Dunietz,  T. R. Furlani,  S. R. Gwaltney,  
 C.-P. Hsu,  Y. Jung,  J. Kong,  D. S. Lambrecht,  W. Liang,  C. Ochsenfeld,  
 V. A. Rassolov,  L. V. Slipchenko,  J. E. Subotnik,  T. Van Voorhis,  
 J. M. Herbert,  A. I. Krylov,  P. M. W. Gill,  M. Head-Gordon

 Contributors to earlier versions of Q-Chem not listed above: 
 R. D. Adamson,  J. Baker,  E. F. C. Byrd,  A. K. Chakraborty,  C.-L. Cheng,  
 H. Dachsel,  R. J. Doerksen,  G. Hawkins,  A. Heyden,  S. Hirata,  
 G. Kedziora,  F. J. Keil,  C. Kelley,  P. P. Korambath,  W. Kurlancheek,  
 A. M. Lee,  M. S. Lee,  D. Liotard,  I. Lotan,  P. E. Maslen,  N. Nair,  
 D. Neuhauser,  R. Olson,  B. Peters,  J. Ritchie,  N. E. Schultz,  
 N. Shenvi,  A. C. Simmonett,  K. S. Thanthiriwatte,  Q. Wu,  W. Zhang

 Please cite Q-Chem as follows:
 Y. Shao et al., Mol. Phys. 113, 184-215 (2015)
 DOI: 10.1080/00268976.2014.952696

 Q-Chem 4.4.2 for Intel X86 EM64T Linux

 Parts of Q-Chem use Armadillo 5.200.1 (Boston Tea Smuggler).
 http://arma.sourceforge.net/

 Q-Chem begins on Tue May 30 10:52:41 2017  

Host: nid00478
0

     Scratch files written to /dev/shm/eg_qchem/qchem37071.0//
 Parallel job on  22  processors

Checking the input file for inconsistencies... 	...done.

--------------------------------------------------------------
User input:
--------------------------------------------------------------
$molecule
 0  1
 H           6.23254100       -0.22338900        0.17638100
 H           5.29752400        2.22850500       -0.10953100
 C           5.19733500        0.07486000        0.08356300
 C           4.68347900        1.33634400       -0.06443600
 S           3.94559900       -1.12581000        0.11905200
 C           3.26267300        1.34659400       -0.16511200
 H           2.67740100        2.24810800       -0.30841700
 C           2.69562400        0.08941900       -0.09094600
 H           1.33241900       -2.39005500       -0.68762600
 C           1.29739300       -0.28590200       -0.16150800
 C           0.73808300       -1.51455700       -0.45078400
 S           0.03601800        0.89451200        0.14982500
 C          -0.68041100       -1.51067300       -0.44936800
 H          -1.28012400       -2.38277100       -0.68510300
 C          -1.23220500       -0.27900200       -0.15852500
 C          -2.62830100        0.10383400       -0.08465000
 H          -3.70495721       -1.72716792       -0.52706513
 C          -3.75365247       -0.67075167       -0.28742905
 S          -3.09138187        1.75195953        0.30568203
 C          -4.97396152        0.04517231       -0.12216429
 C          -4.77862120        1.36069136        0.20729769
 H          -5.95513032       -0.40172639       -0.23455225
 H          -5.52061483        2.12430492        0.39586344
$end


$rem
         jobtype = opt
        exchange = b3lyp
           basis = 6-31++g**
  max_scf_cycles = 150
      mem_static = 281
       mem_total = 2818
      sym_ignore = true
        symmetry = false
          thresh = 12
$end


$opt
CONSTRAINT
tors 13 15 16 18 0.0
ENDCONSTRAINT
$end

--------------------------------------------------------------
 ----------------------------------------------------------------
             Standard Nuclear Orientation (Angstroms)
    I     Atom           X                Y                Z
 ----------------------------------------------------------------
    1      H       6.2325410000    -0.2233890000     0.1763810000
    2      H       5.2975240000     2.2285050000    -0.1095310000
    3      C       5.1973350000     0.0748600000     0.0835630000
    4      C       4.6834790000     1.3363440000    -0.0644360000
    5      S       3.9455990000    -1.1258100000     0.1190520000
    6      C       3.2626730000     1.3465940000    -0.1651120000
    7      H       2.6774010000     2.2481080000    -0.3084170000
    8      C       2.6956240000     0.0894190000    -0.0909460000
    9      H       1.3324190000    -2.3900550000    -0.6876260000
   10      C       1.2973930000    -0.2859020000    -0.1615080000
   11      C       0.7380830000    -1.5145570000    -0.4507840000
   12      S       0.0360180000     0.8945120000     0.1498250000
   13      C      -0.6804110000    -1.5106730000    -0.4493680000
   14      H      -1.2801240000    -2.3827710000    -0.6851030000
   15      C      -1.2322050000    -0.2790020000    -0.1585250000
   16      C      -2.6283010000     0.1038340000    -0.0846500000
   17      H      -3.7049572100    -1.7271679200    -0.5270651300
   18      C      -3.7536524700    -0.6707516700    -0.2874290500
   19      S      -3.0913818700     1.7519595300     0.3056820300
   20      C      -4.9739615200     0.0451723100    -0.1221642900
   21      C      -4.7786212000     1.3606913600     0.2072976900
   22      H      -5.9551303200    -0.4017263900    -0.2345522500
   23      H      -5.5206148300     2.1243049200     0.3958634400
 ----------------------------------------------------------------
 Nuclear Repulsion Energy =  1179.8312669987 hartrees
 There are       64 alpha and       64 beta electrons
 Requested basis set is 6-31++G(d,p)
 There are 110 shells and 345 basis functions

 Total QAlloc Memory Limit   2818 MB
 Mega-Array Size       275 MB
 MEM_STATIC part       281 MB
 A cutoff of  1.0D-12 yielded   4669 shell pairs
 There are     47553 function pairs

 Q-Chem warning in module /project/projectdirs/jcesr/qchem/qc44/cnl_qc441/compile/cori/qc_src/libqints/qchem/aobasis.C, line 68:

 Using reconstructed effective core potential

 
 -------------------------------------------------------
 OpenMP Integral Computing Module                       
 Release: version 1.0, May 2013, Q-Chem Inc. Pittsburgh 
 -------------------------------------------------------
 Integral Job Info:
 Integral job number is                      11
 Integral operator is                         1
 short-range coefficients                     0
 long-range coefficients              100000000
 Omega coefficients                           0
 if combine SR and LR in K                    0
 Integral screening is                        0
 Integral computing path is                   2
 max size of driver memory is            800000
 size of driver memory is                593474
 size of scratch memory is             15166112
 max col of scratch BK array               1296
 max len of scratch array in speh3          155
 max len of scratch index in speh4           18
 max int batch size is                      520
 min int batch size is                       52
 fixed nKL is                                52
 max L of basis functions is                  2
 order of int derivative is                   0
 number of shells is                        110
 number of basis is                         345
 number of cartesian basis is               345
 number of contracted shell pairs          4669
 number of primitive shell pairs          14612
 maxK2 (contraction) of shell pair           36
 max number of K2 of shell pair               1
 max number of CS2 of shell pair            510
 max number of PS2 of shell pair           3012
 mem total for path MDJ                  101080
 -------------------------------------------------------
 Smallest overlap matrix eigenvalue = 5.98E-08
 Linear dependence detected in AO basis
 Number of orthogonalized atomic orbitals = 342
 Maximum deviation from orthogonality = 1.017E-10

 Scale SEOQF with 1.000000e-02/1.000000e-01/1.000000e-01

 Standard Electronic Orientation quadrupole field applied
 Nucleus-field energy     =     0.0000000167 hartrees
 Guess from superposition of atomic densities
 Warning:  Energy on first SCF cycle will be non-variational
 A restricted hybrid HF-DFT SCF calculation will be
 performed using Pulay DIIS extrapolation
 Exchange:     0.2000 Hartree-Fock + 0.0800 Slater + 0.7200 B88
 Correlation:  0.1900 VWN1RPA + 0.8100 LYP
 Using SG-1 standard quadrature grid
 SCF converges when DIIS error is below 1.0E-08
 ---------------------------------------
  Cycle       Energy         DIIS Error
 ---------------------------------------
    1   -1660.3121292879      3.69E-02
    2   -1656.4312902811      3.73E-03
    3   -1656.1103022270      5.65E-03
    4   -1656.6489699559      8.63E-04
    5   -1656.6586352690      4.80E-04
    6   -1656.6617220848      1.84E-04
    7   -1656.6622211544      7.27E-05
    8   -1656.6623020111      1.43E-05
    9   -1656.6623050910      4.27E-06
   10   -1656.6623053358      1.99E-06
   11   -1656.6623054021      4.74E-07
   12   -1656.6623054051      2.43E-07
   13   -1656.6623054055      7.07E-08
   14   -1656.6623054038      2.51E-08
   15   -1656.6623054053      1.04E-08
   16   -1656.6623054055      2.58E-09 Convergence criterion met
 ---------------------------------------
 SCF time:  CPU 17.86 s  wall 16.38 s
 SCF   energy in the final basis set = -1656.6623054055
 Total energy in the final basis set = -1656.6623054055
 
 --------------------------------------------------------------
 
                    Orbital Energies (a.u.)
 --------------------------------------------------------------
 
 Alpha MOs
 -- Occupied --
-88.921 -88.921 -88.921 -10.242 -10.241 -10.241 -10.240 -10.226
-10.226 -10.207 -10.206 -10.206 -10.206 -10.205 -10.204  -7.981
 -7.980  -7.980  -5.945  -5.945  -5.944  -5.941  -5.941  -5.941
 -5.938  -5.937  -5.937  -0.908  -0.892  -0.876  -0.788  -0.757
 -0.745  -0.745  -0.733  -0.697  -0.618  -0.597  -0.569  -0.564
 -0.538  -0.533  -0.530  -0.498  -0.463  -0.424  -0.421  -0.419
 -0.416  -0.409  -0.402  -0.397  -0.387  -0.376  -0.370  -0.364
 -0.352  -0.341  -0.299  -0.269  -0.263  -0.258  -0.249  -0.199
 -- Virtual --
 -0.073  -0.030  -0.016  -0.006  -0.004   0.003   0.008   0.011
  0.017   0.019   0.026   0.028   0.031   0.034   0.043   0.045
  0.048   0.053   0.055   0.057   0.067   0.070   0.076   0.081
  0.083   0.086   0.090   0.093   0.099   0.106   0.107   0.109
  0.113   0.114   0.121   0.125   0.126   0.129   0.131   0.134
  0.137   0.138   0.142   0.146   0.150   0.152   0.155   0.162
  0.165   0.170   0.171   0.177   0.182   0.184   0.188   0.192
  0.195   0.201   0.202   0.205   0.208   0.214   0.216   0.229
  0.233   0.239   0.241   0.245   0.251   0.258   0.263   0.265
  0.270   0.274   0.286   0.291   0.300   0.305   0.308   0.317
  0.321   0.326   0.332   0.345   0.349   0.359   0.369   0.371
  0.387   0.389   0.393   0.422   0.445   0.452   0.467   0.488
  0.504   0.520   0.530   0.540   0.565   0.572   0.578   0.592
  0.595   0.609   0.618   0.637   0.649   0.654   0.656   0.661
  0.666   0.673   0.676   0.688   0.696   0.711   0.715   0.717
  0.721   0.724   0.736   0.749   0.765   0.775   0.780   0.790
  0.814   0.819   0.824   0.832   0.839   0.850   0.877   0.899
  0.929   0.935   0.940   0.943   0.958   0.960   0.965   0.970
  0.974   0.982   0.993   0.997   1.006   1.011   1.026   1.042
  1.046   1.054   1.072   1.086   1.095   1.105   1.116   1.126
  1.142   1.159   1.165   1.186   1.191   1.207   1.229   1.245
  1.257   1.280   1.282   1.320   1.336   1.338   1.348   1.354
  1.361   1.364   1.374   1.454   1.467   1.491   1.508   1.518
  1.552   1.565   1.587   1.604   1.648   1.687   1.700   1.726
  1.789   1.825   1.855   1.871   1.889   1.900   1.913   1.918
  1.933   1.955   1.983   1.986   1.998   2.024   2.055   2.073
  2.081   2.092   2.120   2.145   2.163   2.177   2.189   2.213
  2.228   2.238   2.265   2.275   2.295   2.328   2.362   2.364
  2.410   2.426   2.452   2.458   2.466   2.482   2.488   2.501
  2.525   2.531   2.546   2.552   2.574   2.583   2.609   2.635
  2.666   2.690   2.706   2.721   2.729   2.785   2.853   2.867
  2.903   2.937   2.979   2.998   3.125   3.181   3.231   3.272
  3.273   3.323   3.412   3.419   3.665   3.733   3.744   3.942
  3.979   4.024   4.245   4.275   4.299   4.319   4.341   4.347
  4.385   4.477   4.563   4.636   4.700   4.746
 --------------------------------------------------------------
 
          Ground-State Mulliken Net Atomic Charges

     Atom                 Charge (a.u.)
  ----------------------------------------
      1 H                     0.195429
      2 H                     0.120128
      3 C                     0.008478
      4 C                    -0.347515
      5 S                    -0.059496
      6 C                     0.450780
      7 H                     0.132236
      8 C                    -0.296370
      9 H                     0.121513
     10 C                    -0.144647
     11 C                    -0.110658
     12 S                    -0.441392
     13 C                     0.219087
     14 H                     0.106900
     15 C                    -0.024359
     16 C                    -0.168466
     17 H                     0.103617
     18 C                     0.327902
     19 S                    -0.092515
     20 C                    -0.435823
     21 C                     0.010805
     22 H                     0.120000
     23 H                     0.204365
  ----------------------------------------
  Sum of atomic charges =     0.000000

 -----------------------------------------------------------------
                    Cartesian Multipole Moments
 -----------------------------------------------------------------
    Charge (ESU x 10^10)
                 0.0000
    Dipole Moment (Debye)
         X      -0.2680      Y      -0.4040      Z      -0.3312
       Tot       0.5871
    Quadrupole Moments (Debye-Ang)
        XX     -89.2744     XY       2.3519     YY    -100.9528
        XZ       0.3330     YZ       2.1822     ZZ    -116.1804
    Octopole Moments (Debye-Ang^2)
       XXX     -26.3971    XXY      -3.7733    XYY     -14.2623
       YYY     -57.8565    XXZ       7.6768    XYZ      -8.7435
       YYZ      -0.3766    XZZ     -11.4447    YZZ     -22.0699
       ZZZ      11.4746
    Hexadecapole Moments (Debye-Ang^3)
      XXXX   -6142.6204   XXXY     205.4221   XXYY   -1229.8573
      XYYY     258.2133   YYYY    -932.9274   XXXZ      34.8293
      XXYZ       7.9799   XYYZ      -6.5509   YYYZ     -38.5850
      XXZZ   -1345.3721   XYZZ      82.1417   YYZZ    -205.9035
      XZZZ      13.0174   YZZZ     -58.3798   ZZZZ    -192.2344
 -----------------------------------------------------------------
 Calculating analytic gradient of the SCF energy
 Gradient of SCF Energy
            1           2           3           4           5           6
    1  -0.0000083   0.0000108  -0.0000644   0.0000323  -0.0000641   0.0000244
    2   0.0000001  -0.0000020   0.0000070   0.0000241   0.0000595  -0.0000368
    3   0.0000412  -0.0000080  -0.0000049  -0.0000116  -0.0000232  -0.0000010
            7           8           9          10          11          12
    1   0.0000145   0.0002336   0.0000218  -0.0006601   0.0008893  -0.0022975
    2  -0.0000135   0.0001093   0.0000282  -0.0003239  -0.0001550   0.0014938
    3  -0.0000125  -0.0002616  -0.0000462  -0.0008023   0.0006940   0.0009507
           13          14          15          16          17          18
    1   0.0005766  -0.0003434  -0.0003658  -0.0003059   0.0001859   0.0001029
    2   0.0007087   0.0000215  -0.0015251  -0.0015214  -0.0004211   0.0015111
    3   0.0012993  -0.0006015  -0.0010201   0.0002492   0.0005224  -0.0008778
           19          20          21          22          23
    1   0.0025535  -0.0009550   0.0005096  -0.0000115  -0.0000792
    2   0.0003963   0.0006747  -0.0010046   0.0000435  -0.0000745
    3  -0.0004073  -0.0006532   0.0006406   0.0000876   0.0002463
 Max gradient component =       2.554E-03
 RMS gradient           =       7.017E-04
 Gradient time:  CPU 4.74 s  wall 4.65 s
 Geometry Optimization Parameters
   NAtoms,    NIC,     NZ,  NCons,   NDum,   NFix, NCnnct, MaxDiis
       23     166       0       1       0       0       0       0


** CONSTRAINED OPTIMIZATION IN DELOCALIZED INTERNAL COORDINATES **
   Searching for a Minimum

   Optimization Cycle:   1

                       Coordinates (Angstroms)
     ATOM                X               Y               Z
      1  H         6.2325410000   -0.2233890000    0.1763810000
      2  H         5.2975240000    2.2285050000   -0.1095310000
      3  C         5.1973350000    0.0748600000    0.0835630000
      4  C         4.6834790000    1.3363440000   -0.0644360000
      5  S         3.9455990000   -1.1258100000    0.1190520000
      6  C         3.2626730000    1.3465940000   -0.1651120000
      7  H         2.6774010000    2.2481080000   -0.3084170000
      8  C         2.6956240000    0.0894190000   -0.0909460000
      9  H         1.3324190000   -2.3900550000   -0.6876260000
     10  C         1.2973930000   -0.2859020000   -0.1615080000
     11  C         0.7380830000   -1.5145570000   -0.4507840000
     12  S         0.0360180000    0.8945120000    0.1498250000
     13  C        -0.6804110000   -1.5106730000   -0.4493680000
     14  H        -1.2801240000   -2.3827710000   -0.6851030000
     15  C        -1.2322050000   -0.2790020000   -0.1585250000
     16  C        -2.6283010000    0.1038340000   -0.0846500000
     17  H        -3.7049572100   -1.7271679200   -0.5270651300
     18  C        -3.7536524700   -0.6707516700   -0.2874290500
     19  S        -3.0913818700    1.7519595300    0.3056820300
     20  C        -4.9739615200    0.0451723100   -0.1221642900
     21  C        -4.7786212000    1.3606913600    0.2072976900
     22  H        -5.9551303200   -0.4017263900   -0.2345522500
     23  H        -5.5206148300    2.1243049200    0.3958634400
   Point Group: c1    Number of degrees of freedom:    63


   Energy is  -1656.662305406

              Constraints and their Current Values
                                        Value     Constraint
   Dihedral:       13  15  16  18       -0.000        0.000

 Attempting to Generate Delocalized Internal Coordinates

 62 Hessian modes will be used to form the next step
  Hessian Eigenvalues:
     0.045000    0.045000    0.045000    0.045000    0.045000    0.045000
     0.045000    0.045000    0.045000    0.045001    0.045002    0.045002
     0.045003    0.045003    0.045009    0.045010    0.045011    0.045018
     0.045019    0.159886    0.159939    0.159955    0.159957    0.159992
     0.159993    0.160000    0.160000    0.221281    0.221281    0.226855
     0.237826    0.237826    0.245311    0.249998    0.249998    0.250000
     0.250000    0.293636    0.293684    0.294746    0.294936    0.312571
     0.312615    0.354732    0.354740    0.354742    0.354756    0.355161
     0.355164    0.358372    0.358373    0.383080    0.383176    0.405793
     0.405832    0.413732    0.458107    0.461989    0.461995    0.485493
     0.497291    0.497294

 Minimum Search - Taking Simple RFO Step
 Searching for Lamda that Minimizes Along All modes
 Value Taken    Lamda =  -0.00053653
 Step Taken.  Stepsize is  0.057660

                             Maximum     Tolerance    Cnvgd?
         Gradient           0.006931      0.000300      NO
         Displacement       0.028195      0.001200      NO
         Energy change     *********      0.000001      NO


 New Cartesian Coordinates Obtained by Inverse Iteration

 Displacement from previous Coordinates is:  0.385324
 ----------------------------------------------------------------
             Standard Nuclear Orientation (Angstroms)
    I     Atom           X                Y                Z
 ----------------------------------------------------------------
    1      H       6.2385927465    -0.2633257546     0.1755352935
    2      H       5.3325883723     2.1997863329    -0.1074913575
    3      C       5.2070018117     0.0472069408     0.0826825968
    4      C       4.7080715383     1.3148502206    -0.0640150346
    5      S       3.9410405814    -1.1385862891     0.1163227573
    6      C       3.2875910802     1.3421211597    -0.1660404707
    7      H       2.7131501801     2.2507042349    -0.3087313678
    8      C       2.7056269677     0.0916671965    -0.0938700581
    9      H       1.3106219309    -2.3704604650    -0.6932138997
   10      C       1.3032637425    -0.2663703221    -0.1666686832
   11      C       0.7276058393    -1.4871268331    -0.4573234832
   12      S       0.0555451309     0.9284731636     0.1403001772
   13      C      -0.6901799801    -1.4681333425    -0.4481558202
   14      H      -1.2978623935    -2.3367967093    -0.6738739393
   15      C      -1.2307583085    -0.2312446342    -0.1546486837
   16      C      -2.6332077747     0.1374454074    -0.0742416291
   17      H      -3.6591598546    -1.7236548976    -0.5132814337
   18      C      -3.7371122268    -0.6693744439    -0.2740045072
   19      S      -3.1497852429     1.7728929241     0.3093953197
   20      C      -4.9777680768     0.0114071085    -0.1172728656
   21      C      -4.8245484111     1.3359786822     0.1986892092
   22      H      -5.9444656541    -0.4650970417    -0.2336224304
   23      H      -5.5891234189     2.0801365019     0.3739777503
 ----------------------------------------------------------------
 Nuclear Repulsion Energy =  1177.6644330358 hartrees
 There are       64 alpha and       64 beta electrons
 Applying Cartesian multipole field
    Component          Value
    ---------          -----
     (2,0,0)        1.00000E-12
     (0,2,0)        2.00000E-11
     (0,0,2)       -3.00000E-11
 Nucleus-field energy     =     0.0000000167 hartrees
 Requested basis set is 6-31++G(d,p)
 There are 110 shells and 345 basis functions
 A cutoff of  1.0D-12 yielded   4668 shell pairs
 There are     47549 function pairs

 Q-Chem warning in module /project/projectdirs/jcesr/qchem/qc44/cnl_qc441/compile/cori/qc_src/libqints/qchem/aobasis.C, line 68:

 Using reconstructed effective core potential

 Smallest overlap matrix eigenvalue = 5.75E-08
 Linear dependence detected in AO basis
 Number of orthogonalized atomic orbitals = 342
 Maximum deviation from orthogonality = 9.239E-11
 Guess MOs from SCF MO coefficient file
 Reading MOs from coefficient file
 Reading MOs from coefficient file
 A restricted hybrid HF-DFT SCF calculation will be
 performed using Pulay DIIS extrapolation
 Exchange:     0.2000 Hartree-Fock + 0.0800 Slater + 0.7200 B88
 Correlation:  0.1900 VWN1RPA + 0.8100 LYP
 Using SG-1 standard quadrature grid
 SCF converges when DIIS error is below 1.0E-08
 Geometry optimization detected.  Setting ReadMinima to 0
 Setting SaveMinima to 0
 ---------------------------------------
  Cycle       Energy         DIIS Error
 ---------------------------------------
    1   -1656.6275413514      1.27E-03
    2   -1656.6607979957      3.20E-04
    3   -1656.6548389394      6.78E-04
    4   -1656.6625302650      6.56E-05
    5   -1656.6625904724      2.12E-05
    6   -1656.6625968484      7.20E-06
    7   -1656.6625975969      2.79E-06
    8   -1656.6625977132      9.29E-07
    9   -1656.6625977285      3.38E-07
   10   -1656.6625977288      7.26E-08
   11   -1656.6625977297      2.37E-08
   12   -1656.6625977313      1.25E-08
   13   -1656.6625977309      3.37E-09 Convergence criterion met
 ---------------------------------------
 SCF time:  CPU 14.50 s  wall 13.34 s
 SCF   energy in the final basis set = -1656.6625977309
 Total energy in the final basis set = -1656.6625977309
 
 --------------------------------------------------------------
 
                    Orbital Energies (a.u.)
 --------------------------------------------------------------
 
 Alpha MOs
 -- Occupied --
-88.922 -88.921 -88.921 -10.242 -10.242 -10.241 -10.240 -10.226
-10.226 -10.207 -10.206 -10.206 -10.206 -10.205 -10.205  -7.981
 -7.981  -7.980  -5.945  -5.945  -5.945  -5.942  -5.941  -5.941
 -5.938  -5.938  -5.938  -0.907  -0.892  -0.876  -0.788  -0.757
 -0.745  -0.745  -0.733  -0.697  -0.618  -0.597  -0.569  -0.564
 -0.538  -0.533  -0.530  -0.499  -0.464  -0.424  -0.421  -0.419
 -0.416  -0.409  -0.401  -0.397  -0.388  -0.376  -0.370  -0.363
 -0.351  -0.341  -0.299  -0.269  -0.263  -0.259  -0.250  -0.199
 -- Virtual --
 -0.073  -0.030  -0.015  -0.006  -0.005   0.003   0.008   0.011
  0.017   0.019   0.025   0.028   0.031   0.034   0.043   0.045
  0.048   0.053   0.055   0.057   0.066   0.070   0.076   0.081
  0.083   0.086   0.089   0.092   0.099   0.106   0.106   0.109
  0.113   0.114   0.121   0.125   0.126   0.129   0.131   0.134
  0.137   0.138   0.142   0.145   0.150   0.151   0.155   0.162
  0.165   0.170   0.171   0.177   0.182   0.183   0.188   0.191
  0.195   0.200   0.201   0.205   0.208   0.214   0.216   0.229
  0.232   0.240   0.241   0.246   0.251   0.258   0.263   0.265
  0.270   0.274   0.285   0.291   0.300   0.305   0.308   0.316
  0.322   0.327   0.332   0.346   0.348   0.359   0.370   0.371
  0.387   0.391   0.392   0.424   0.443   0.452   0.467   0.490
  0.503   0.519   0.530   0.539   0.564   0.572   0.577   0.592
  0.594   0.609   0.618   0.636   0.649   0.654   0.656   0.661
  0.665   0.671   0.674   0.687   0.695   0.711   0.715   0.717
  0.721   0.724   0.736   0.749   0.764   0.776   0.780   0.790
  0.813   0.816   0.824   0.832   0.839   0.849   0.877   0.898
  0.928   0.935   0.940   0.944   0.958   0.960   0.966   0.970
  0.974   0.983   0.994   0.998   1.009   1.012   1.027   1.042
  1.044   1.055   1.071   1.085   1.095   1.105   1.113   1.125
  1.141   1.159   1.164   1.186   1.190   1.206   1.229   1.244
  1.258   1.280   1.282   1.322   1.338   1.339   1.346   1.354
  1.361   1.363   1.372   1.449   1.467   1.490   1.508   1.517
  1.548   1.566   1.586   1.602   1.651   1.687   1.700   1.726
  1.789   1.827   1.855   1.871   1.890   1.900   1.912   1.918
  1.932   1.955   1.981   1.987   1.998   2.022   2.054   2.072
  2.080   2.091   2.121   2.145   2.162   2.177   2.188   2.213
  2.227   2.237   2.263   2.273   2.296   2.329   2.361   2.364
  2.412   2.427   2.452   2.459   2.466   2.483   2.489   2.503
  2.525   2.530   2.545   2.550   2.573   2.584   2.609   2.635
  2.665   2.689   2.705   2.720   2.728   2.787   2.854   2.869
  2.903   2.937   2.974   2.995   3.126   3.181   3.231   3.272
  3.273   3.324   3.412   3.419   3.664   3.733   3.744   3.943
  3.978   4.021   4.246   4.273   4.299   4.319   4.340   4.347
  4.385   4.476   4.560   4.635   4.699   4.743
 --------------------------------------------------------------
 
          Ground-State Mulliken Net Atomic Charges

     Atom                 Charge (a.u.)
  ----------------------------------------
      1 H                     0.195532
      2 H                     0.120326
      3 C                     0.008480
      4 C                    -0.337907
      5 S                    -0.066101
      6 C                     0.455850
      7 H                     0.131411
      8 C                    -0.306259
      9 H                     0.121751
     10 C                    -0.174926
     11 C                    -0.080472
     12 S                    -0.419457
     13 C                     0.183892
     14 H                     0.104438
     15 C                     0.018139
     16 C                    -0.193796
     17 H                     0.100139
     18 C                     0.323048
     19 S                    -0.067437
     20 C                    -0.441230
     21 C                     0.000785
     22 H                     0.120045
     23 H                     0.203749
  ----------------------------------------
  Sum of atomic charges =     0.000000

 -----------------------------------------------------------------
                    Cartesian Multipole Moments
 -----------------------------------------------------------------
    Charge (ESU x 10^10)
                 0.0000
    Dipole Moment (Debye)
         X      -0.2577      Y      -0.4328      Z      -0.3316
       Tot       0.6030
    Quadrupole Moments (Debye-Ang)
        XX     -89.1155     XY       2.3693     YY    -101.1175
        XZ       0.3651     YZ       2.0992     ZZ    -116.2276
    Octopole Moments (Debye-Ang^2)
       XXX     -25.4749    XXY      -4.7260    XYY     -13.4964
       YYY     -60.5832    XXZ       7.6469    XYZ      -8.5484
       YYZ      -0.3051    XZZ     -10.8511    YZZ     -22.9012
       ZZZ      11.6571
    Hexadecapole Moments (Debye-Ang^3)
      XXXX   -6186.4451   XXXY     208.6882   XXYY   -1238.4677
      XYYY     267.5987   YYYY    -934.6448   XXXZ      37.8909
      XXYZ       6.9984   XYYZ      -4.8588   YYYZ     -38.8045
      XXZZ   -1356.6856   XYZZ      85.1670   YYZZ    -205.6879
      XZZZ      16.3631   YZZZ     -57.5761   ZZZZ    -191.7618
 -----------------------------------------------------------------
 Calculating analytic gradient of the SCF energy
 Gradient of SCF Energy
            1           2           3           4           5           6
    1   0.0000017   0.0000014  -0.0000229   0.0000384   0.0000583  -0.0000236
    2   0.0000106  -0.0000022  -0.0000262  -0.0000054   0.0000394  -0.0000092
    3   0.0000182  -0.0000033  -0.0000488   0.0000286   0.0000458  -0.0000237
            7           8           9          10          11          12
    1   0.0000014   0.0000588   0.0000104   0.0002145   0.0006246   0.0003633
    2   0.0000033  -0.0001022   0.0000535  -0.0001095   0.0002735   0.0002942
    3  -0.0000098  -0.0000738  -0.0000049  -0.0002011   0.0001260   0.0001663
           13          14          15          16          17          18
    1   0.0000246  -0.0001859  -0.0003080  -0.0003954   0.0001870   0.0004023
    2   0.0005297   0.0001254  -0.0012822  -0.0014011  -0.0001686   0.0008173
    3   0.0009843  -0.0003436  -0.0008977   0.0001459   0.0003545  -0.0007697
           19          20          21          22          23
    1  -0.0002458  -0.0004168  -0.0002787   0.0000206  -0.0001300
    2   0.0004000   0.0005865  -0.0000311   0.0000603  -0.0000561
    3   0.0001538   0.0001000   0.0001699   0.0000453   0.0000378
 Max gradient component =       1.401E-03
 RMS gradient           =       3.708E-04
 Gradient time:  CPU 4.72 s  wall 4.62 s
 Geometry Optimization Parameters
   NAtoms,    NIC,     NZ,  NCons,   NDum,   NFix, NCnnct, MaxDiis
       23     166       0       1       0       0       0       0

 Cartesian Hessian Update
 Hessian Updated using BFGS Update


** CONSTRAINED OPTIMIZATION IN DELOCALIZED INTERNAL COORDINATES **
   Searching for a Minimum

   Optimization Cycle:   2

                       Coordinates (Angstroms)
     ATOM                X               Y               Z
      1  H         6.2385927465   -0.2633257546    0.1755352935
      2  H         5.3325883723    2.1997863329   -0.1074913575
      3  C         5.2070018117    0.0472069408    0.0826825968
      4  C         4.7080715383    1.3148502206   -0.0640150346
      5  S         3.9410405814   -1.1385862891    0.1163227573
      6  C         3.2875910802    1.3421211597   -0.1660404707
      7  H         2.7131501801    2.2507042349   -0.3087313678
      8  C         2.7056269677    0.0916671965   -0.0938700581
      9  H         1.3106219309   -2.3704604650   -0.6932138997
     10  C         1.3032637425   -0.2663703221   -0.1666686832
     11  C         0.7276058393   -1.4871268331   -0.4573234832
     12  S         0.0555451309    0.9284731636    0.1403001772
     13  C        -0.6901799801   -1.4681333425   -0.4481558202
     14  H        -1.2978623935   -2.3367967093   -0.6738739393
     15  C        -1.2307583085   -0.2312446342   -0.1546486837
     16  C        -2.6332077747    0.1374454074   -0.0742416291
     17  H        -3.6591598546   -1.7236548976   -0.5132814337
     18  C        -3.7371122268   -0.6693744439   -0.2740045072
     19  S        -3.1497852429    1.7728929241    0.3093953197
     20  C        -4.9777680768    0.0114071085   -0.1172728656
     21  C        -4.8245484111    1.3359786822    0.1986892092
     22  H        -5.9444656541   -0.4650970417   -0.2336224304
     23  H        -5.5891234189    2.0801365019    0.3739777503
   Point Group: c1    Number of degrees of freedom:    63


   Energy is  -1656.662597731

              Constraints and their Current Values
                                        Value     Constraint
   Dihedral:       13  15  16  18        0.000        0.000
 Hessian Updated using BFGS Update

 56 Hessian modes will be used to form the next step
  Hessian Eigenvalues:
     0.041392    0.045000    0.045000    0.045000    0.045000    0.045000
     0.045001    0.045004    0.045009    0.045009    0.045015    0.045017
     0.045432    0.158570    0.159897    0.159947    0.159957    0.159985
     0.159992    0.159999    0.160001    0.207822    0.221282    0.221550
     0.227046    0.237826    0.240967    0.249802    0.249999    0.249999
     0.259936    0.293635    0.294311    0.294666    0.308804    0.312565
     0.312943    0.354641    0.354737    0.354743    0.354752    0.355164
     0.355169    0.358372    0.358377    0.383141    0.393810    0.405831
     0.408676    0.417328    0.457941    0.461791    0.461989    0.485704
     0.497289    0.497397

 Minimum Search - Taking Simple RFO Step
 Searching for Lamda that Minimizes Along All modes
 Value Taken    Lamda =  -0.00004089
 Step Taken.  Stepsize is  0.021126

                             Maximum     Tolerance    Cnvgd?
         Gradient           0.001043      0.000300      NO
         Displacement       0.007765      0.001200      NO
         Energy change     -0.000292      0.000001      NO


 New Cartesian Coordinates Obtained by Inverse Iteration

 Displacement from previous Coordinates is:  0.074792
 ----------------------------------------------------------------
             Standard Nuclear Orientation (Angstroms)
    I     Atom           X                Y                Z
 ----------------------------------------------------------------
    1      H       6.2364740970    -0.2709751434     0.1742314882
    2      H       5.3359553569     2.1947285045    -0.1044966559
    3      C       5.2055955002     0.0420689529     0.0819055067
    4      C       4.7094963995     1.3110788766    -0.0627858262
    5      S       3.9369853419    -1.1410529771     0.1131459998
    6      C       3.2891571013     1.3416676501    -0.1651436800
    7      H       2.7167056823     2.2517535971    -0.3062208986
    8      C       2.7044815493     0.0923622712    -0.0951933439
    9      H       1.3037443842    -2.3675609087    -0.6951136258
   10      C       1.3015350192    -0.2626056189    -0.1689007387
   11      C       0.7230974356    -1.4823734243    -0.4600449727
   12      S       0.0580060860     0.9363718031     0.1372528023
   13      C      -0.6936519261    -1.4600728991    -0.4486002828
   14      H      -1.3029932644    -2.3287448207    -0.6690138175
   15      C      -1.2295946543    -0.2207759457    -0.1537258096
   16      C      -2.6314641394     0.1447529695    -0.0704015755
   17      H      -3.6472906384    -1.7236376747    -0.5097037291
   18      C      -3.7303287575    -0.6703588932    -0.2686042433
   19      S      -3.1552949024     1.7773372415     0.3090716301
   20      C      -4.9738242673     0.0037718518    -0.1157111914
   21      C      -4.8271174472     1.3305589112     0.1957100694
   22      H      -5.9378515819    -0.4779011646    -0.2337110376
   23      H      -5.5950937945     2.0721059809     0.3665013720
 ----------------------------------------------------------------
 Nuclear Repulsion Energy =  1177.8432156779 hartrees
 There are       64 alpha and       64 beta electrons
 Applying Cartesian multipole field
    Component          Value
    ---------          -----
     (2,0,0)        1.00000E-12
     (0,2,0)        2.00000E-11
     (0,0,2)       -3.00000E-11
 Nucleus-field energy     =     0.0000000167 hartrees
 Requested basis set is 6-31++G(d,p)
 There are 110 shells and 345 basis functions
 A cutoff of  1.0D-12 yielded   4668 shell pairs
 There are     47549 function pairs

 Q-Chem warning in module /project/projectdirs/jcesr/qchem/qc44/cnl_qc441/compile/cori/qc_src/libqints/qchem/aobasis.C, line 68:

 Using reconstructed effective core potential

 Smallest overlap matrix eigenvalue = 5.65E-08
 Linear dependence detected in AO basis
 Number of orthogonalized atomic orbitals = 342
 Maximum deviation from orthogonality = 1.226E-10
 Guess MOs from SCF MO coefficient file
 Reading MOs from coefficient file
 Reading MOs from coefficient file
 A restricted hybrid HF-DFT SCF calculation will be
 performed using Pulay DIIS extrapolation
 Exchange:     0.2000 Hartree-Fock + 0.0800 Slater + 0.7200 B88
 Correlation:  0.1900 VWN1RPA + 0.8100 LYP
 Using SG-1 standard quadrature grid
 SCF converges when DIIS error is below 1.0E-08
 Geometry optimization detected.  Setting ReadMinima to 0
 Setting SaveMinima to 0
 ---------------------------------------
  Cycle       Energy         DIIS Error
 ---------------------------------------
    1   -1656.6573876289      2.96E-04
    2   -1656.6625488458      6.35E-05
    3   -1656.6623113445      1.35E-04
    4   -1656.6626157047      1.39E-05
    5   -1656.6626183942      4.81E-06
    6   -1656.6626187374      1.41E-06
    7   -1656.6626187657      5.68E-07
    8   -1656.6626187696      1.96E-07
    9   -1656.6626187710      7.58E-08
   10   -1656.6626187721      1.51E-08
   11   -1656.6626187720      6.05E-09 Convergence criterion met
 ---------------------------------------
 SCF time:  CPU 12.42 s  wall 11.29 s
 SCF   energy in the final basis set = -1656.6626187720
 Total energy in the final basis set = -1656.6626187720
 
 --------------------------------------------------------------
 
                    Orbital Energies (a.u.)
 --------------------------------------------------------------
 
 Alpha MOs
 -- Occupied --
-88.922 -88.922 -88.921 -10.242 -10.241 -10.241 -10.240 -10.226
-10.226 -10.207 -10.206 -10.206 -10.206 -10.205 -10.204  -7.981
 -7.981  -7.980  -5.945  -5.945  -5.944  -5.942  -5.942  -5.941
 -5.938  -5.938  -5.937  -0.907  -0.892  -0.876  -0.788  -0.757
 -0.745  -0.745  -0.734  -0.697  -0.618  -0.597  -0.569  -0.564
 -0.538  -0.533  -0.530  -0.499  -0.463  -0.424  -0.421  -0.419
 -0.416  -0.409  -0.401  -0.397  -0.388  -0.376  -0.370  -0.363
 -0.351  -0.342  -0.299  -0.269  -0.263  -0.259  -0.249  -0.199
 -- Virtual --
 -0.073  -0.030  -0.015  -0.006  -0.004   0.003   0.008   0.011
  0.017   0.019   0.025   0.028   0.031   0.034   0.043   0.045
  0.048   0.053   0.055   0.057   0.066   0.069   0.076   0.081
  0.083   0.086   0.089   0.092   0.099   0.106   0.106   0.109
  0.113   0.115   0.121   0.125   0.126   0.130   0.131   0.134
  0.137   0.138   0.143   0.145   0.150   0.151   0.155   0.162
  0.165   0.170   0.171   0.177   0.182   0.183   0.188   0.191
  0.195   0.200   0.201   0.205   0.208   0.214   0.216   0.229
  0.232   0.240   0.241   0.246   0.251   0.258   0.263   0.265
  0.270   0.274   0.285   0.291   0.301   0.305   0.308   0.316
  0.323   0.328   0.332   0.346   0.348   0.359   0.370   0.371
  0.387   0.391   0.392   0.425   0.443   0.452   0.467   0.490
  0.503   0.519   0.530   0.539   0.563   0.572   0.577   0.592
  0.594   0.609   0.618   0.637   0.649   0.654   0.657   0.661
  0.665   0.671   0.674   0.688   0.695   0.710   0.716   0.717
  0.721   0.724   0.736   0.749   0.764   0.776   0.780   0.790
  0.813   0.816   0.824   0.832   0.839   0.849   0.878   0.898
  0.928   0.935   0.940   0.944   0.958   0.960   0.966   0.971
  0.975   0.984   0.995   0.999   1.010   1.012   1.027   1.042
  1.045   1.056   1.071   1.085   1.096   1.105   1.113   1.126
  1.141   1.159   1.164   1.186   1.191   1.207   1.229   1.244
  1.259   1.280   1.283   1.323   1.339   1.340   1.345   1.354
  1.360   1.362   1.371   1.449   1.467   1.490   1.508   1.518
  1.548   1.567   1.587   1.601   1.652   1.688   1.700   1.727
  1.790   1.828   1.854   1.872   1.890   1.900   1.912   1.918
  1.932   1.956   1.981   1.988   1.999   2.023   2.054   2.073
  2.080   2.092   2.122   2.146   2.162   2.177   2.189   2.214
  2.228   2.238   2.264   2.273   2.298   2.329   2.361   2.364
  2.412   2.427   2.452   2.459   2.466   2.483   2.489   2.503
  2.525   2.531   2.545   2.550   2.574   2.584   2.609   2.635
  2.665   2.688   2.705   2.721   2.728   2.788   2.855   2.870
  2.904   2.937   2.973   2.994   3.126   3.181   3.231   3.272
  3.273   3.324   3.412   3.419   3.665   3.733   3.745   3.943
  3.978   4.021   4.247   4.273   4.299   4.319   4.339   4.347
  4.385   4.476   4.560   4.635   4.700   4.743
 --------------------------------------------------------------
 
          Ground-State Mulliken Net Atomic Charges

     Atom                 Charge (a.u.)
  ----------------------------------------
      1 H                     0.195467
      2 H                     0.120338
      3 C                     0.007635
      4 C                    -0.334888
      5 S                    -0.067394
      6 C                     0.455701
      7 H                     0.130991
      8 C                    -0.307663
      9 H                     0.121780
     10 C                    -0.179665
     11 C                    -0.075323
     12 S                    -0.416243
     13 C                     0.176891
     14 H                     0.103904
     15 C                     0.024972
     16 C                    -0.194958
     17 H                     0.099093
     18 C                     0.321259
     19 S                    -0.061721
     20 C                    -0.439690
     21 C                    -0.003913
     22 H                     0.120092
     23 H                     0.203338
  ----------------------------------------
  Sum of atomic charges =     0.000000

 -----------------------------------------------------------------
                    Cartesian Multipole Moments
 -----------------------------------------------------------------
    Charge (ESU x 10^10)
                 0.0000
    Dipole Moment (Debye)
         X      -0.2642      Y      -0.4330      Z      -0.3312
       Tot       0.6058
    Quadrupole Moments (Debye-Ang)
        XX     -89.2176     XY       2.3786     YY    -101.1033
        XZ       0.3997     YZ       2.0873     ZZ    -116.2305
    Octopole Moments (Debye-Ang^2)
       XXX     -25.1862    XXY      -5.1304    XYY     -13.4262
       YYY     -61.1305    XXZ       7.5259    XYZ      -8.4386
       YYZ      -0.2296    XZZ     -10.7745    YZZ     -23.0754
       ZZZ      11.8548
    Hexadecapole Moments (Debye-Ang^3)
      XXXX   -6187.6214   XXXY     209.7680   XXYY   -1238.1684
      XYYY     268.5697   YYYY    -935.0957   XXXZ      39.7574
      XXYZ       6.7264   XYYZ      -4.2648   YYYZ     -38.8740
      XXZZ   -1356.4400   XYZZ      85.5037   YYZZ    -205.7353
      XZZZ      17.3537   YZZZ     -57.4892   ZZZZ    -191.4614
 -----------------------------------------------------------------
 Calculating analytic gradient of the SCF energy
 Gradient of SCF Energy
            1           2           3           4           5           6
    1  -0.0000001  -0.0000041  -0.0000554   0.0000037   0.0000143  -0.0000263
    2   0.0000027   0.0000019  -0.0000264   0.0000154  -0.0000061   0.0000005
    3   0.0000075   0.0000002  -0.0000378   0.0000150   0.0000519  -0.0000436
            7           8           9          10          11          12
    1  -0.0000053   0.0000101  -0.0000420  -0.0002055   0.0000429   0.0003316
    2  -0.0000031  -0.0000290  -0.0000416  -0.0000215   0.0000255   0.0004634
    3   0.0000021   0.0000246  -0.0000038  -0.0000165  -0.0001284   0.0000823
           13          14          15          16          17          18
    1  -0.0000092  -0.0000271  -0.0001529  -0.0001473   0.0000082   0.0000656
    2   0.0000350   0.0000145  -0.0003116  -0.0005442  -0.0000907   0.0002672
    3   0.0006120  -0.0002043  -0.0006511   0.0003642   0.0001888  -0.0005674
           19          20          21          22          23
    1  -0.0000083  -0.0000307   0.0002161   0.0000133   0.0000086
    2   0.0005515  -0.0000466  -0.0001692  -0.0000558  -0.0000317
    3   0.0002584   0.0000873   0.0000140  -0.0000364  -0.0000189
 Max gradient component =       6.511E-04
 RMS gradient           =       1.988E-04
 Gradient time:  CPU 4.72 s  wall 4.61 s
 Geometry Optimization Parameters
   NAtoms,    NIC,     NZ,  NCons,   NDum,   NFix, NCnnct, MaxDiis
       23     166       0       1       0       0       0       0

 Cartesian Hessian Update
 Hessian Updated using BFGS Update


** CONSTRAINED OPTIMIZATION IN DELOCALIZED INTERNAL COORDINATES **
   Searching for a Minimum

   Optimization Cycle:   3

                       Coordinates (Angstroms)
     ATOM                X               Y               Z
      1  H         6.2364740970   -0.2709751434    0.1742314882
      2  H         5.3359553569    2.1947285045   -0.1044966559
      3  C         5.2055955002    0.0420689529    0.0819055067
      4  C         4.7094963995    1.3110788766   -0.0627858262
      5  S         3.9369853419   -1.1410529771    0.1131459998
      6  C         3.2891571013    1.3416676501   -0.1651436800
      7  H         2.7167056823    2.2517535971   -0.3062208986
      8  C         2.7044815493    0.0923622712   -0.0951933439
      9  H         1.3037443842   -2.3675609087   -0.6951136258
     10  C         1.3015350192   -0.2626056189   -0.1689007387
     11  C         0.7230974356   -1.4823734243   -0.4600449727
     12  S         0.0580060860    0.9363718031    0.1372528023
     13  C        -0.6936519261   -1.4600728991   -0.4486002828
     14  H        -1.3029932644   -2.3287448207   -0.6690138175
     15  C        -1.2295946543   -0.2207759457   -0.1537258096
     16  C        -2.6314641394    0.1447529695   -0.0704015755
     17  H        -3.6472906384   -1.7236376747   -0.5097037291
     18  C        -3.7303287575   -0.6703588932   -0.2686042433
     19  S        -3.1552949024    1.7773372415    0.3090716301
     20  C        -4.9738242673    0.0037718518   -0.1157111914
     21  C        -4.8271174472    1.3305589112    0.1957100694
     22  H        -5.9378515819   -0.4779011646   -0.2337110376
     23  H        -5.5950937945    2.0721059809    0.3665013720
   Point Group: c1    Number of degrees of freedom:    63


   Energy is  -1656.662618772

              Constraints and their Current Values
                                        Value     Constraint
   Dihedral:       13  15  16  18        0.000        0.000
 Hessian Updated using BFGS Update

 57 Hessian modes will be used to form the next step
  Hessian Eigenvalues:
     0.032880    0.045000    0.045000    0.045000    0.045001    0.045001
     0.045003    0.045003    0.045008    0.045009    0.045015    0.045017
     0.045052    0.045916    0.157605    0.159924    0.159956    0.159960
     0.159989    0.159992    0.160000    0.160743    0.213143    0.221287
     0.224047    0.228308    0.237978    0.241698    0.249988    0.249999
     0.250416    0.286734    0.293705    0.294200    0.295362    0.300360
     0.312560    0.313592    0.354442    0.354742    0.354746    0.354761
     0.355164    0.355207    0.358372    0.358459    0.383295    0.393876
     0.405824    0.410395    0.443125    0.459709    0.461562    0.463410
     0.483564    0.497290    0.497841

 Minimum Search - Taking Simple RFO Step
 Searching for Lamda that Minimizes Along All modes
 Value Taken    Lamda =  -0.00000589
 Step Taken.  Stepsize is  0.009949

                             Maximum     Tolerance    Cnvgd?
         Gradient           0.000343      0.000300      NO
         Displacement       0.004762      0.001200      NO
         Energy change     -0.000021      0.000001      NO


 New Cartesian Coordinates Obtained by Inverse Iteration

 Displacement from previous Coordinates is:  0.015835
 ----------------------------------------------------------------
             Standard Nuclear Orientation (Angstroms)
    I     Atom           X                Y                Z
 ----------------------------------------------------------------
    1      H       6.2371629406    -0.2706256047     0.1718397278
    2      H       5.3358698312     2.1953408833    -0.1021874885
    3      C       5.2061791361     0.0423622405     0.0805041052
    4      C       4.7096516126     1.3114523234    -0.0618923135
    5      S       3.9377472920    -1.1410785668     0.1099099420
    6      C       3.2892569220     1.3418663718    -0.1637910074
    7      H       2.7166045054     2.2521166176    -0.3029832173
    8      C       2.7047804954     0.0923256800    -0.0957640893
    9      H       1.3039151302    -2.3679967709    -0.6950236806
   10      C       1.3018560743    -0.2630643305    -0.1694498013
   11      C       0.7230994013    -1.4828160837    -0.4603905839
   12      S       0.0578369156     0.9353007725     0.1366914062
   13      C      -0.6937171398    -1.4604750661    -0.4486447444
   14      H      -1.3029264506    -2.3297723430    -0.6664902179
   15      C      -1.2295876652    -0.2208322129    -0.1535161475
   16      C      -2.6314469373     0.1446352596    -0.0693023087
   17      H      -3.6479963039    -1.7236278208    -0.5091385034
   18      C      -3.7306604489    -0.6707330175    -0.2666834755
   19      S      -3.1555409583     1.7768100056     0.3073959199
   20      C      -4.9741689148     0.0039639996    -0.1153893621
   21      C      -4.8276303335     1.3311877517     0.1944267504
   22      H      -5.9383457430    -0.4773167871    -0.2336459355
   23      H      -5.5952107815     2.0734758385     0.3639724653
 ----------------------------------------------------------------
 Nuclear Repulsion Energy =  1177.8492309805 hartrees
 There are       64 alpha and       64 beta electrons
 Applying Cartesian multipole field
    Component          Value
    ---------          -----
     (2,0,0)        1.00000E-12
     (0,2,0)        2.00000E-11
     (0,0,2)       -3.00000E-11
 Nucleus-field energy     =     0.0000000168 hartrees
 Requested basis set is 6-31++G(d,p)
 There are 110 shells and 345 basis functions
 A cutoff of  1.0D-12 yielded   4668 shell pairs
 There are     47549 function pairs

 Q-Chem warning in module /project/projectdirs/jcesr/qchem/qc44/cnl_qc441/compile/cori/qc_src/libqints/qchem/aobasis.C, line 68:

 Using reconstructed effective core potential

 Smallest overlap matrix eigenvalue = 5.65E-08
 Linear dependence detected in AO basis
 Number of orthogonalized atomic orbitals = 342
 Maximum deviation from orthogonality = 6.881E-11
 Guess MOs from SCF MO coefficient file
 Reading MOs from coefficient file
 Reading MOs from coefficient file
 A restricted hybrid HF-DFT SCF calculation will be
 performed using Pulay DIIS extrapolation
 Exchange:     0.2000 Hartree-Fock + 0.0800 Slater + 0.7200 B88
 Correlation:  0.1900 VWN1RPA + 0.8100 LYP
 Using SG-1 standard quadrature grid
 SCF converges when DIIS error is below 1.0E-08
 Geometry optimization detected.  Setting ReadMinima to 0
 Setting SaveMinima to 0
 ---------------------------------------
  Cycle       Energy         DIIS Error
 ---------------------------------------
    1   -1656.6622821738      5.57E-05
    2   -1656.6626219226      5.78E-06
    3   -1656.6626203758      1.15E-05
    4   -1656.6626225593      1.83E-06
    5   -1656.6626226039      7.77E-07
    6   -1656.6626226125      2.73E-07
    7   -1656.6626226125      1.07E-07
    8   -1656.6626226116      3.11E-08
    9   -1656.6626226111      1.05E-08
   10   -1656.6626226103      3.66E-09 Convergence criterion met
 ---------------------------------------
 SCF time:  CPU 11.04 s  wall 10.03 s
 SCF   energy in the final basis set = -1656.6626226103
 Total energy in the final basis set = -1656.6626226103
 
 --------------------------------------------------------------
 
                    Orbital Energies (a.u.)
 --------------------------------------------------------------
 
 Alpha MOs
 -- Occupied --
-88.922 -88.922 -88.921 -10.242 -10.241 -10.241 -10.240 -10.226
-10.226 -10.207 -10.206 -10.206 -10.206 -10.205 -10.204  -7.981
 -7.981  -7.980  -5.945  -5.945  -5.944  -5.942  -5.942  -5.941
 -5.938  -5.938  -5.937  -0.907  -0.893  -0.877  -0.788  -0.757
 -0.745  -0.745  -0.734  -0.697  -0.618  -0.597  -0.569  -0.564
 -0.538  -0.533  -0.530  -0.499  -0.463  -0.424  -0.421  -0.419
 -0.416  -0.409  -0.401  -0.397  -0.388  -0.376  -0.370  -0.363
 -0.351  -0.342  -0.299  -0.269  -0.263  -0.259  -0.250  -0.199
 -- Virtual --
 -0.073  -0.030  -0.015  -0.006  -0.004   0.003   0.008   0.011
  0.017   0.019   0.025   0.028   0.031   0.034   0.043   0.045
  0.048   0.053   0.055   0.057   0.066   0.069   0.076   0.081
  0.083   0.086   0.089   0.092   0.099   0.106   0.106   0.109
  0.113   0.115   0.121   0.125   0.126   0.130   0.132   0.134
  0.137   0.138   0.143   0.145   0.150   0.151   0.155   0.162
  0.165   0.170   0.171   0.177   0.181   0.183   0.188   0.191
  0.195   0.200   0.201   0.205   0.208   0.214   0.216   0.229
  0.233   0.240   0.241   0.246   0.251   0.258   0.263   0.265
  0.270   0.274   0.285   0.291   0.301   0.305   0.308   0.316
  0.323   0.328   0.332   0.346   0.348   0.359   0.370   0.371
  0.387   0.391   0.392   0.425   0.443   0.452   0.467   0.490
  0.503   0.519   0.530   0.539   0.564   0.572   0.577   0.592
  0.594   0.609   0.618   0.637   0.650   0.654   0.657   0.661
  0.665   0.671   0.674   0.688   0.695   0.710   0.716   0.717
  0.721   0.724   0.736   0.749   0.764   0.776   0.780   0.790
  0.813   0.816   0.824   0.832   0.839   0.849   0.878   0.898
  0.928   0.935   0.940   0.944   0.958   0.960   0.966   0.971
  0.975   0.984   0.995   0.999   1.010   1.013   1.027   1.042
  1.045   1.056   1.071   1.085   1.096   1.105   1.113   1.126
  1.142   1.159   1.164   1.186   1.191   1.207   1.229   1.244
  1.259   1.280   1.283   1.323   1.339   1.340   1.345   1.353
  1.360   1.362   1.371   1.448   1.467   1.490   1.508   1.518
  1.548   1.567   1.587   1.601   1.652   1.688   1.700   1.727
  1.790   1.827   1.854   1.872   1.890   1.900   1.912   1.918
  1.932   1.955   1.981   1.988   1.998   2.023   2.054   2.073
  2.080   2.092   2.122   2.146   2.162   2.177   2.189   2.213
  2.228   2.237   2.264   2.273   2.298   2.330   2.361   2.364
  2.412   2.427   2.452   2.459   2.466   2.483   2.489   2.503
  2.525   2.531   2.545   2.550   2.574   2.584   2.609   2.635
  2.665   2.688   2.705   2.720   2.728   2.788   2.855   2.869
  2.904   2.937   2.973   2.994   3.126   3.181   3.231   3.272
  3.273   3.324   3.412   3.419   3.665   3.733   3.745   3.943
  3.978   4.021   4.247   4.273   4.299   4.319   4.339   4.347
  4.386   4.476   4.560   4.635   4.700   4.743
 --------------------------------------------------------------
 
          Ground-State Mulliken Net Atomic Charges

     Atom                 Charge (a.u.)
  ----------------------------------------
      1 H                     0.195490
      2 H                     0.120365
      3 C                     0.007406
      4 C                    -0.334363
      5 S                    -0.067365
      6 C                     0.454406
      7 H                     0.130893
      8 C                    -0.306381
      9 H                     0.121700
     10 C                    -0.179506
     11 C                    -0.076324
     12 S                    -0.416191
     13 C                     0.175665
     14 H                     0.103981
     15 C                     0.025552
     16 C                    -0.194550
     17 H                     0.099075
     18 C                     0.321626
     19 S                    -0.061675
     20 C                    -0.439872
     21 C                    -0.003483
     22 H                     0.120114
     23 H                     0.203435
  ----------------------------------------
  Sum of atomic charges =     0.000000

 -----------------------------------------------------------------
                    Cartesian Multipole Moments
 -----------------------------------------------------------------
    Charge (ESU x 10^10)
                 0.0000
    Dipole Moment (Debye)
         X      -0.2640      Y      -0.4307      Z      -0.3308
       Tot       0.6039
    Quadrupole Moments (Debye-Ang)
        XX     -89.2082     XY       2.3691     YY    -101.1024
        XZ       0.4117     YZ       2.0857     ZZ    -116.2365
    Octopole Moments (Debye-Ang^2)
       XXX     -25.2025    XXY      -5.0356    XYY     -13.4435
       YYY     -61.0605    XXZ       7.4959    XYZ      -8.3696
       YYZ      -0.1604    XZZ     -10.7824    YZZ     -23.0504
       ZZZ      12.0428
    Hexadecapole Moments (Debye-Ang^3)
      XXXX   -6188.2413   XXXY     209.3778   XXYY   -1238.2505
      XYYY     268.5117   YYYY    -934.9978   XXXZ      40.3190
      XXYZ       6.7842   XYYZ      -4.0101   YYYZ     -38.9154
      XXZZ   -1356.7561   XYZZ      85.5136   YYZZ    -205.7503
      XZZZ      17.7514   YZZZ     -57.5299   ZZZZ    -191.2013
 -----------------------------------------------------------------
 Calculating analytic gradient of the SCF energy
 Gradient of SCF Energy
            1           2           3           4           5           6
    1   0.0000039   0.0000019   0.0000030   0.0000125  -0.0000059   0.0000021
    2   0.0000047  -0.0000009  -0.0000116   0.0000059   0.0000273  -0.0000032
    3   0.0000020   0.0000034  -0.0000199   0.0000107   0.0000385  -0.0000484
            7           8           9          10          11          12
    1  -0.0000050   0.0000136  -0.0000064  -0.0000837   0.0000362   0.0000850
    2  -0.0000037  -0.0000101  -0.0000085  -0.0000261   0.0000154   0.0000366
    3   0.0000042   0.0000416   0.0000122   0.0000005  -0.0001368  -0.0000038
           13          14          15          16          17          18
    1  -0.0000458   0.0000234  -0.0001285   0.0001202  -0.0000138   0.0000472
    2  -0.0000983   0.0000273   0.0001590  -0.0001794  -0.0000038   0.0000805
    3   0.0004213  -0.0001034  -0.0005449   0.0004975   0.0000990  -0.0004238
           19          20          21          22          23
    1  -0.0000542  -0.0000351   0.0000350   0.0000035  -0.0000092
    2   0.0000384   0.0000001  -0.0000548   0.0000003   0.0000050
    3   0.0000860   0.0000784   0.0000445  -0.0000426  -0.0000162
 Max gradient component =       5.449E-04
 RMS gradient           =       1.265E-04
 Gradient time:  CPU 4.72 s  wall 4.61 s
 Geometry Optimization Parameters
   NAtoms,    NIC,     NZ,  NCons,   NDum,   NFix, NCnnct, MaxDiis
       23     166       0       1       0       0       0       0

 Cartesian Hessian Update
 Hessian Updated using BFGS Update


** CONSTRAINED OPTIMIZATION IN DELOCALIZED INTERNAL COORDINATES **
   Searching for a Minimum

   Optimization Cycle:   4

                       Coordinates (Angstroms)
     ATOM                X               Y               Z
      1  H         6.2371629406   -0.2706256047    0.1718397278
      2  H         5.3358698312    2.1953408833   -0.1021874885
      3  C         5.2061791361    0.0423622405    0.0805041052
      4  C         4.7096516126    1.3114523234   -0.0618923135
      5  S         3.9377472920   -1.1410785668    0.1099099420
      6  C         3.2892569220    1.3418663718   -0.1637910074
      7  H         2.7166045054    2.2521166176   -0.3029832173
      8  C         2.7047804954    0.0923256800   -0.0957640893
      9  H         1.3039151302   -2.3679967709   -0.6950236806
     10  C         1.3018560743   -0.2630643305   -0.1694498013
     11  C         0.7230994013   -1.4828160837   -0.4603905839
     12  S         0.0578369156    0.9353007725    0.1366914062
     13  C        -0.6937171398   -1.4604750661   -0.4486447444
     14  H        -1.3029264506   -2.3297723430   -0.6664902179
     15  C        -1.2295876652   -0.2208322129   -0.1535161475
     16  C        -2.6314469373    0.1446352596   -0.0693023087
     17  H        -3.6479963039   -1.7236278208   -0.5091385034
     18  C        -3.7306604489   -0.6707330175   -0.2666834755
     19  S        -3.1555409583    1.7768100056    0.3073959199
     20  C        -4.9741689148    0.0039639996   -0.1153893621
     21  C        -4.8276303335    1.3311877517    0.1944267504
     22  H        -5.9383457430   -0.4773167871   -0.2336459355
     23  H        -5.5952107815    2.0734758385    0.3639724653
   Point Group: c1    Number of degrees of freedom:    63


   Energy is  -1656.662622610

              Constraints and their Current Values
                                        Value     Constraint
   Dihedral:       13  15  16  18        0.000        0.000
 Hessian Updated using BFGS Update

 59 Hessian modes will be used to form the next step
  Hessian Eigenvalues:
     0.021295    0.044321    0.045000    0.045000    0.045000    0.045000
     0.045001    0.045002    0.045003    0.045003    0.045004    0.045009
     0.045011    0.045016    0.045018    0.046054    0.159263    0.159886
     0.159945    0.159960    0.159966    0.159997    0.160001    0.160572
     0.219833    0.221279    0.223911    0.226814    0.238037    0.242106
     0.249885    0.249997    0.250071    0.285308    0.293278    0.293824
     0.294560    0.300193    0.312549    0.315773    0.354729    0.354743
     0.354752    0.355093    0.355164    0.355583    0.358372    0.358838
     0.384751    0.395319    0.405940    0.410433    0.443036    0.459968
     0.461879    0.476500    0.483695    0.497290    0.500763

 Minimum Search - Taking Simple RFO Step
 Searching for Lamda that Minimizes Along All modes
 Value Taken    Lamda =  -0.00000210
 Step Taken.  Stepsize is  0.008994

                             Maximum     Tolerance    Cnvgd?
         Gradient           0.000155      0.000300     YES
         Displacement       0.004354      0.001200      NO
         Energy change     -0.000004      0.000001      NO


 New Cartesian Coordinates Obtained by Inverse Iteration

 Displacement from previous Coordinates is:  0.020982
 ----------------------------------------------------------------
             Standard Nuclear Orientation (Angstroms)
    I     Atom           X                Y                Z
 ----------------------------------------------------------------
    1      H       6.2374052789    -0.2698182767     0.1681485331
    2      H       5.3348376241     2.1964289769    -0.0995016458
    3      C       5.2062356990     0.0429721651     0.0783150466
    4      C       4.7090519515     1.3121574413    -0.0609012690
    5      S       3.9383583616    -1.1411385232     0.1057267299
    6      C       3.2886085388     1.3422083372    -0.1618251173
    7      H       2.7155205698     2.2525835477    -0.2984084946
    8      C       2.7047307450     0.0922581449    -0.0962065808
    9      H       1.3044305639    -2.3687347686    -0.6942428458
   10      C       1.3019689331    -0.2636644347    -0.1695040321
   11      C       0.7233229630    -1.4836595139    -0.4599364414
   12      S       0.0574605759     0.9341563100     0.1366219181
   13      C      -0.6934850362    -1.4616700438    -0.4482636158
   14      H      -1.3025975711    -2.3315699380    -0.6639785479
   15      C      -1.2294942538    -0.2219031913    -0.1534562031
   16      C      -2.6314189843     0.1438664072    -0.0688733944
   17      H      -3.6491767342    -1.7239450682    -0.5086402429
   18      C      -3.7311743691    -0.6711496270    -0.2654737898
   19      S      -3.1543741794     1.7766256942     0.3049944800
   20      C      -4.9741694711     0.0047108567    -0.1153934583
   21      C      -4.8268329985     1.3323127054     0.1927059152
   22      H      -5.9387306080    -0.4759459155    -0.2330410307
   23      H      -5.5937490189     2.0754178544     0.3615815267
 ----------------------------------------------------------------
 Nuclear Repulsion Energy =  1177.8971190099 hartrees
 There are       64 alpha and       64 beta electrons
 Applying Cartesian multipole field
    Component          Value
    ---------          -----
     (2,0,0)        1.00000E-12
     (0,2,0)        2.00000E-11
     (0,0,2)       -3.00000E-11
 Nucleus-field energy     =     0.0000000168 hartrees
 Requested basis set is 6-31++G(d,p)
 There are 110 shells and 345 basis functions
 A cutoff of  1.0D-12 yielded   4668 shell pairs
 There are     47549 function pairs

 Q-Chem warning in module /project/projectdirs/jcesr/qchem/qc44/cnl_qc441/compile/cori/qc_src/libqints/qchem/aobasis.C, line 68:

 Using reconstructed effective core potential

 Smallest overlap matrix eigenvalue = 5.66E-08
 Linear dependence detected in AO basis
 Number of orthogonalized atomic orbitals = 342
 Maximum deviation from orthogonality = 7.562E-11
 Guess MOs from SCF MO coefficient file
 Reading MOs from coefficient file
 Reading MOs from coefficient file
 A restricted hybrid HF-DFT SCF calculation will be
 performed using Pulay DIIS extrapolation
 Exchange:     0.2000 Hartree-Fock + 0.0800 Slater + 0.7200 B88
 Correlation:  0.1900 VWN1RPA + 0.8100 LYP
 Using SG-1 standard quadrature grid
 SCF converges when DIIS error is below 1.0E-08
 Geometry optimization detected.  Setting ReadMinima to 0
 Setting SaveMinima to 0
 ---------------------------------------
  Cycle       Energy         DIIS Error
 ---------------------------------------
    1   -1656.6627475475      6.74E-05
    2   -1656.6626223861      8.99E-06
    3   -1656.6626164659      2.10E-05
    4   -1656.6626239449      1.79E-06
    5   -1656.6626239893      7.40E-07
    6   -1656.6626239971      3.42E-07
    7   -1656.6626239977      1.15E-07
    8   -1656.6626239967      4.10E-08
    9   -1656.6626239975      1.05E-08
   10   -1656.6626239964      4.05E-09 Convergence criterion met
 ---------------------------------------
 SCF time:  CPU 11.05 s  wall 10.08 s
 SCF   energy in the final basis set = -1656.6626239964
 Total energy in the final basis set = -1656.6626239964
 
 --------------------------------------------------------------
 
                    Orbital Energies (a.u.)
 --------------------------------------------------------------
 
 Alpha MOs
 -- Occupied --
-88.922 -88.922 -88.921 -10.242 -10.241 -10.241 -10.240 -10.226
-10.226 -10.207 -10.206 -10.206 -10.206 -10.205 -10.204  -7.981
 -7.981  -7.980  -5.945  -5.945  -5.944  -5.942  -5.942  -5.941
 -5.938  -5.938  -5.937  -0.907  -0.893  -0.877  -0.788  -0.757
 -0.745  -0.745  -0.734  -0.697  -0.618  -0.597  -0.569  -0.564
 -0.538  -0.533  -0.530  -0.499  -0.463  -0.424  -0.421  -0.419
 -0.416  -0.409  -0.401  -0.397  -0.388  -0.376  -0.370  -0.363
 -0.351  -0.341  -0.299  -0.269  -0.263  -0.259  -0.250  -0.199
 -- Virtual --
 -0.073  -0.030  -0.015  -0.006  -0.004   0.003   0.008   0.011
  0.017   0.019   0.025   0.028   0.031   0.034   0.043   0.045
  0.048   0.053   0.055   0.057   0.066   0.069   0.076   0.081
  0.083   0.086   0.089   0.092   0.099   0.106   0.106   0.109
  0.113   0.115   0.121   0.125   0.126   0.130   0.132   0.134
  0.137   0.138   0.143   0.145   0.150   0.151   0.155   0.162
  0.165   0.170   0.171   0.177   0.181   0.183   0.188   0.191
  0.195   0.200   0.201   0.205   0.208   0.214   0.216   0.229
  0.233   0.240   0.241   0.246   0.251   0.258   0.263   0.265
  0.270   0.274   0.285   0.291   0.300   0.305   0.308   0.316
  0.323   0.328   0.332   0.346   0.348   0.359   0.370   0.371
  0.387   0.391   0.392   0.425   0.443   0.452   0.467   0.490
  0.503   0.519   0.530   0.538   0.564   0.572   0.577   0.593
  0.594   0.609   0.619   0.637   0.650   0.654   0.657   0.661
  0.665   0.671   0.674   0.688   0.695   0.710   0.716   0.717
  0.721   0.724   0.736   0.749   0.764   0.776   0.780   0.790
  0.813   0.816   0.824   0.832   0.839   0.849   0.878   0.898
  0.928   0.935   0.940   0.944   0.958   0.960   0.965   0.971
  0.974   0.984   0.995   0.999   1.010   1.013   1.027   1.042
  1.045   1.056   1.071   1.085   1.096   1.105   1.113   1.126
  1.142   1.159   1.164   1.186   1.191   1.207   1.229   1.243
  1.259   1.280   1.283   1.323   1.339   1.340   1.345   1.353
  1.360   1.362   1.371   1.448   1.467   1.490   1.507   1.518
  1.548   1.567   1.587   1.602   1.652   1.688   1.700   1.726
  1.789   1.827   1.854   1.872   1.890   1.900   1.912   1.918
  1.932   1.955   1.981   1.988   1.998   2.023   2.054   2.073
  2.080   2.092   2.122   2.146   2.162   2.177   2.189   2.213
  2.227   2.237   2.264   2.273   2.298   2.330   2.361   2.364
  2.412   2.427   2.452   2.459   2.466   2.483   2.489   2.503
  2.525   2.531   2.545   2.550   2.573   2.584   2.609   2.636
  2.665   2.688   2.705   2.720   2.728   2.788   2.855   2.869
  2.904   2.937   2.973   2.994   3.126   3.181   3.231   3.272
  3.273   3.324   3.412   3.419   3.665   3.733   3.745   3.943
  3.978   4.021   4.247   4.273   4.299   4.319   4.339   4.347
  4.386   4.476   4.560   4.635   4.700   4.743
 --------------------------------------------------------------
 
          Ground-State Mulliken Net Atomic Charges

     Atom                 Charge (a.u.)
  ----------------------------------------
      1 H                     0.195500
      2 H                     0.120382
      3 C                     0.007120
      4 C                    -0.334098
      5 S                    -0.067332
      6 C                     0.453842
      7 H                     0.130798
      8 C                    -0.305186
      9 H                     0.121579
     10 C                    -0.178979
     11 C                    -0.078558
     12 S                    -0.416757
     13 C                     0.175643
     14 H                     0.104068
     15 C                     0.025298
     16 C                    -0.193469
     17 H                     0.099164
     18 C                     0.322611
     19 S                    -0.062133
     20 C                    -0.439874
     21 C                    -0.003222
     22 H                     0.120116
     23 H                     0.203488
  ----------------------------------------
  Sum of atomic charges =     0.000000

 -----------------------------------------------------------------
                    Cartesian Multipole Moments
 -----------------------------------------------------------------
    Charge (ESU x 10^10)
                 0.0000
    Dipole Moment (Debye)
         X      -0.2642      Y      -0.4292      Z      -0.3291
       Tot       0.6019
    Quadrupole Moments (Debye-Ang)
        XX     -89.2119     XY       2.3647     YY    -101.0918
        XZ       0.4154     YZ       2.0895     ZZ    -116.2435
    Octopole Moments (Debye-Ang^2)
       XXX     -25.2291    XXY      -4.9891    XYY     -13.4775
       YYY     -60.9718    XXZ       7.4986    XYZ      -8.2914
       YYZ      -0.0633    XZZ     -10.8026    YZZ     -23.0252
       ZZZ      12.2840
    Hexadecapole Moments (Debye-Ang^3)
      XXXX   -6187.8195   XXXY     209.2077   XXYY   -1238.0536
      XYYY     268.3871   YYYY    -935.1177   XXXZ      40.4196
      XXYZ       6.9012   XYYZ      -3.7824   YYYZ     -38.9300
      XXZZ   -1356.7141   XYZZ      85.5083   YYZZ    -205.8127
      XZZZ      18.0539   YZZZ     -57.5809   ZZZZ    -190.8472
 -----------------------------------------------------------------
 Calculating analytic gradient of the SCF energy
 Gradient of SCF Energy
            1           2           3           4           5           6
    1  -0.0000009  -0.0000006   0.0000044  -0.0000103  -0.0000156   0.0000136
    2   0.0000017   0.0000018  -0.0000068   0.0000047   0.0000038   0.0000005
    3  -0.0000030   0.0000063  -0.0000091   0.0000060   0.0000337  -0.0000530
            7           8           9          10          11          12
    1  -0.0000031   0.0000244   0.0000078   0.0000133  -0.0000201  -0.0000524
    2   0.0000024   0.0000187   0.0000064   0.0000003   0.0000153  -0.0001217
    3   0.0000064   0.0000368   0.0000120  -0.0000012  -0.0001022   0.0000040
           13          14          15          16          17          18
    1  -0.0000102   0.0000178   0.0000252   0.0000599  -0.0000149  -0.0000266
    2  -0.0001375   0.0000078   0.0002951  -0.0000056   0.0000057   0.0000171
    3   0.0002895  -0.0000273  -0.0005391   0.0005981   0.0000134  -0.0003200
           19          20          21          22          23
    1  -0.0000105   0.0000180  -0.0000240   0.0000001   0.0000047
    2  -0.0001242  -0.0000289   0.0000193   0.0000137   0.0000101
    3  -0.0000067   0.0000407   0.0000540  -0.0000334  -0.0000059
 Max gradient component =       5.981E-04
 RMS gradient           =       1.208E-04
 Gradient time:  CPU 4.70 s  wall 4.61 s
 Geometry Optimization Parameters
   NAtoms,    NIC,     NZ,  NCons,   NDum,   NFix, NCnnct, MaxDiis
       23     166       0       1       0       0       0       0

 Cartesian Hessian Update
 Hessian Updated using BFGS Update


** CONSTRAINED OPTIMIZATION IN DELOCALIZED INTERNAL COORDINATES **
   Searching for a Minimum

   Optimization Cycle:   5

                       Coordinates (Angstroms)
     ATOM                X               Y               Z
      1  H         6.2374052789   -0.2698182767    0.1681485331
      2  H         5.3348376241    2.1964289769   -0.0995016458
      3  C         5.2062356990    0.0429721651    0.0783150466
      4  C         4.7090519515    1.3121574413   -0.0609012690
      5  S         3.9383583616   -1.1411385232    0.1057267299
      6  C         3.2886085388    1.3422083372   -0.1618251173
      7  H         2.7155205698    2.2525835477   -0.2984084946
      8  C         2.7047307450    0.0922581449   -0.0962065808
      9  H         1.3044305639   -2.3687347686   -0.6942428458
     10  C         1.3019689331   -0.2636644347   -0.1695040321
     11  C         0.7233229630   -1.4836595139   -0.4599364414
     12  S         0.0574605759    0.9341563100    0.1366219181
     13  C        -0.6934850362   -1.4616700438   -0.4482636158
     14  H        -1.3025975711   -2.3315699380   -0.6639785479
     15  C        -1.2294942538   -0.2219031913   -0.1534562031
     16  C        -2.6314189843    0.1438664072   -0.0688733944
     17  H        -3.6491767342   -1.7239450682   -0.5086402429
     18  C        -3.7311743691   -0.6711496270   -0.2654737898
     19  S        -3.1543741794    1.7766256942    0.3049944800
     20  C        -4.9741694711    0.0047108567   -0.1153934583
     21  C        -4.8268329985    1.3323127054    0.1927059152
     22  H        -5.9387306080   -0.4759459155   -0.2330410307
     23  H        -5.5937490189    2.0754178544    0.3615815267
   Point Group: c1    Number of degrees of freedom:    63


   Energy is  -1656.662623996

              Constraints and their Current Values
                                        Value     Constraint
   Dihedral:       13  15  16  18        0.000        0.000
 Hessian Updated using BFGS Update

 58 Hessian modes will be used to form the next step
  Hessian Eigenvalues:
     0.012282    0.042312    0.045000    0.045000    0.045001    0.045001
     0.045002    0.045003    0.045003    0.045006    0.045009    0.045015
     0.045017    0.045135    0.048325    0.158334    0.159916    0.159938
     0.159965    0.159992    0.159997    0.160135    0.160811    0.213533
     0.221290    0.223153    0.227690    0.238766    0.242699    0.249990
     0.250027    0.250618    0.292352    0.293529    0.294385    0.297017
     0.312236    0.312606    0.332513    0.354729    0.354747    0.354795
     0.355056    0.355164    0.355581    0.358384    0.358801    0.384461
     0.395164    0.406402    0.410436    0.442984    0.459967    0.462174
     0.483612    0.492915    0.497513    0.500677

 Minimum Search - Taking Simple RFO Step
 Searching for Lamda that Minimizes Along All modes
 Value Taken    Lamda =  -0.00000106
 Step Taken.  Stepsize is  0.008278

                             Maximum     Tolerance    Cnvgd?
         Gradient           0.000105      0.000300     YES
         Displacement       0.005065      0.001200      NO
         Energy change     -0.000001      0.000001      NO


 New Cartesian Coordinates Obtained by Inverse Iteration

 Displacement from previous Coordinates is:  0.021451
 ----------------------------------------------------------------
             Standard Nuclear Orientation (Angstroms)
    I     Atom           X                Y                Z
 ----------------------------------------------------------------
    1      H       6.2377414469    -0.2694757335     0.1639830458
    2      H       5.3341445723     2.1971734887    -0.0965326129
    3      C       5.2064030232     0.0432404584     0.0758314664
    4      C       4.7086862132     1.3125919627    -0.0597827390
    5      S       3.9389212394    -1.1413577195     0.1010914174
    6      C       3.2881464856     1.3424417782    -0.1595245087
    7      H       2.7147062298     2.2530248487    -0.2931784869
[...]
    4   -1656.6626247319      1.79E-06
    5   -1656.6626247758      8.26E-07
    6   -1656.6626247847      3.93E-07
    7   -1656.6626247892      1.09E-07
    8   -1656.6626247884      4.51E-08
    9   -1656.6626247884      1.04E-08
   10   -1656.6626247877      4.40E-09 Convergence criterion met
 ---------------------------------------
 SCF time:  CPU 11.09 s  wall 10.08 s
 SCF   energy in the final basis set = -1656.6626247877
 Total energy in the final basis set = -1656.6626247877
 
 --------------------------------------------------------------
 
                    Orbital Energies (a.u.)
 --------------------------------------------------------------
 
 Alpha MOs
 -- Occupied --
-88.922 -88.922 -88.921 -10.242 -10.241 -10.241 -10.240 -10.226
-10.226 -10.207 -10.206 -10.206 -10.206 -10.205 -10.204  -7.981
 -7.981  -7.980  -5.945  -5.945  -5.944  -5.942  -5.942  -5.941
 -5.938  -5.938  -5.937  -0.907  -0.893  -0.877  -0.788  -0.757
 -0.745  -0.745  -0.734  -0.697  -0.618  -0.597  -0.569  -0.564
 -0.538  -0.533  -0.530  -0.499  -0.463  -0.424  -0.421  -0.419
 -0.416  -0.409  -0.401  -0.397  -0.388  -0.376  -0.370  -0.363
 -0.351  -0.341  -0.299  -0.269  -0.263  -0.259  -0.250  -0.199
 -- Virtual --
 -0.073  -0.030  -0.015  -0.006  -0.004   0.003   0.008   0.011
  0.017   0.019   0.025   0.028   0.031   0.034   0.043   0.045
  0.048   0.053   0.055   0.057   0.066   0.069   0.076   0.081
  0.083   0.086   0.089   0.092   0.099   0.106   0.106   0.109
  0.113   0.115   0.121   0.125   0.126   0.130   0.132   0.134
  0.137   0.138   0.143   0.145   0.150   0.151   0.155   0.162
  0.165   0.170   0.171   0.177   0.181   0.183   0.188   0.191
  0.195   0.200   0.201   0.205   0.208   0.214   0.216   0.229
  0.233   0.240   0.242   0.246   0.251   0.258   0.263   0.265
  0.270   0.274   0.285   0.291   0.300   0.305   0.308   0.316
  0.323   0.328   0.332   0.346   0.349   0.359   0.370   0.371
  0.387   0.391   0.392   0.425   0.443   0.452   0.467   0.490
  0.503   0.519   0.530   0.538   0.564   0.573   0.578   0.593
  0.594   0.609   0.619   0.637   0.650   0.654   0.657   0.661
  0.665   0.671   0.674   0.688   0.695   0.710   0.716   0.717
  0.721   0.724   0.736   0.749   0.764   0.776   0.780   0.790
  0.813   0.816   0.824   0.832   0.839   0.849   0.878   0.898
  0.928   0.935   0.939   0.944   0.958   0.960   0.965   0.971
  0.974   0.984   0.995   0.998   1.010   1.013   1.027   1.042
  1.045   1.056   1.071   1.085   1.096   1.105   1.113   1.126
  1.142   1.159   1.164   1.186   1.191   1.207   1.229   1.243
  1.260   1.280   1.283   1.323   1.339   1.340   1.345   1.353
  1.360   1.362   1.371   1.448   1.467   1.490   1.507   1.518
  1.548   1.567   1.587   1.602   1.652   1.688   1.700   1.726
  1.789   1.827   1.854   1.872   1.890   1.900   1.912   1.918
  1.932   1.955   1.981   1.988   1.998   2.023   2.054   2.073
  2.080   2.092   2.122   2.146   2.162   2.177   2.189   2.213
  2.227   2.237   2.264   2.273   2.298   2.330   2.361   2.364
  2.412   2.427   2.452   2.459   2.466   2.483   2.489   2.503
  2.525   2.531   2.545   2.550   2.573   2.584   2.609   2.636
  2.665   2.688   2.705   2.720   2.728   2.788   2.855   2.869
  2.904   2.937   2.973   2.994   3.126   3.181   3.231   3.272
  3.273   3.324   3.412   3.419   3.665   3.733   3.745   3.943
  3.978   4.021   4.247   4.273   4.299   4.319   4.339   4.347
  4.386   4.476   4.560   4.635   4.700   4.743
 --------------------------------------------------------------
 
          Ground-State Mulliken Net Atomic Charges

     Atom                 Charge (a.u.)
  ----------------------------------------
      1 H                     0.195524
      2 H                     0.120405
      3 C                     0.006915
      4 C                    -0.333576
      5 S                    -0.067556
      6 C                     0.454098
      7 H                     0.130677
      8 C                    -0.304662
      9 H                     0.121470
     10 C                    -0.178713
     11 C                    -0.080780
     12 S                    -0.417588
     13 C                     0.175801
     14 H                     0.104103
     15 C                     0.025212
     16 C                    -0.192631
     17 H                     0.099218
     18 C                     0.323845
     19 S                    -0.062421
     20 C                    -0.439883
     21 C                    -0.003083
     22 H                     0.120117
     23 H                     0.203509
  ----------------------------------------
  Sum of atomic charges =     0.000000

 -----------------------------------------------------------------
                    Cartesian Multipole Moments
 -----------------------------------------------------------------
    Charge (ESU x 10^10)
                 0.0000
    Dipole Moment (Debye)
         X      -0.2646      Y      -0.4289      Z      -0.3265
       Tot       0.6005
    Quadrupole Moments (Debye-Ang)
        XX     -89.2129     XY       2.3650     YY    -101.0828
        XZ       0.4125     YZ       2.0944     ZZ    -116.2523
    Octopole Moments (Debye-Ang^2)
       XXX     -25.2487    XXY      -4.9807    XYY     -13.5037
       YYY     -60.9412    XXZ       7.5480    XYZ      -8.2035
       YYZ       0.0572    XZZ     -10.8169    YZZ     -23.0195
       ZZZ      12.5790
    Hexadecapole Moments (Debye-Ang^3)
      XXXX   -6187.5361   XXXY     209.2417   XXYY   -1237.9776
      XYYY     268.4298   YYYY    -935.3960   XXXZ      40.2370
      XXYZ       7.0293   XYYZ      -3.5624   YYYZ     -38.9093
      XXZZ   -1356.7676   XYZZ      85.5488   YYZZ    -205.8909
      XZZZ      18.3231   YZZZ     -57.6004   ZZZZ    -190.4362
 -----------------------------------------------------------------
 Calculating analytic gradient of the SCF energy
 Gradient of SCF Energy
            1           2           3           4           5           6
    1   0.0000005   0.0000005   0.0000128  -0.0000029  -0.0000142   0.0000038
    2   0.0000014   0.0000013  -0.0000008  -0.0000050   0.0000098  -0.0000031
    3  -0.0000069   0.0000087  -0.0000016   0.0000051   0.0000291  -0.0000514
            7           8           9          10          11          12
    1  -0.0000018   0.0000050   0.0000121   0.0000419  -0.0000438  -0.0000882
    2   0.0000003   0.0000212   0.0000086   0.0000101   0.0000121  -0.0001229
    3   0.0000083   0.0000234  -0.0000016   0.0000006  -0.0000661   0.0000315
           13          14          15          16          17          18
    1   0.0000128   0.0000041   0.0000966  -0.0000148  -0.0000036  -0.0000397
    2  -0.0001150  -0.0000029   0.0002665  -0.0000085   0.0000121   0.0000209
    3   0.0002226   0.0000227  -0.0005783   0.0006501  -0.0000403  -0.0002557
           19          20          21          22          23
    1   0.0000189   0.0000367  -0.0000401  -0.0000038   0.0000072
    2  -0.0001334  -0.0000279   0.0000387   0.0000118   0.0000046
    3  -0.0000373   0.0000104   0.0000324  -0.0000123   0.0000065
 Max gradient component =       6.501E-04
 RMS gradient           =       1.224E-04
 Gradient time:  CPU 4.70 s  wall 4.61 s
 Geometry Optimization Parameters
   NAtoms,    NIC,     NZ,  NCons,   NDum,   NFix, NCnnct, MaxDiis
       23     166       0       1       0       0       0       0

 Cartesian Hessian Update
 Hessian Updated using BFGS Update


** CONSTRAINED OPTIMIZATION IN DELOCALIZED INTERNAL COORDINATES **
   Searching for a Minimum

   Optimization Cycle:   6

                       Coordinates (Angstroms)
     ATOM                X               Y               Z
      1  H         6.2377414469   -0.2694757335    0.1639830458
      2  H         5.3341445723    2.1971734887   -0.0965326129
      3  C         5.2064030232    0.0432404584    0.0758314664
      4  C         4.7086862132    1.3125919627   -0.0597827390
      5  S         3.9389212394   -1.1413577195    0.1010914174
      6  C         3.2881464856    1.3424417782   -0.1595245087
      7  H         2.7147062298    2.2530248487   -0.2931784869
      8  C         2.7046785372    0.0921576352   -0.0966284937
      9  H         1.3046524360   -2.3693402503   -0.6931353339
     10  C         1.3019914282   -0.2639898498   -0.1694797996
     11  C         0.7234420255   -1.4842300242   -0.4591836511
     12  S         0.0572747141    0.9338095507    0.1360779256
     13  C        -0.6933555914   -1.4624030432   -0.4476570219
     14  H        -1.3024770479   -2.3327241939   -0.6616940452
     15  C        -1.2294688602   -0.2225275782   -0.1536418834
     16  C        -2.6314226100    0.1434167160   -0.0688806839
     17  H        -3.6497138838   -1.7243280373   -0.5074046808
     18  C        -3.7314432915   -0.6714474821   -0.2644661330
     19  S        -3.1537027505    1.7769684739    0.3022536713
     20  C        -4.9741732496    0.0051241542   -0.1154283482
     21  C        -4.8263596034    1.3331447909    0.1906758291
     22  H        -5.9389428274   -0.4754098416   -0.2318959145
     23  H        -5.5930000557    2.0766390360    0.3590484212
   Point Group: c1    Number of degrees of freedom:    63


   Energy is  -1656.662624788

              Constraints and their Current Values
                                        Value     Constraint
   Dihedral:       13  15  16  18       -0.000        0.000
 Hessian Updated using BFGS Update

 56 Hessian modes will be used to form the next step
  Hessian Eigenvalues:
     0.006166    0.039546    0.045000    0.045000    0.045001    0.045002
     0.045002    0.045003    0.045005    0.045014    0.045016    0.045034
     0.045351    0.050778    0.158044    0.159938    0.159968    0.159995
     0.160033    0.160224    0.160996    0.212285    0.221360    0.224242
     0.231015    0.239123    0.242725    0.249991    0.250036    0.250713
     0.292539    0.293558    0.294362    0.298321    0.312562    0.314212
     0.324987    0.354729    0.354750    0.354789    0.355035    0.355165
     0.355401    0.358381    0.358763    0.384167    0.399179    0.406502
     0.410627    0.443794    0.459980    0.462004    0.479032    0.483809
     0.497448    0.500582

 Minimum Search - Taking Simple RFO Step
 Searching for Lamda that Minimizes Along All modes
 Value Taken    Lamda =  -0.00000132
 Step Taken.  Stepsize is  0.012948

                             Maximum     Tolerance    Cnvgd?
         Gradient           0.000094      0.000300     YES
         Displacement       0.008712      0.001200      NO
         Energy change     -0.000001      0.000001     YES

 Final energy is   -1656.66262478768     


 ******************************
 **  OPTIMIZATION CONVERGED  **
 ******************************

                       Coordinates (Angstroms)
     ATOM                X               Y               Z
      1  H         6.2377414469   -0.2694757335    0.1639830458
      2  H         5.3341445723    2.1971734887   -0.0965326129
      3  C         5.2064030232    0.0432404584    0.0758314664
      4  C         4.7086862132    1.3125919627   -0.0597827390
      5  S         3.9389212394   -1.1413577195    0.1010914174
      6  C         3.2881464856    1.3424417782   -0.1595245087
      7  H         2.7147062298    2.2530248487   -0.2931784869
      8  C         2.7046785372    0.0921576352   -0.0966284937
      9  H         1.3046524360   -2.3693402503   -0.6931353339
     10  C         1.3019914282   -0.2639898498   -0.1694797996
     11  C         0.7234420255   -1.4842300242   -0.4591836511
     12  S         0.0572747141    0.9338095507    0.1360779256
     13  C        -0.6933555914   -1.4624030432   -0.4476570219
     14  H        -1.3024770479   -2.3327241939   -0.6616940452
     15  C        -1.2294688602   -0.2225275782   -0.1536418834
     16  C        -2.6314226100    0.1434167160   -0.0688806839
     17  H        -3.6497138838   -1.7243280373   -0.5074046808
     18  C        -3.7314432915   -0.6714474821   -0.2644661330
     19  S        -3.1537027505    1.7769684739    0.3022536713
     20  C        -4.9741732496    0.0051241542   -0.1154283482
     21  C        -4.8263596034    1.3331447909    0.1906758291
     22  H        -5.9389428274   -0.4754098416   -0.2318959145
     23  H        -5.5930000557    2.0766390360    0.3590484212

Z-matrix Print:
$molecule
0 1
S 
C  1 1.754070
C  2 1.382445 1 109.992189
H  3 1.083651 2 122.979243 1 179.944772 0
C  3 1.417013 2 113.783827 1 -0.797769 0
H  5 1.084416 3 123.381568 2 -178.572904 0
C  5 1.381171 3 113.797457 2 0.235521 0
C  7 1.449027 5 129.285016 3 -179.691064 0
C  8 1.381159 7 128.986890 5 160.988655 0
H  9 1.084370 8 122.845523 7 -0.909931 0
C  9 1.424350 8 113.525553 7 -179.692143 0
H  11 1.083989 9 123.778072 8 179.569136 0
C  11 1.370170 9 112.869020 8 0.130672 0
H  13 1.081305 11 128.495820 9 179.492578 0
C  2 1.451404 1 122.189684 3 179.601705 0
C  15 1.382860 2 127.700569 1 -179.526195 0
H  16 1.083631 15 122.973497 2 0.450030 0
C  16 1.422793 15 113.564057 2 -179.578603 0
H  18 1.084093 16 123.729481 15 -179.948680 0
C  18 1.370835 16 112.947113 15 0.108844 0
H  20 1.081143 18 128.647655 16 -179.903941 0
S  20 1.734131 18 111.488442 16 -0.026586 0
S  13 1.735056 11 111.628496 9 -0.614673 0
$end

 
 --------------------------------------------------------------
 
                    Orbital Energies (a.u.)
 --------------------------------------------------------------
 
 Alpha MOs
 -- Occupied --
-88.922 -88.922 -88.921 -10.242 -10.241 -10.241 -10.240 -10.226
-10.226 -10.207 -10.206 -10.206 -10.206 -10.205 -10.204  -7.981
 -7.981  -7.980  -5.945  -5.945  -5.944  -5.942  -5.942  -5.941
 -5.938  -5.938  -5.937  -0.907  -0.893  -0.877  -0.788  -0.757
 -0.745  -0.745  -0.734  -0.697  -0.618  -0.597  -0.569  -0.564
 -0.538  -0.533  -0.530  -0.499  -0.463  -0.424  -0.421  -0.419
 -0.416  -0.409  -0.401  -0.397  -0.388  -0.376  -0.370  -0.363
 -0.351  -0.341  -0.299  -0.269  -0.263  -0.259  -0.250  -0.199
 -- Virtual --
 -0.073  -0.030  -0.015  -0.006  -0.004   0.003   0.008   0.011
  0.017   0.019   0.025   0.028   0.031   0.034   0.043   0.045
  0.048   0.053   0.055   0.057   0.066   0.069   0.076   0.081
  0.083   0.086   0.089   0.092   0.099   0.106   0.106   0.109
  0.113   0.115   0.121   0.125   0.126   0.130   0.132   0.134
  0.137   0.138   0.143   0.145   0.150   0.151   0.155   0.162
  0.165   0.170   0.171   0.177   0.181   0.183   0.188   0.191
  0.195   0.200   0.201   0.205   0.208   0.214   0.216   0.229
  0.233   0.240   0.242   0.246   0.251   0.258   0.263   0.265
  0.270   0.274   0.285   0.291   0.300   0.305   0.308   0.316
  0.323   0.328   0.332   0.346   0.349   0.359   0.370   0.371
  0.387   0.391   0.392   0.425   0.443   0.452   0.467   0.490
  0.503   0.519   0.530   0.538   0.564   0.573   0.578   0.593
  0.594   0.609   0.619   0.637   0.650   0.654   0.657   0.661
  0.665   0.671   0.674   0.688   0.695   0.710   0.716   0.717
  0.721   0.724   0.736   0.749   0.764   0.776   0.780   0.790
  0.813   0.816   0.824   0.832   0.839   0.849   0.878   0.898
  0.928   0.935   0.939   0.944   0.958   0.960   0.965   0.971
  0.974   0.984   0.995   0.998   1.010   1.013   1.027   1.042
  1.045   1.056   1.071   1.085   1.096   1.105   1.113   1.126
  1.142   1.159   1.164   1.186   1.191   1.207   1.229   1.243
  1.260   1.280   1.283   1.323   1.339   1.340   1.345   1.353
  1.360   1.362   1.371   1.448   1.467   1.490   1.507   1.518
  1.548   1.567   1.587   1.602   1.652   1.688   1.700   1.726
  1.789   1.827   1.854   1.872   1.890   1.900   1.912   1.918
  1.932   1.955   1.981   1.988   1.998   2.023   2.054   2.073
  2.080   2.092   2.122   2.146   2.162   2.177   2.189   2.213
  2.227   2.237   2.264   2.273   2.298   2.330   2.361   2.364
  2.412   2.427   2.452   2.459   2.466   2.483   2.489   2.503
  2.525   2.531   2.545   2.550   2.573   2.584   2.609   2.636
  2.665   2.688   2.705   2.720   2.728   2.788   2.855   2.869
  2.904   2.937   2.973   2.994   3.126   3.181   3.231   3.272
  3.273   3.324   3.412   3.419   3.665   3.733   3.745   3.943
  3.978   4.021   4.247   4.273   4.299   4.319   4.339   4.347
  4.386   4.476   4.560   4.635   4.700   4.743
 --------------------------------------------------------------
 
          Ground-State Mulliken Net Atomic Charges

     Atom                 Charge (a.u.)
  ----------------------------------------
      1 H                     0.195524
      2 H                     0.120405
      3 C                     0.006915
      4 C                    -0.333576
      5 S                    -0.067556
      6 C                     0.454098
      7 H                     0.130677
      8 C                    -0.304662
      9 H                     0.121470
     10 C                    -0.178713
     11 C                    -0.080780
     12 S                    -0.417588
     13 C                     0.175801
     14 H                     0.104103
     15 C                     0.025212
     16 C                    -0.192631
     17 H                     0.099218
     18 C                     0.323845
     19 S                    -0.062421
     20 C                    -0.439883
     21 C                    -0.003083
     22 H                     0.120117
     23 H                     0.203509
  ----------------------------------------
  Sum of atomic charges =     0.000000

 -----------------------------------------------------------------
                    Cartesian Multipole Moments
 -----------------------------------------------------------------
    Charge (ESU x 10^10)
                 0.0000
    Dipole Moment (Debye)
         X      -0.2646      Y      -0.4289      Z      -0.3265
       Tot       0.6005
    Quadrupole Moments (Debye-Ang)
        XX     -89.2129     XY       2.3650     YY    -101.0828
        XZ       0.4125     YZ       2.0944     ZZ    -116.2523
    Octopole Moments (Debye-Ang^2)
       XXX     -25.2487    XXY      -4.9807    XYY     -13.5037
       YYY     -60.9412    XXZ       7.5480    XYZ      -8.2035
       YYZ       0.0572    XZZ     -10.8169    YZZ     -23.0195
       ZZZ      12.5790
    Hexadecapole Moments (Debye-Ang^3)
      XXXX   -6187.5361   XXXY     209.2417   XXYY   -1237.9776
      XYYY     268.4298   YYYY    -935.3960   XXXZ      40.2370
      XXYZ       7.0293   XYYZ      -3.5624   YYYZ     -38.9093
      XXZZ   -1356.7676   XYZZ      85.5488   YYZZ    -205.8909
      XZZZ      18.3231   YZZZ     -57.6004   ZZZZ    -190.4362
 -----------------------------------------------------------------
Archival summary:
1\1\nid00478\OPT\ProcedureUnspecified\BasisUnspecified\3128\bwood\TueMay3010:54:222017TueMay3010:54:222017\0\\#,OPT,ProcedureUnspecified,BasisUnspecified,\\0,1\S\C,1,1.75407\C,2,1.38244,1,109.992\H,3,1.08365,2,122.979,1,179.945,0\C,3,1.41701,2,113.784,1,-0.797769,0\H,5,1.08442,3,123.382,2,-178.573,0\C,5,1.38117,3,113.797,2,0.235521,0\C,7,1.44903,5,129.285,3,-179.691,0\C,8,1.38116,7,128.987,5,160.989,0\H,9,1.08437,8,122.846,7,-0.909931,0\C,9,1.42435,8,113.526,7,-179.692,0\H,11,1.08399,9,123.778,8,179.569,0\C,11,1.37017,9,112.869,8,0.130672,0\H,13,1.08131,11,128.496,9,179.493,0\C,2,1.4514,1,122.19,3,179.602,0\C,15,1.38286,2,127.701,1,-179.526,0\H,16,1.08363,15,122.973,2,0.45003,0\C,16,1.42279,15,113.564,2,-179.579,0\H,18,1.08409,16,123.729,15,-179.949,0\C,18,1.37083,16,112.947,15,0.108844,0\H,20,1.08114,18,128.648,16,-179.904,0\S,20,1.73413,18,111.488,16,-0.0265861,0\S,13,1.73506,11,111.628,9,-0.614673,0\\\@

 Total job time:  101.17s(wall), 108.34s(cpu) 
 Tue May 30 10:54:22 2017

        *************************************************************
        *                                                           *
        *  Thank you very much for using Q-Chem.  Have a nice day.  *
        *                                                           *
        *************************************************************


0 sent ACK to 0 
now end server 0 ... 
