srun -N 1 --ntasks-per-node 22 --cpus-per-task 2 --cpu_bind=cores --nodelist nid00497 /global/project/projectdirs/jcesr/qchem/qc44/cnl_qc441/dist/exe/qcprog.cori.haswell.exe .pt_nn_neutral_150.0.in.37271.qcin.1 /dev/shm/eg_qchem/qchem37271/
Process 1 of 22 is on nid00497 - thread support 0
Process 2 of 22 is on nid00497 - thread support 0
Process 3 of 22 is on nid00497 - thread support 0
Process 4 of 22 is on nid00497 - thread support 0
Process 6 of 22 is on nid00497 - thread support 0
Process 0 of 22 is on nid00497 - thread support 0
Process 5 of 22 is on nid00497 - thread support 0
Process 21 of 22 is on nid00497 - thread support 0
initial socket setup ...start
initial socket setup ...done 
now start server 0 ... 
nid00497 10.128.1
Q-Chem Developer Version! Running on 10.128.1.*
                  Welcome to Q-Chem
     A Quantum Leap Into The Future Of Chemistry


 Q-Chem 4.4, Q-Chem, Inc., Pleasanton, CA (2016)

 Y. Shao,  Z. Gan,  E. Epifanovsky,  A. T. B. Gilbert,  M. Wormit,  
 J. Kussmann,  A. W. Lange,  A. Behn,  J. Deng,  X. Feng,  D. Ghosh,  
 M. Goldey,  P. R. Horn,  L. D. Jacobson,  I. Kaliman,  F. Rob,  
 R. Z. Khaliullin,  T. Kus,  A. Landau,  J. Liu,  E. I. Proynov,  Y. M. Rhee,  
 R. M. Richard,  M. A. Rohrdanz,  R. P. Steele,  E. J. Sundstrom,  
 H. L. Woodcock III,  P. M. Zimmerman,  D. Zuev,  B. Albrecht,  E. Alguire,  
 B. Austin,  S. A. Baeppler,  G. J. O. Beran,  Y. A. Bernard,  
 E. J. Berquist,  K. Brandhorst,  K. B. Bravaya,  S. T. Brown,  D. Casanova,  
 C.-M. Chang,  Y. Chen,  S. H. Chien,  K. D. Closser,  M. P. Coons,  
 D. L. Crittenden,  S. Dasgupta,  M. Diedenhofen,  R. A. DiStasio Jr.,  
 H. Do,  A. D. Dutoi,  R. G. Edgar,  P.-T. Fang,  S. Fatehi,  Q. Feng,  
 L. Fusti-Molnar,  A. Ghysels,  A. Golubeva-Zadorozhnaya,  J. Gomes,  
 A. Gunina,  M. W. D. Hanson-Heine,  P. H. P. Harbach,  A. W. Hauser,  
 J. E. Herr,  E. G. Hohenstein,  Z. C. Holden,  K. Hui,  T.-C. Jagau,  H. Ji,  
 B. Kaduk,  K. Khistyaev,  Jaehoon Kim,  Jihan Kim,  R. A. King,  
 P. Klunzinger,  K. Koh,  D. Kosenkov,  T. Kowalczyk,  C. M. Krauter,  
 A. Kunitsa,  K. U. Lao,  A. Laurent,  K. V. Lawler,  J. Lee,  D. Lefrancois,  
 S. Lehtola,  S. V. Levchenko,  C. Y. Lin,  Y.-S. Lin,  F. Liu,  E. Livshits,  
 R. C. Lochan,  A. Luenser,  P. Manohar,  S. F. Manzer,  S.-P. Mao,  Y. Mao,  
 N. Mardirossian,  A. V. Marenich,  L. A. Martinez-Martinez,  S. A. Maurer,  
 N. J. Mayhall,  J.-M. Mewes,  A. F. Morrison,  K. Nanda,  T. S. Nguyen-Beck,  
 C. M. Oana,  R. Olivares-Amaya,  D. P. O'Neill,  J. A. Parkhill,  
 T. M. Perrine,  R. Peverati,  P. A. Pieniazek,  F. Plasser,  A. Prociuk,  
 D. R. Rehn,  E. Rosta,  N. J. Russ,  N. Sergueev,  S. M. Sharada,  
 S. Sharma,  D. W. Small,  A. Sodt,  T. Stauch,  T. Stein,  D. Stuck,  
 Y.-C. Su,  A. J. W. Thom,  T. Tsuchimochi,  L. Vogt,  O. Vydrov,  T. Wang,  
 M. A. Watson,  J. Wenzel,  A. White,  C. F. Williams,  V. Vanovschi,  
 K. Yao,  S. Yeganeh,  S. R. Yost,  Z.-Q. You,  I. Y. Zhang,  X. Zhang,  
 Y. Zhao,  B. R. Brooks,  G. K. L. Chan,  D. M. Chipman,  C. J. Cramer,  
 W. A. Goddard III,  M. S. Gordon,  W. J. Hehre,  A. Klamt,  
 H. F. Schaefer III,  M. W. Schmidt,  C. D. Sherrill,  D. G. Truhlar,  
 A. Warshel,  X. Xu,  A. Aspuru-Guzik,  R. Baer,  A. T. Bell,  N. A. Besley,  
 J.-D. Chai,  A. Dreuw,  B. D. Dunietz,  T. R. Furlani,  S. R. Gwaltney,  
 C.-P. Hsu,  Y. Jung,  J. Kong,  D. S. Lambrecht,  W. Liang,  C. Ochsenfeld,  
 V. A. Rassolov,  L. V. Slipchenko,  J. E. Subotnik,  T. Van Voorhis,  
 J. M. Herbert,  A. I. Krylov,  P. M. W. Gill,  M. Head-Gordon

 Contributors to earlier versions of Q-Chem not listed above: 
 R. D. Adamson,  J. Baker,  E. F. C. Byrd,  A. K. Chakraborty,  C.-L. Cheng,  
 H. Dachsel,  R. J. Doerksen,  G. Hawkins,  A. Heyden,  S. Hirata,  
 G. Kedziora,  F. J. Keil,  C. Kelley,  P. P. Korambath,  W. Kurlancheek,  
 A. M. Lee,  M. S. Lee,  D. Liotard,  I. Lotan,  P. E. Maslen,  N. Nair,  
 D. Neuhauser,  R. Olson,  B. Peters,  J. Ritchie,  N. E. Schultz,  
 N. Shenvi,  A. C. Simmonett,  K. S. Thanthiriwatte,  Q. Wu,  W. Zhang

 Please cite Q-Chem as follows:
 Y. Shao et al., Mol. Phys. 113, 184-215 (2015)
 DOI: 10.1080/00268976.2014.952696

 Q-Chem 4.4.2 for Intel X86 EM64T Linux

 Parts of Q-Chem use Armadillo 5.200.1 (Boston Tea Smuggler).
 http://arma.sourceforge.net/

 Q-Chem begins on Tue May 30 10:52:43 2017  

Host: nid00478
0

     Scratch files written to /dev/shm/eg_qchem/qchem37271.0//
 Parallel job on  22  processors

Checking the input file for inconsistencies... 	...done.

--------------------------------------------------------------
User input:
--------------------------------------------------------------
$molecule
 0  1
 H           6.23254100       -0.22338900        0.17638100
 H           5.29752400        2.22850500       -0.10953100
 C           5.19733500        0.07486000        0.08356300
 C           4.68347900        1.33634400       -0.06443600
 S           3.94559900       -1.12581000        0.11905200
 C           3.26267300        1.34659400       -0.16511200
 H           2.67740100        2.24810800       -0.30841700
 C           2.69562400        0.08941900       -0.09094600
 H           1.33241900       -2.39005500       -0.68762600
 C           1.29739300       -0.28590200       -0.16150800
 C           0.73808300       -1.51455700       -0.45078400
 S           0.03601800        0.89451200        0.14982500
 C          -0.68041100       -1.51067300       -0.44936800
 H          -1.28012400       -2.38277100       -0.68510300
 C          -1.23220500       -0.27900200       -0.15852500
 C          -2.62830100        0.10383400       -0.08465000
 H          -2.66170258        1.71065547        1.37291540
 C          -3.22250430        1.07657574        0.69523088
 S          -3.83739305       -0.70316529       -1.06952019
 C          -4.62944623        1.18164941        0.49904811
 C          -5.10511856        0.29280084       -0.42884059
 H          -5.25917182        1.89429366        1.01926497
 H          -6.12123316        0.15973159       -0.77383473
$end


$rem
         jobtype = opt
        exchange = b3lyp
           basis = 6-31++g**
  max_scf_cycles = 150
      mem_static = 281
       mem_total = 2818
      sym_ignore = true
        symmetry = false
          thresh = 12
$end


$opt
CONSTRAINT
tors 13 15 16 18 150.0
ENDCONSTRAINT
$end

--------------------------------------------------------------
 ----------------------------------------------------------------
             Standard Nuclear Orientation (Angstroms)
    I     Atom           X                Y                Z
 ----------------------------------------------------------------
    1      H       6.2325410000    -0.2233890000     0.1763810000
    2      H       5.2975240000     2.2285050000    -0.1095310000
    3      C       5.1973350000     0.0748600000     0.0835630000
    4      C       4.6834790000     1.3363440000    -0.0644360000
    5      S       3.9455990000    -1.1258100000     0.1190520000
    6      C       3.2626730000     1.3465940000    -0.1651120000
    7      H       2.6774010000     2.2481080000    -0.3084170000
    8      C       2.6956240000     0.0894190000    -0.0909460000
    9      H       1.3324190000    -2.3900550000    -0.6876260000
   10      C       1.2973930000    -0.2859020000    -0.1615080000
   11      C       0.7380830000    -1.5145570000    -0.4507840000
   12      S       0.0360180000     0.8945120000     0.1498250000
   13      C      -0.6804110000    -1.5106730000    -0.4493680000
   14      H      -1.2801240000    -2.3827710000    -0.6851030000
   15      C      -1.2322050000    -0.2790020000    -0.1585250000
   16      C      -2.6283010000     0.1038340000    -0.0846500000
   17      H      -2.6617025800     1.7106554700     1.3729154000
   18      C      -3.2225043000     1.0765757400     0.6952308800
   19      S      -3.8373930500    -0.7031652900    -1.0695201900
   20      C      -4.6294462300     1.1816494100     0.4990481100
   21      C      -5.1051185600     0.2928008400    -0.4288405900
   22      H      -5.2591718200     1.8942936600     1.0192649700
   23      H      -6.1212331600     0.1597315900    -0.7738347300
 ----------------------------------------------------------------
 Nuclear Repulsion Energy =  1172.9869325238 hartrees
 There are       64 alpha and       64 beta electrons
 Requested basis set is 6-31++G(d,p)
 There are 110 shells and 345 basis functions

 Total QAlloc Memory Limit   2818 MB
 Mega-Array Size       275 MB
 MEM_STATIC part       281 MB
 A cutoff of  1.0D-12 yielded   4681 shell pairs
 There are     47609 function pairs

 Q-Chem warning in module /project/projectdirs/jcesr/qchem/qc44/cnl_qc441/compile/cori/qc_src/libqints/qchem/aobasis.C, line 68:

 Using reconstructed effective core potential

 
 -------------------------------------------------------
 OpenMP Integral Computing Module                       
 Release: version 1.0, May 2013, Q-Chem Inc. Pittsburgh 
 -------------------------------------------------------
 Integral Job Info:
 Integral job number is                      11
 Integral operator is                         1
 short-range coefficients                     0
 long-range coefficients              100000000
 Omega coefficients                           0
 if combine SR and LR in K                    0
 Integral screening is                        0
 Integral computing path is                   2
 max size of driver memory is            800000
 size of driver memory is                593474
 size of scratch memory is             15166112
 max col of scratch BK array               1296
 max len of scratch array in speh3          155
 max len of scratch index in speh4           18
 max int batch size is                      520
 min int batch size is                       52
 fixed nKL is                                52
 max L of basis functions is                  2
 order of int derivative is                   0
 number of shells is                        110
 number of basis is                         345
 number of cartesian basis is               345
 number of contracted shell pairs          4681
 number of primitive shell pairs          14640
 maxK2 (contraction) of shell pair           36
 max number of K2 of shell pair               1
 max number of CS2 of shell pair            518
 max number of PS2 of shell pair           3036
 mem total for path MDJ                  101082
 -------------------------------------------------------
 Smallest overlap matrix eigenvalue = 7.29E-08
 Linear dependence detected in AO basis
 Number of orthogonalized atomic orbitals = 343
 Maximum deviation from orthogonality = 1.071E-10

 Scale SEOQF with 1.000000e-02/1.000000e-01/1.000000e-01

 Standard Electronic Orientation quadrupole field applied
 Nucleus-field energy     =     0.0000000114 hartrees
 Guess from superposition of atomic densities
 Warning:  Energy on first SCF cycle will be non-variational
 A restricted hybrid HF-DFT SCF calculation will be
 performed using Pulay DIIS extrapolation
 Exchange:     0.2000 Hartree-Fock + 0.0800 Slater + 0.7200 B88
 Correlation:  0.1900 VWN1RPA + 0.8100 LYP
 Using SG-1 standard quadrature grid
 SCF converges when DIIS error is below 1.0E-08
 ---------------------------------------
  Cycle       Energy         DIIS Error
 ---------------------------------------
    1   -1660.2959132396      3.68E-02
    2   -1656.4161176803      3.85E-03
    3   -1656.0858017999      5.79E-03
    4   -1656.6451457194      1.05E-03
    5   -1656.6584355983      5.78E-04
    6   -1656.6634595970      1.66E-04
    7   -1656.6638674020      6.83E-05
    8   -1656.6639372249      1.36E-05
    9   -1656.6639398059      5.23E-06
   10   -1656.6639402366      1.84E-06
   11   -1656.6639402967      3.79E-07
   12   -1656.6639402989      2.59E-07
   13   -1656.6639402995      6.98E-08
   14   -1656.6639403006      1.91E-08
   15   -1656.6639402990      2.83E-09 Convergence criterion met
 ---------------------------------------
 SCF time:  CPU 16.22 s  wall 15.06 s
 SCF   energy in the final basis set = -1656.6639402990
 Total energy in the final basis set = -1656.6639402990
 
 --------------------------------------------------------------
 
                    Orbital Energies (a.u.)
 --------------------------------------------------------------
 
 Alpha MOs
 -- Occupied --
-88.921 -88.921 -88.921 -10.241 -10.241 -10.241 -10.240 -10.226
-10.226 -10.206 -10.206 -10.206 -10.206 -10.205 -10.205  -7.981
 -7.981  -7.981  -5.945  -5.945  -5.945  -5.941  -5.941  -5.941
 -5.938  -5.938  -5.937  -0.907  -0.892  -0.876  -0.787  -0.756
 -0.745  -0.745  -0.732  -0.698  -0.618  -0.597  -0.570  -0.560
 -0.536  -0.535  -0.529  -0.502  -0.462  -0.423  -0.421  -0.417
 -0.416  -0.408  -0.402  -0.400  -0.386  -0.378  -0.370  -0.361
 -0.350  -0.344  -0.295  -0.267  -0.263  -0.260  -0.248  -0.202
 -- Virtual --
 -0.070  -0.032  -0.007  -0.006  -0.001   0.005   0.006   0.008
  0.012   0.016   0.024   0.028   0.030   0.032   0.042   0.043
  0.047   0.050   0.053   0.055   0.059   0.061   0.071   0.077
  0.085   0.087   0.089   0.093   0.101   0.105   0.108   0.109
  0.114   0.116   0.119   0.123   0.126   0.127   0.130   0.132
  0.135   0.141   0.145   0.147   0.148   0.150   0.155   0.159
  0.163   0.164   0.170   0.172   0.178   0.182   0.183   0.191
  0.194   0.199   0.203   0.213   0.214   0.217   0.220   0.223
  0.224   0.231   0.234   0.244   0.249   0.252   0.262   0.267
  0.269   0.272   0.277   0.280   0.284   0.286   0.291   0.301
  0.315   0.323   0.327   0.331   0.343   0.352   0.356   0.361
  0.366   0.374   0.384   0.395   0.398   0.453   0.455   0.458
  0.498   0.509   0.520   0.532   0.536   0.560   0.571   0.580
  0.582   0.598   0.611   0.622   0.629   0.647   0.655   0.657
  0.661   0.665   0.668   0.686   0.692   0.699   0.714   0.717
  0.722   0.726   0.734   0.742   0.757   0.761   0.779   0.788
  0.789   0.818   0.821   0.828   0.833   0.840   0.849   0.869
  0.890   0.932   0.932   0.940   0.953   0.954   0.959   0.962
  0.967   0.974   0.981   0.986   0.993   0.996   1.008   1.028
  1.038   1.046   1.055   1.069   1.083   1.089   1.104   1.108
  1.109   1.134   1.150   1.164   1.167   1.183   1.200   1.225
  1.256   1.260   1.266   1.290   1.308   1.331   1.344   1.348
  1.350   1.361   1.362   1.377   1.445   1.459   1.489   1.491
  1.516   1.517   1.544   1.574   1.619   1.681   1.691   1.714
  1.746   1.796   1.837   1.857   1.867   1.886   1.890   1.908
  1.916   1.923   1.939   1.960   1.974   2.008   2.033   2.066
  2.068   2.079   2.098   2.113   2.152   2.175   2.180   2.196
  2.204   2.222   2.236   2.259   2.282   2.292   2.330   2.363
  2.366   2.420   2.438   2.444   2.450   2.462   2.470   2.481
  2.500   2.522   2.532   2.536   2.544   2.577   2.589   2.606
  2.628   2.667   2.683   2.705   2.710   2.726   2.822   2.864
  2.879   2.905   2.923   2.937   2.948   3.130   3.177   3.217
  3.271   3.272   3.326   3.414   3.415   3.673   3.730   3.738
  3.971   3.980   3.981   4.256   4.263   4.305   4.320   4.324
  4.352   4.391   4.482   4.548   4.646   4.695   4.727
 --------------------------------------------------------------
 
          Ground-State Mulliken Net Atomic Charges

     Atom                 Charge (a.u.)
  ----------------------------------------
      1 H                     0.196492
      2 H                     0.119444
      3 C                     0.032200
      4 C                    -0.337542
      5 S                    -0.119916
      6 C                     0.573229
      7 H                     0.130291
      8 C                    -0.484897
      9 H                     0.120493
     10 C                    -0.097728
     11 C                    -0.068730
     12 S                    -0.236569
     13 C                     0.078193
     14 H                     0.125188
     15 C                    -0.117109
     16 C                    -0.494415
     17 H                     0.134316
     18 C                     0.500134
     19 S                    -0.083587
     20 C                    -0.323245
     21 C                     0.040092
     22 H                     0.118213
     23 H                     0.195453
  ----------------------------------------
  Sum of atomic charges =     0.000000

 -----------------------------------------------------------------
                    Cartesian Multipole Moments
 -----------------------------------------------------------------
    Charge (ESU x 10^10)
                 0.0000
    Dipole Moment (Debye)
         X      -0.0073      Y       0.4513      Z       0.0952
       Tot       0.4612
    Quadrupole Moments (Debye-Ang)
        XX     -90.4056     XY      -0.2395     YY    -103.0602
        XZ       0.0157     YZ       3.4459     ZZ    -114.0635
    Octopole Moments (Debye-Ang^2)
       XXX      -8.2054    XXY      20.8098    XYY       5.1740
       YYY      -0.2170    XXZ      12.0662    XYZ     -12.5614
       YYZ      14.3649    XZZ     -14.7770    YZZ       0.2945
       ZZZ      46.7413
    Hexadecapole Moments (Debye-Ang^3)
      XXXX   -6340.6365   XXXY      12.2704   XXYY   -1314.2038
      XYYY      81.8202   YYYY    -760.1827   XXXZ     -28.9895
      XXYZ      13.5188   XYYZ     -63.6742   YYYZ     -63.0343
      XXZZ   -1358.8312   XYZZ       9.2783   YYZZ    -185.4988
      XZZZ    -126.4128   YZZZ     -77.9255   ZZZZ    -311.3524
 -----------------------------------------------------------------
 Calculating analytic gradient of the SCF energy
 Gradient of SCF Energy
            1           2           3           4           5           6
    1  -0.0000242   0.0000061   0.0000429  -0.0000544  -0.0001280   0.0001428
    2  -0.0000097  -0.0000036   0.0000780  -0.0000103  -0.0000808   0.0002046
    3   0.0000761   0.0000018   0.0000062  -0.0000743  -0.0000384   0.0000628
            7           8           9          10          11          12
    1   0.0000054  -0.0004145  -0.0000155   0.0003999  -0.0003490   0.0000849
    2  -0.0000156   0.0000565   0.0000373   0.0001652  -0.0004575  -0.0002013
    3   0.0000015  -0.0006540  -0.0001071  -0.0016998   0.0015561   0.0013174
           13          14          15          16          17          18
    1   0.0004126   0.0001937  -0.0014115   0.0018910   0.0000249  -0.0007893
    2  -0.0009396   0.0002298   0.0013784   0.0005459   0.0010517  -0.0017476
    3   0.0027558  -0.0014072  -0.0017154  -0.0018331  -0.0010879   0.0024431
           19          20          21          22          23
    1  -0.0003651  -0.0001213   0.0002477   0.0000317   0.0001891
    2  -0.0011031  -0.0011124   0.0014187   0.0000764   0.0004391
    3   0.0009106   0.0011421  -0.0010820  -0.0000668  -0.0005075
 Max gradient component =       2.756E-03
 RMS gradient           =       8.809E-04
 Gradient time:  CPU 4.66 s  wall 4.66 s
 Geometry Optimization Parameters
   NAtoms,    NIC,     NZ,  NCons,   NDum,   NFix, NCnnct, MaxDiis
       23     166       0       1       0       0       0       0


** CONSTRAINED OPTIMIZATION IN DELOCALIZED INTERNAL COORDINATES **
   Searching for a Minimum

   Optimization Cycle:   1

                       Coordinates (Angstroms)
     ATOM                X               Y               Z
      1  H         6.2325410000   -0.2233890000    0.1763810000
      2  H         5.2975240000    2.2285050000   -0.1095310000
      3  C         5.1973350000    0.0748600000    0.0835630000
      4  C         4.6834790000    1.3363440000   -0.0644360000
      5  S         3.9455990000   -1.1258100000    0.1190520000
      6  C         3.2626730000    1.3465940000   -0.1651120000
      7  H         2.6774010000    2.2481080000   -0.3084170000
      8  C         2.6956240000    0.0894190000   -0.0909460000
      9  H         1.3324190000   -2.3900550000   -0.6876260000
     10  C         1.2973930000   -0.2859020000   -0.1615080000
     11  C         0.7380830000   -1.5145570000   -0.4507840000
     12  S         0.0360180000    0.8945120000    0.1498250000
     13  C        -0.6804110000   -1.5106730000   -0.4493680000
     14  H        -1.2801240000   -2.3827710000   -0.6851030000
     15  C        -1.2322050000   -0.2790020000   -0.1585250000
     16  C        -2.6283010000    0.1038340000   -0.0846500000
     17  H        -2.6617025800    1.7106554700    1.3729154000
     18  C        -3.2225043000    1.0765757400    0.6952308800
     19  S        -3.8373930500   -0.7031652900   -1.0695201900
     20  C        -4.6294462300    1.1816494100    0.4990481100
     21  C        -5.1051185600    0.2928008400   -0.4288405900
     22  H        -5.2591718200    1.8942936600    1.0192649700
     23  H        -6.1212331600    0.1597315900   -0.7738347300
   Point Group: c1    Number of degrees of freedom:    63


   Energy is  -1656.663940299

              Constraints and their Current Values
                                        Value     Constraint
   Dihedral:       13  15  16  18      150.000      150.000

 Attempting to Generate Delocalized Internal Coordinates

 62 Hessian modes will be used to form the next step
  Hessian Eigenvalues:
     0.045000    0.045000    0.045000    0.045000    0.045000    0.045000
     0.045000    0.045000    0.045000    0.045001    0.045002    0.045002
     0.045003    0.045003    0.045009    0.045010    0.045011    0.045018
     0.045019    0.159886    0.159939    0.159955    0.159957    0.159992
     0.159993    0.160000    0.160000    0.221281    0.221281    0.226855
     0.237826    0.237826    0.245311    0.249998    0.249998    0.250000
     0.250000    0.293636    0.293684    0.294746    0.294936    0.312571
     0.312615    0.354732    0.354740    0.354742    0.354756    0.355161
     0.355164    0.358372    0.358373    0.383080    0.383176    0.405793
     0.405832    0.413732    0.458107    0.461989    0.461995    0.485493
     0.497291    0.497294

 Minimum Search - Taking Simple RFO Step
 Searching for Lamda that Minimizes Along All modes
 Value Taken    Lamda =  -0.00036109
 Step Taken.  Stepsize is  0.088315

                             Maximum     Tolerance    Cnvgd?
         Gradient           0.001906      0.000300      NO
         Displacement       0.042314      0.001200      NO
         Energy change     *********      0.000001      NO


 New Cartesian Coordinates Obtained by Inverse Iteration

 Displacement from previous Coordinates is:  0.281766
 ----------------------------------------------------------------
             Standard Nuclear Orientation (Angstroms)
    I     Atom           X                Y                Z
 ----------------------------------------------------------------
    1      H       6.2289007462    -0.2346163112     0.2191997920
    2      H       5.3078662115     2.2194266298    -0.0923029646
    3      C       5.1961233483     0.0673963198     0.1123244106
    4      C       4.6895281191     1.3301294696    -0.0493658650
    5      S       3.9388344330    -1.1275157945     0.1396573468
    6      C       3.2701419424     1.3456654188    -0.1686482374
    7      H       2.6907249559     2.2487395413    -0.3254696646
    8      C       2.6967627230     0.0916066701    -0.0942904850
    9      H       1.3307445556    -2.3843992662    -0.6987950833
   10      C       1.2973796408    -0.2776227540    -0.1827091255
   11      C       0.7369095725    -1.5049499515    -0.4756274350
   12      S       0.0366795246     0.9105597300     0.0995918464
   13      C      -0.6820602730    -1.4999427142    -0.4744118442
   14      H      -1.2840388888    -2.3759421509    -0.6888473253
   15      C      -1.2323109963    -0.2671901623    -0.1880808209
   16      C      -2.6297542995     0.1144636596    -0.1023601838
   17      H      -2.6502203055     1.7274814818     1.3469850990
   18      C      -3.2170373444     1.0922675560     0.6752688006
   19      S      -3.8472110948    -0.7049052051    -1.0658869567
   20      C      -4.6288343205     1.1814575983     0.5054779538
   21      C      -5.1153894169     0.2693276679    -0.3940233673
   22      H      -5.2565290884     1.8882420644     1.0360418708
   23      H      -6.1387314447     0.1128789222    -0.7066489116
 ----------------------------------------------------------------
 Nuclear Repulsion Energy =  1172.8194867568 hartrees
 There are       64 alpha and       64 beta electrons
 Applying Cartesian multipole field
    Component          Value
    ---------          -----
     (2,0,0)        1.00000E-12
     (0,2,0)        2.00000E-11
     (0,0,2)       -3.00000E-11
 Nucleus-field energy     =     0.0000000114 hartrees
 Requested basis set is 6-31++G(d,p)
 There are 110 shells and 345 basis functions
 A cutoff of  1.0D-12 yielded   4682 shell pairs
 There are     47610 function pairs

 Q-Chem warning in module /project/projectdirs/jcesr/qchem/qc44/cnl_qc441/compile/cori/qc_src/libqints/qchem/aobasis.C, line 68:

 Using reconstructed effective core potential

 Smallest overlap matrix eigenvalue = 7.41E-08
 Linear dependence detected in AO basis
 Number of orthogonalized atomic orbitals = 343
 Maximum deviation from orthogonality = 2.570E-10
 Guess MOs from SCF MO coefficient file
 Reading MOs from coefficient file
 Reading MOs from coefficient file
 A restricted hybrid HF-DFT SCF calculation will be
 performed using Pulay DIIS extrapolation
 Exchange:     0.2000 Hartree-Fock + 0.0800 Slater + 0.7200 B88
 Correlation:  0.1900 VWN1RPA + 0.8100 LYP
 Using SG-1 standard quadrature grid
 SCF converges when DIIS error is below 1.0E-08
 Geometry optimization detected.  Setting ReadMinima to 0
 Setting SaveMinima to 0
 ---------------------------------------
  Cycle       Energy         DIIS Error
 ---------------------------------------
    1   -1656.6645212482      6.37E-04
    2   -1656.6640656869      7.21E-05
    3   -1656.6637525335      1.58E-04
    4   -1656.6641660371      1.66E-05
    5   -1656.6641689863      9.67E-06
    6   -1656.6641703848      2.90E-06
    7   -1656.6641705142      1.04E-06
    8   -1656.6641705284      3.35E-07
    9   -1656.6641705295      1.05E-07
   10   -1656.6641705294      3.66E-08
   11   -1656.6641705282      1.28E-08
   12   -1656.6641705292      5.43E-09 Convergence criterion met
 ---------------------------------------
 SCF time:  CPU 13.37 s  wall 12.28 s
 SCF   energy in the final basis set = -1656.6641705292
 Total energy in the final basis set = -1656.6641705292
 
 --------------------------------------------------------------
 
                    Orbital Energies (a.u.)
 --------------------------------------------------------------
 
 Alpha MOs
 -- Occupied --
-88.921 -88.921 -88.921 -10.241 -10.241 -10.241 -10.240 -10.226
-10.226 -10.206 -10.206 -10.206 -10.206 -10.205 -10.205  -7.981
 -7.981  -7.981  -5.945  -5.945  -5.945  -5.941  -5.941  -5.941
 -5.938  -5.938  -5.937  -0.907  -0.892  -0.876  -0.787  -0.756
 -0.745  -0.745  -0.732  -0.698  -0.618  -0.597  -0.570  -0.560
 -0.536  -0.535  -0.529  -0.502  -0.462  -0.423  -0.421  -0.417
 -0.415  -0.408  -0.402  -0.400  -0.386  -0.378  -0.370  -0.361
 -0.350  -0.344  -0.295  -0.267  -0.263  -0.261  -0.248  -0.203
 -- Virtual --
 -0.070  -0.032  -0.007  -0.006  -0.001   0.005   0.007   0.008
  0.012   0.016   0.024   0.028   0.029   0.032   0.041   0.042
  0.047   0.050   0.053   0.055   0.059   0.061   0.071   0.077
  0.084   0.087   0.089   0.093   0.101   0.105   0.108   0.109
  0.114   0.116   0.119   0.123   0.126   0.127   0.130   0.132
  0.135   0.141   0.146   0.147   0.148   0.150   0.155   0.159
  0.164   0.164   0.170   0.172   0.178   0.182   0.183   0.190
  0.194   0.198   0.203   0.213   0.214   0.217   0.220   0.222
  0.224   0.231   0.233   0.244   0.249   0.252   0.262   0.266
  0.269   0.272   0.276   0.280   0.283   0.286   0.291   0.301
  0.315   0.322   0.326   0.331   0.343   0.352   0.357   0.360
  0.366   0.374   0.384   0.395   0.398   0.453   0.455   0.460
  0.498   0.509   0.520   0.532   0.536   0.560   0.571   0.579
  0.581   0.598   0.611   0.622   0.628   0.647   0.655   0.657
  0.661   0.665   0.669   0.686   0.692   0.699   0.715   0.716
  0.722   0.726   0.733   0.742   0.757   0.762   0.779   0.788
  0.789   0.818   0.821   0.829   0.832   0.840   0.850   0.868
  0.890   0.932   0.933   0.940   0.954   0.955   0.960   0.961
  0.967   0.974   0.981   0.986   0.993   0.996   1.008   1.028
  1.038   1.047   1.055   1.069   1.083   1.089   1.104   1.107
  1.109   1.134   1.150   1.164   1.167   1.183   1.202   1.224
  1.256   1.259   1.265   1.290   1.313   1.330   1.343   1.347
  1.353   1.359   1.363   1.376   1.447   1.458   1.489   1.491
  1.515   1.520   1.542   1.573   1.618   1.680   1.691   1.714
  1.746   1.796   1.837   1.858   1.867   1.887   1.890   1.908
  1.916   1.923   1.939   1.960   1.973   2.007   2.032   2.066
  2.068   2.080   2.098   2.112   2.152   2.175   2.179   2.196
  2.205   2.222   2.236   2.259   2.282   2.292   2.330   2.363
  2.366   2.420   2.438   2.444   2.451   2.462   2.468   2.482
  2.501   2.524   2.532   2.537   2.542   2.577   2.589   2.606
  2.627   2.668   2.682   2.706   2.710   2.724   2.821   2.864
  2.878   2.904   2.923   2.937   2.948   3.130   3.177   3.217
  3.271   3.272   3.325   3.414   3.415   3.674   3.730   3.738
  3.971   3.979   3.981   4.255   4.263   4.305   4.320   4.324
  4.352   4.390   4.482   4.548   4.646   4.695   4.727
 --------------------------------------------------------------
 
          Ground-State Mulliken Net Atomic Charges

     Atom                 Charge (a.u.)
  ----------------------------------------
      1 H                     0.196386
      2 H                     0.119441
      3 C                     0.032795
      4 C                    -0.340363
      5 S                    -0.118134
      6 C                     0.561677
      7 H                     0.129411
      8 C                    -0.491854
      9 H                     0.120133
     10 C                    -0.087434
     11 C                    -0.083852
     12 S                    -0.240481
     13 C                     0.113214
     14 H                     0.127026
     15 C                    -0.141156
     16 C                    -0.489818
     17 H                     0.135415
     18 C                     0.519160
     19 S                    -0.085001
     20 C                    -0.329104
     21 C                     0.039029
     22 H                     0.118261
     23 H                     0.195247
  ----------------------------------------
  Sum of atomic charges =     0.000000

 -----------------------------------------------------------------
                    Cartesian Multipole Moments
 -----------------------------------------------------------------
    Charge (ESU x 10^10)
                 0.0000
    Dipole Moment (Debye)
         X      -0.0085      Y       0.4228      Z       0.1452
       Tot       0.4471
    Quadrupole Moments (Debye-Ang)
        XX     -90.3216     XY      -0.0621     YY    -103.0638
        XZ      -0.1122     YZ       3.3850     ZZ    -114.1391
    Octopole Moments (Debye-Ang^2)
       XXX      -8.7100    XXY      19.0934    XYY       5.4459
       YYY      -1.0827    XXZ      15.1197    XYZ     -12.8624
       YYZ      15.0233    XZZ     -14.0481    YZZ      -0.0494
       ZZZ      48.6186
    Hexadecapole Moments (Debye-Ang^3)
      XXXX   -6340.1192   XXXY      20.1773   XXYY   -1316.0913
      XYYY      80.5210   YYYY    -760.5745   XXXZ     -37.7634
      XXYZ      14.4628   XYYZ     -65.1713   YYYZ     -62.6520
      XXZZ   -1362.5150   XYZZ       8.8829   YYZZ    -185.3871
      XZZZ    -132.0672   YZZZ     -77.3861   ZZZZ    -310.8116
 -----------------------------------------------------------------
 Calculating analytic gradient of the SCF energy
 Gradient of SCF Energy
            1           2           3           4           5           6
    1   0.0000034   0.0000020   0.0000462  -0.0000282   0.0000574   0.0000250
    2  -0.0000078  -0.0000037   0.0000279  -0.0000387  -0.0000208   0.0000815
    3   0.0000091  -0.0000097  -0.0000292   0.0000277   0.0000473   0.0000165
            7           8           9          10          11          12
    1  -0.0000041  -0.0001961  -0.0000089   0.0002649  -0.0001114   0.0000587
    2  -0.0000231   0.0000482   0.0000063   0.0000068  -0.0000849  -0.0000148
    3  -0.0000291  -0.0002090  -0.0000255  -0.0004041   0.0002653   0.0000953
           13          14          15          16          17          18
    1   0.0001142   0.0000448  -0.0003337   0.0003866   0.0000947  -0.0003540
    2  -0.0004301   0.0001650   0.0001891   0.0005597   0.0006781  -0.0014843
    3   0.0019952  -0.0008851  -0.0009087  -0.0004828  -0.0006816   0.0015622
           19          20          21          22          23
    1  -0.0000626   0.0000259  -0.0000616   0.0000074   0.0000295
    2   0.0001351  -0.0000142   0.0001066   0.0000290   0.0000890
    3  -0.0001917  -0.0000166   0.0000605  -0.0000376  -0.0001686
 Max gradient component =       1.995E-03
 RMS gradient           =       4.328E-04
 Gradient time:  CPU 4.58 s  wall 4.59 s
 Geometry Optimization Parameters
   NAtoms,    NIC,     NZ,  NCons,   NDum,   NFix, NCnnct, MaxDiis
       23     166       0       1       0       0       0       0

 Cartesian Hessian Update
 Hessian Updated using BFGS Update


** CONSTRAINED OPTIMIZATION IN DELOCALIZED INTERNAL COORDINATES **
   Searching for a Minimum

   Optimization Cycle:   2

                       Coordinates (Angstroms)
     ATOM                X               Y               Z
      1  H         6.2289007462   -0.2346163112    0.2191997920
      2  H         5.3078662115    2.2194266298   -0.0923029646
      3  C         5.1961233483    0.0673963198    0.1123244106
      4  C         4.6895281191    1.3301294696   -0.0493658650
      5  S         3.9388344330   -1.1275157945    0.1396573468
      6  C         3.2701419424    1.3456654188   -0.1686482374
      7  H         2.6907249559    2.2487395413   -0.3254696646
      8  C         2.6967627230    0.0916066701   -0.0942904850
      9  H         1.3307445556   -2.3843992662   -0.6987950833
     10  C         1.2973796408   -0.2776227540   -0.1827091255
     11  C         0.7369095725   -1.5049499515   -0.4756274350
     12  S         0.0366795246    0.9105597300    0.0995918464
     13  C        -0.6820602730   -1.4999427142   -0.4744118442
     14  H        -1.2840388888   -2.3759421509   -0.6888473253
     15  C        -1.2323109963   -0.2671901623   -0.1880808209
     16  C        -2.6297542995    0.1144636596   -0.1023601838
     17  H        -2.6502203055    1.7274814818    1.3469850990
     18  C        -3.2170373444    1.0922675560    0.6752688006
     19  S        -3.8472110948   -0.7049052051   -1.0658869567
     20  C        -4.6288343205    1.1814575983    0.5054779538
     21  C        -5.1153894169    0.2693276679   -0.3940233673
     22  H        -5.2565290884    1.8882420644    1.0360418708
     23  H        -6.1387314447    0.1128789222   -0.7066489116
   Point Group: c1    Number of degrees of freedom:    63


   Energy is  -1656.664170529

              Constraints and their Current Values
                                        Value     Constraint
   Dihedral:       13  15  16  18      150.000      150.000
 Hessian Updated using BFGS Update

 57 Hessian modes will be used to form the next step
  Hessian Eigenvalues:
     0.027864    0.045000    0.045000    0.045000    0.045000    0.045001
     0.045001    0.045003    0.045004    0.045009    0.045009    0.045014
     0.045018    0.052902    0.159781    0.159905    0.159947    0.159961
     0.159991    0.159993    0.159999    0.160024    0.221273    0.221319
     0.226820    0.237779    0.237897    0.245459    0.249846    0.249998
     0.250000    0.250306    0.293578    0.293709    0.294737    0.294907
     0.312571    0.312618    0.354732    0.354742    0.354752    0.354758
     0.355161    0.355164    0.358372    0.358383    0.383110    0.384281
     0.405825    0.405874    0.413880    0.458076    0.461947    0.462025
     0.485413    0.497288    0.497338

 Minimum Search - Taking Simple RFO Step
 Searching for Lamda that Minimizes Along All modes
 Value Taken    Lamda =  -0.00007366
 Step Taken.  Stepsize is  0.050743

                             Maximum     Tolerance    Cnvgd?
         Gradient           0.000504      0.000300      NO
         Displacement       0.017045      0.001200      NO
         Energy change     -0.000230      0.000001      NO


 New Cartesian Coordinates Obtained by Inverse Iteration

 Displacement from previous Coordinates is:  0.138822
 ----------------------------------------------------------------
             Standard Nuclear Orientation (Angstroms)
    I     Atom           X                Y                Z
 ----------------------------------------------------------------
    1      H       6.2251265354    -0.2417338017     0.2401623109
    2      H       5.3132818369     2.2142915493    -0.0825495621
    3      C       5.1939254476     0.0629612062     0.1260360559
    4      C       4.6921523738     1.3268359736    -0.0417814566
    5      S       3.9331395167    -1.1283193897     0.1475725314
    6      C       3.2736249384     1.3460316432    -0.1703763019
    7      H       2.6978545301     2.2504850135    -0.3327800017
    8      C       2.6963264406     0.0938126082    -0.0969883451
    9      H       1.3301824358    -2.3808996310    -0.7022762307
   10      C       1.2964495171    -0.2720880139    -0.1944624915
   11      C       0.7361732747    -1.4993264905    -0.4880742805
   12      S       0.0362774871     0.9194566049     0.0745881988
   13      C      -0.6828794020    -1.4940213368    -0.4881862112
   14      H      -1.2857410162    -2.3732994772    -0.6858828658
   15      C      -1.2322791038    -0.2604999414    -0.2046030761
   16      C      -2.6298668281     0.1200789240    -0.1127885023
   17      H      -2.6443327976     1.7328570928     1.3362599871
   18      C      -3.2134841422     1.1008851077     0.6635280610
   19      S      -3.8519618288    -0.7102110033    -1.0604219715
   20      C      -4.6275921395     1.1807900745     0.5085992388
   21      C      -5.1185556216     0.2592867105    -0.3790248847
   22      H      -5.2543142343     1.8835356509     1.0456554833
   23      H      -6.1450289203     0.0916493462    -0.6751268355
 ----------------------------------------------------------------
 Nuclear Repulsion Energy =  1172.8795383768 hartrees
 There are       64 alpha and       64 beta electrons
 Applying Cartesian multipole field
    Component          Value
    ---------          -----
     (2,0,0)        1.00000E-12
     (0,2,0)        2.00000E-11
     (0,0,2)       -3.00000E-11
 Nucleus-field energy     =     0.0000000114 hartrees
 Requested basis set is 6-31++G(d,p)
 There are 110 shells and 345 basis functions
 A cutoff of  1.0D-12 yielded   4682 shell pairs
 There are     47610 function pairs

 Q-Chem warning in module /project/projectdirs/jcesr/qchem/qc44/cnl_qc441/compile/cori/qc_src/libqints/qchem/aobasis.C, line 68:

 Using reconstructed effective core potential

 Smallest overlap matrix eigenvalue = 7.47E-08
 Linear dependence detected in AO basis
 Number of orthogonalized atomic orbitals = 343
 Maximum deviation from orthogonality = 1.354E-10
 Guess MOs from SCF MO coefficient file
 Reading MOs from coefficient file
 Reading MOs from coefficient file
 A restricted hybrid HF-DFT SCF calculation will be
 performed using Pulay DIIS extrapolation
 Exchange:     0.2000 Hartree-Fock + 0.0800 Slater + 0.7200 B88
 Correlation:  0.1900 VWN1RPA + 0.8100 LYP
 Using SG-1 standard quadrature grid
 SCF converges when DIIS error is below 1.0E-08
 Geometry optimization detected.  Setting ReadMinima to 0
 Setting SaveMinima to 0
 ---------------------------------------
  Cycle       Energy         DIIS Error
 ---------------------------------------
    1   -1656.6642051489      3.25E-04
    2   -1656.6641873116      3.72E-05
    3   -1656.6641107157      7.92E-05
    4   -1656.6642131510      9.47E-06
    5   -1656.6642142022      4.97E-06
    6   -1656.6642145713      1.51E-06
    7   -1656.6642146065      5.35E-07
    8   -1656.6642146097      1.74E-07
    9   -1656.6642146095      6.02E-08
   10   -1656.6642146106      1.88E-08
   11   -1656.6642146096      6.87E-09 Convergence criterion met
 ---------------------------------------
 SCF time:  CPU 12.23 s  wall 11.26 s
 SCF   energy in the final basis set = -1656.6642146096
 Total energy in the final basis set = -1656.6642146096
 
 --------------------------------------------------------------
 
                    Orbital Energies (a.u.)
 --------------------------------------------------------------
 
 Alpha MOs
 -- Occupied --
-88.921 -88.921 -88.921 -10.241 -10.241 -10.240 -10.240 -10.226
-10.226 -10.206 -10.206 -10.206 -10.206 -10.205 -10.205  -7.981
 -7.981  -7.981  -5.945  -5.945  -5.945  -5.941  -5.941  -5.941
 -5.938  -5.938  -5.937  -0.907  -0.892  -0.876  -0.787  -0.756
 -0.745  -0.745  -0.732  -0.698  -0.618  -0.597  -0.570  -0.560
 -0.536  -0.535  -0.529  -0.502  -0.462  -0.423  -0.421  -0.417
 -0.415  -0.408  -0.402  -0.399  -0.386  -0.378  -0.370  -0.361
 -0.350  -0.344  -0.295  -0.267  -0.263  -0.261  -0.248  -0.203
 -- Virtual --
 -0.070  -0.032  -0.007  -0.006  -0.000   0.005   0.007   0.008
  0.012   0.016   0.024   0.028   0.029   0.032   0.041   0.042
  0.047   0.050   0.053   0.055   0.059   0.061   0.071   0.077
  0.084   0.087   0.089   0.093   0.101   0.105   0.108   0.109
  0.114   0.116   0.119   0.123   0.126   0.127   0.130   0.132
  0.135   0.141   0.146   0.147   0.148   0.150   0.156   0.159
  0.164   0.164   0.170   0.171   0.178   0.182   0.183   0.190
  0.194   0.199   0.203   0.212   0.214   0.217   0.220   0.222
  0.224   0.231   0.233   0.244   0.249   0.252   0.262   0.266
  0.269   0.272   0.276   0.280   0.283   0.286   0.292   0.301
  0.315   0.322   0.326   0.331   0.343   0.352   0.357   0.360
  0.366   0.374   0.383   0.396   0.398   0.453   0.455   0.461
  0.498   0.509   0.520   0.532   0.536   0.560   0.571   0.579
  0.581   0.598   0.612   0.622   0.628   0.647   0.655   0.657
  0.661   0.664   0.669   0.686   0.692   0.699   0.715   0.716
  0.722   0.726   0.733   0.742   0.757   0.762   0.779   0.788
  0.789   0.818   0.821   0.829   0.832   0.840   0.850   0.868
  0.890   0.932   0.934   0.940   0.954   0.956   0.960   0.961
  0.967   0.973   0.980   0.986   0.993   0.996   1.008   1.027
  1.038   1.048   1.055   1.069   1.083   1.090   1.104   1.107
  1.109   1.134   1.150   1.164   1.168   1.183   1.204   1.223
  1.256   1.259   1.264   1.290   1.314   1.328   1.343   1.347
  1.354   1.359   1.363   1.376   1.448   1.457   1.489   1.492
  1.513   1.523   1.542   1.573   1.617   1.680   1.691   1.714
  1.746   1.796   1.837   1.858   1.867   1.887   1.890   1.908
  1.916   1.923   1.939   1.960   1.973   2.007   2.031   2.066
  2.068   2.081   2.099   2.111   2.152   2.175   2.179   2.197
  2.206   2.222   2.236   2.260   2.282   2.291   2.329   2.363
  2.366   2.421   2.439   2.444   2.452   2.462   2.466   2.483
  2.501   2.525   2.533   2.538   2.541   2.577   2.589   2.606
  2.627   2.668   2.681   2.706   2.710   2.724   2.821   2.863
  2.878   2.904   2.923   2.937   2.948   3.130   3.177   3.217
  3.271   3.272   3.325   3.414   3.415   3.674   3.730   3.738
  3.972   3.979   3.982   4.255   4.264   4.305   4.320   4.324
  4.352   4.390   4.482   4.548   4.646   4.695   4.727
 --------------------------------------------------------------
 
          Ground-State Mulliken Net Atomic Charges

     Atom                 Charge (a.u.)
  ----------------------------------------
      1 H                     0.196327
      2 H                     0.119429
      3 C                     0.032729
      4 C                    -0.341041
      5 S                    -0.117826
      6 C                     0.555561
      7 H                     0.128979
      8 C                    -0.494745
      9 H                     0.119701
     10 C                    -0.080457
     11 C                    -0.092748
     12 S                    -0.243300
     13 C                     0.133783
     14 H                     0.128082
     15 C                    -0.157840
     16 C                    -0.488363
     17 H                     0.136169
     18 C                     0.534277
     19 S                    -0.087370
     20 C                    -0.334330
     21 C                     0.039557
     22 H                     0.118276
     23 H                     0.195152
  ----------------------------------------
  Sum of atomic charges =     0.000000

 -----------------------------------------------------------------
                    Cartesian Multipole Moments
 -----------------------------------------------------------------
    Charge (ESU x 10^10)
                 0.0000
    Dipole Moment (Debye)
         X      -0.0123      Y       0.4009      Z       0.1861
       Tot       0.4421
    Quadrupole Moments (Debye-Ang)
        XX     -90.3033     XY       0.0485     YY    -103.0612
        XZ      -0.2027     YZ       3.3471     ZZ    -114.1763
    Octopole Moments (Debye-Ang^2)
       XXX      -8.8804    XXY      18.1433    XYY       5.6383
       YYY      -1.5953    XXZ      16.8199    XYZ     -12.9862
       YYZ      15.4292    XZZ     -13.6794    YZZ      -0.1585
       ZZZ      49.7656
    Hexadecapole Moments (Debye-Ang^3)
      XXXX   -6338.4044   XXXY      23.6908   XXYY   -1316.3917
      XYYY      79.5576   YYYY    -761.3065   XXXZ     -42.0297
      XXYZ      14.9434   XYYZ     -65.6247   YYYZ     -62.5874
      XXZZ   -1363.4320   XYZZ       8.3388   YYZZ    -185.4231
      XZZZ    -134.4654   YZZZ     -77.2128   ZZZZ    -310.3276
 -----------------------------------------------------------------
 Calculating analytic gradient of the SCF energy
 Gradient of SCF Energy
            1           2           3           4           5           6
    1  -0.0000022   0.0000000  -0.0000335  -0.0000150   0.0000262   0.0000159
    2  -0.0000023   0.0000047   0.0000021   0.0000072  -0.0000239   0.0000019
    3  -0.0000120  -0.0000119  -0.0000099   0.0000168   0.0000426  -0.0000109
            7           8           9          10          11          12
    1   0.0000020  -0.0000078  -0.0000064  -0.0000274  -0.0000029   0.0000176
    2  -0.0000032   0.0000032  -0.0000251  -0.0000468   0.0000796   0.0001253
    3  -0.0000303   0.0000377   0.0000699   0.0000892  -0.0002875  -0.0002368
           13          14          15          16          17          18
    1  -0.0000388  -0.0000080   0.0001368  -0.0000937   0.0000564  -0.0001088
    2  -0.0002181   0.0000778  -0.0002090   0.0006151   0.0002690  -0.0008690
    3   0.0011844  -0.0003602  -0.0005884  -0.0001815  -0.0002785   0.0008457
           19          20          21          22          23
    1   0.0000327   0.0000388   0.0000192  -0.0000081   0.0000070
    2   0.0001710   0.0002117  -0.0000790  -0.0000658  -0.0000261
    3  -0.0002309  -0.0002080   0.0000807   0.0000776   0.0000024
 Max gradient component =       1.184E-03
 RMS gradient           =       2.535E-04
 Gradient time:  CPU 4.59 s  wall 4.60 s
 Geometry Optimization Parameters
   NAtoms,    NIC,     NZ,  NCons,   NDum,   NFix, NCnnct, MaxDiis
       23     166       0       1       0       0       0       0

 Cartesian Hessian Update
 Hessian Updated using BFGS Update


** CONSTRAINED OPTIMIZATION IN DELOCALIZED INTERNAL COORDINATES **
   Searching for a Minimum

   Optimization Cycle:   3

                       Coordinates (Angstroms)
     ATOM                X               Y               Z
      1  H         6.2251265354   -0.2417338017    0.2401623109
      2  H         5.3132818369    2.2142915493   -0.0825495621
      3  C         5.1939254476    0.0629612062    0.1260360559
      4  C         4.6921523738    1.3268359736   -0.0417814566
      5  S         3.9331395167   -1.1283193897    0.1475725314
      6  C         3.2736249384    1.3460316432   -0.1703763019
      7  H         2.6978545301    2.2504850135   -0.3327800017
      8  C         2.6963264406    0.0938126082   -0.0969883451
      9  H         1.3301824358   -2.3808996310   -0.7022762307
     10  C         1.2964495171   -0.2720880139   -0.1944624915
     11  C         0.7361732747   -1.4993264905   -0.4880742805
     12  S         0.0362774871    0.9194566049    0.0745881988
     13  C        -0.6828794020   -1.4940213368   -0.4881862112
     14  H        -1.2857410162   -2.3732994772   -0.6858828658
     15  C        -1.2322791038   -0.2604999414   -0.2046030761
     16  C        -2.6298668281    0.1200789240   -0.1127885023
     17  H        -2.6443327976    1.7328570928    1.3362599871
     18  C        -3.2134841422    1.1008851077    0.6635280610
     19  S        -3.8519618288   -0.7102110033   -1.0604219715
     20  C        -4.6275921395    1.1807900745    0.5085992388
     21  C        -5.1185556216    0.2592867105   -0.3790248847
     22  H        -5.2543142343    1.8835356509    1.0456554833
     23  H        -6.1450289203    0.0916493462   -0.6751268355
   Point Group: c1    Number of degrees of freedom:    63


   Energy is  -1656.664214610

              Constraints and their Current Values
                                        Value     Constraint
   Dihedral:       13  15  16  18      150.000      150.000
 Hessian Updated using BFGS Update

 58 Hessian modes will be used to form the next step
  Hessian Eigenvalues:
     0.020708    0.045000    0.045000    0.045000    0.045000    0.045001
     0.045001    0.045003    0.045003    0.045005    0.045009    0.045014
     0.045016    0.046235    0.054973    0.159811    0.159903    0.159947
     0.159961    0.159991    0.159998    0.159999    0.160030    0.221286
     0.221352    0.226877    0.237822    0.238437    0.246635    0.249747
     0.249998    0.250090    0.250183    0.293653    0.293705    0.294729
     0.294887    0.312571    0.312624    0.354733    0.354743    0.354748
     0.354754    0.355161    0.355165    0.358372    0.358385    0.383079
     0.384676    0.405830    0.405916    0.413902    0.458286    0.461974
     0.462548    0.485666    0.497286    0.497343

 Minimum Search - Taking Simple RFO Step
 Searching for Lamda that Minimizes Along All modes
 Value Taken    Lamda =  -0.00001088
 Step Taken.  Stepsize is  0.020550

                             Maximum     Tolerance    Cnvgd?
         Gradient           0.000224      0.000300     YES
         Displacement       0.007353      0.001200      NO
         Energy change     -0.000044      0.000001      NO


 New Cartesian Coordinates Obtained by Inverse Iteration

 Displacement from previous Coordinates is:  0.026171
 ----------------------------------------------------------------
             Standard Nuclear Orientation (Angstroms)
    I     Atom           X                Y                Z
 ----------------------------------------------------------------
    1      H       6.2249213497    -0.2433245649     0.2416230591
    2      H       5.3145472189     2.2134491011    -0.0794291766
    3      C       5.1939682677     0.0620046038     0.1269038316
    4      C       4.6929332114     1.3262764519    -0.0401375794
    5      S       3.9324429429    -1.1285326858     0.1463049032
    6      C       3.2744452035     1.3463532442    -0.1696674724
    7      H       2.6992509307     2.2513272182    -0.3312239869
    8      C       2.6964180787     0.0944012296    -0.0978173504
    9      H       1.3302587178    -2.3802668062    -0.7018462812
   10      C       1.2964032827    -0.2709342459    -0.1964846603
   11      C       0.7361419970    -1.4982913662    -0.4896264379
   12      S       0.0360812733     0.9206566585     0.0714664872
   13      C      -0.6829793408    -1.4927776697    -0.4910210028
   14      H      -1.2858591019    -2.3734180813    -0.6824010067
   15      C      -1.2324958808    -0.2590028010    -0.2084689041
   16      C      -2.6299732554     0.1213854918    -0.1157906136
   17      H      -2.6437153199     1.7325970542     1.3349109921
   18      C      -3.2129642177     1.1031481857     0.6599392996
   19      S      -3.8535231304    -0.7125987048    -1.0582310508
   20      C      -4.6275888877     1.1809784596     0.5083251937
   21      C      -5.1195775768     0.2576138543    -0.3767730817
   22      H      -5.2539666547     1.8834972010     1.0460816859
   23      H      -6.1466908081     0.0880165919    -0.6695579976
 ----------------------------------------------------------------
 Nuclear Repulsion Energy =  1172.8587153103 hartrees
 There are       64 alpha and       64 beta electrons
 Applying Cartesian multipole field
    Component          Value
    ---------          -----
     (2,0,0)        1.00000E-12
     (0,2,0)        2.00000E-11
     (0,0,2)       -3.00000E-11
 Nucleus-field energy     =     0.0000000115 hartrees
 Requested basis set is 6-31++G(d,p)
 There are 110 shells and 345 basis functions
 A cutoff of  1.0D-12 yielded   4682 shell pairs
 There are     47610 function pairs

 Q-Chem warning in module /project/projectdirs/jcesr/qchem/qc44/cnl_qc441/compile/cori/qc_src/libqints/qchem/aobasis.C, line 68:

 Using reconstructed effective core potential

 Smallest overlap matrix eigenvalue = 7.46E-08
 Linear dependence detected in AO basis
 Number of orthogonalized atomic orbitals = 343
 Maximum deviation from orthogonality = 4.079E-10
 Guess MOs from SCF MO coefficient file
 Reading MOs from coefficient file
 Reading MOs from coefficient file
 A restricted hybrid HF-DFT SCF calculation will be
 performed using Pulay DIIS extrapolation
 Exchange:     0.2000 Hartree-Fock + 0.0800 Slater + 0.7200 B88
 Correlation:  0.1900 VWN1RPA + 0.8100 LYP
 Using SG-1 standard quadrature grid
 SCF converges when DIIS error is below 1.0E-08
 Geometry optimization detected.  Setting ReadMinima to 0
 Setting SaveMinima to 0
 ---------------------------------------
  Cycle       Energy         DIIS Error
 ---------------------------------------
    1   -1656.6631814394      7.90E-05
    2   -1656.6642201641      8.33E-06
    3   -1656.6642175807      1.55E-05
    4   -1656.6642214884      2.83E-06
    5   -1656.6642215993      1.07E-06
    6   -1656.6642216133      4.96E-07
    7   -1656.6642216189      1.24E-07
    8   -1656.6642216182      4.78E-08
    9   -1656.6642216187      1.77E-08
   10   -1656.6642216181      5.14E-09 Convergence criterion met
 ---------------------------------------
 SCF time:  CPU 10.71 s  wall 10.09 s
 SCF   energy in the final basis set = -1656.6642216181
 Total energy in the final basis set = -1656.6642216181
 
 --------------------------------------------------------------
 
                    Orbital Energies (a.u.)
 --------------------------------------------------------------
 
 Alpha MOs
 -- Occupied --
-88.921 -88.921 -88.921 -10.241 -10.241 -10.241 -10.240 -10.226
-10.226 -10.206 -10.206 -10.206 -10.206 -10.205 -10.205  -7.981
 -7.981  -7.981  -5.945  -5.945  -5.945  -5.941  -5.941  -5.941
 -5.938  -5.938  -5.937  -0.907  -0.892  -0.876  -0.787  -0.756
 -0.745  -0.745  -0.732  -0.698  -0.618  -0.597  -0.570  -0.560
 -0.536  -0.535  -0.529  -0.502  -0.462  -0.423  -0.421  -0.417
 -0.415  -0.408  -0.402  -0.399  -0.386  -0.378  -0.370  -0.361
 -0.350  -0.344  -0.295  -0.267  -0.263  -0.261  -0.248  -0.203
 -- Virtual --
 -0.070  -0.032  -0.007  -0.006  -0.000   0.005   0.007   0.008
  0.012   0.016   0.024   0.028   0.030   0.032   0.041   0.042
  0.047   0.050   0.053   0.055   0.059   0.061   0.071   0.077
  0.084   0.087   0.089   0.093   0.101   0.105   0.108   0.109
  0.114   0.116   0.119   0.124   0.126   0.127   0.130   0.132
  0.135   0.141   0.146   0.147   0.148   0.150   0.156   0.159
  0.164   0.164   0.170   0.171   0.178   0.182   0.183   0.190
  0.194   0.199   0.203   0.212   0.214   0.217   0.220   0.222
  0.224   0.231   0.233   0.244   0.249   0.252   0.262   0.266
  0.269   0.272   0.276   0.280   0.283   0.286   0.292   0.301
  0.315   0.322   0.326   0.331   0.344   0.352   0.357   0.360
  0.366   0.374   0.383   0.396   0.398   0.453   0.455   0.461
  0.498   0.509   0.520   0.532   0.536   0.560   0.571   0.579
  0.581   0.598   0.612   0.622   0.628   0.647   0.655   0.657
  0.661   0.664   0.669   0.686   0.691   0.699   0.715   0.716
  0.722   0.726   0.733   0.742   0.757   0.762   0.779   0.788
  0.789   0.818   0.821   0.829   0.832   0.840   0.850   0.868
  0.890   0.932   0.934   0.940   0.954   0.956   0.960   0.961
  0.968   0.973   0.980   0.986   0.993   0.996   1.008   1.027
  1.038   1.048   1.055   1.069   1.083   1.090   1.104   1.107
  1.109   1.134   1.151   1.164   1.168   1.183   1.204   1.223
  1.255   1.259   1.264   1.290   1.314   1.328   1.343   1.347
  1.355   1.359   1.363   1.376   1.449   1.457   1.488   1.492
  1.513   1.525   1.541   1.573   1.616   1.680   1.691   1.714
  1.746   1.796   1.837   1.858   1.866   1.887   1.890   1.908
  1.916   1.923   1.939   1.960   1.973   2.007   2.031   2.066
  2.068   2.081   2.099   2.111   2.152   2.175   2.179   2.197
  2.206   2.222   2.236   2.260   2.282   2.291   2.329   2.363
  2.366   2.421   2.439   2.444   2.452   2.461   2.466   2.483
  2.500   2.525   2.533   2.538   2.541   2.577   2.589   2.606
  2.627   2.669   2.682   2.706   2.710   2.724   2.821   2.863
  2.878   2.905   2.923   2.937   2.948   3.130   3.177   3.217
  3.271   3.272   3.326   3.414   3.415   3.674   3.730   3.738
  3.972   3.980   3.982   4.255   4.264   4.306   4.320   4.324
  4.352   4.390   4.482   4.548   4.646   4.695   4.727
 --------------------------------------------------------------
 
          Ground-State Mulliken Net Atomic Charges

     Atom                 Charge (a.u.)
  ----------------------------------------
      1 H                     0.196362
      2 H                     0.119443
      3 C                     0.032665
      4 C                    -0.340543
      5 S                    -0.118210
      6 C                     0.555388
      7 H                     0.128967
      8 C                    -0.494379
      9 H                     0.119521
     10 C                    -0.079659
     11 C                    -0.096119
     12 S                    -0.244854
     13 C                     0.140779
     14 H                     0.128399
     15 C                    -0.164337
     16 C                    -0.488358
     17 H                     0.136356
     18 C                     0.539288
     19 S                    -0.088427
     20 C                    -0.335843
     21 C                     0.040122
     22 H                     0.118286
     23 H                     0.195153
  ----------------------------------------
  Sum of atomic charges =     0.000000

 -----------------------------------------------------------------
                    Cartesian Multipole Moments
 -----------------------------------------------------------------
    Charge (ESU x 10^10)
                 0.0000
    Dipole Moment (Debye)
         X      -0.0129      Y       0.3945      Z       0.2007
       Tot       0.4428
    Quadrupole Moments (Debye-Ang)
        XX     -90.2874     XY       0.0742     YY    -103.0626
        XZ      -0.2284     YZ       3.3408     ZZ    -114.1915
    Octopole Moments (Debye-Ang^2)
       XXX      -8.9046    XXY      17.9708    XYY       5.6758
       YYY      -1.6845    XXZ      17.1596    XYZ     -12.9642
       YYZ      15.5637    XZZ     -13.6002    YZZ      -0.1492
       ZZZ      50.0846
    Hexadecapole Moments (Debye-Ang^3)
      XXXX   -6338.5549   XXXY      24.1774   XXYY   -1316.6180
      XYYY      79.3470   YYYY    -761.6419   XXXZ     -42.6459
      XXYZ      15.0924   XYYZ     -65.5315   YYYZ     -62.7371
      XXZZ   -1363.9165   XYZZ       8.1805   YYZZ    -185.4568
      XZZZ    -134.5951   YZZZ     -77.3771   ZZZZ    -309.9038
 -----------------------------------------------------------------
 Calculating analytic gradient of the SCF energy
 Gradient of SCF Energy
            1           2           3           4           5           6
    1   0.0000046   0.0000011   0.0000026   0.0000118  -0.0000006  -0.0000078
    2   0.0000008  -0.0000034  -0.0000143   0.0000014   0.0000305  -0.0000237
    3  -0.0000071  -0.0000053   0.0000011   0.0000006   0.0000308  -0.0000272
            7           8           9          10          11          12
    1  -0.0000002   0.0000354   0.0000056  -0.0000346   0.0000630  -0.0000108
    2  -0.0000012  -0.0000066  -0.0000180  -0.0000177   0.0000858   0.0000027
    3  -0.0000167   0.0000585   0.0000935   0.0000595  -0.0002626  -0.0001184
           13          14          15          16          17          18
    1  -0.0000735  -0.0000111   0.0000608   0.0000078   0.0000256  -0.0000512
    2  -0.0001586   0.0000359  -0.0001322   0.0006027   0.0000740  -0.0005755
    3   0.0008145  -0.0001006  -0.0006216  -0.0002857  -0.0000925   0.0005917
           19          20          21          22          23
    1   0.0000202  -0.0000111  -0.0000082  -0.0000163  -0.0000130
    2   0.0000928   0.0001490  -0.0000150  -0.0000825  -0.0000268
    3  -0.0000480  -0.0001751  -0.0000147   0.0000874   0.0000378
 Max gradient component =       8.145E-04
 RMS gradient           =       1.887E-04
 Gradient time:  CPU 4.60 s  wall 4.58 s
 Geometry Optimization Parameters
   NAtoms,    NIC,     NZ,  NCons,   NDum,   NFix, NCnnct, MaxDiis
       23     166       0       1       0       0       0       0

 Cartesian Hessian Update
 Hessian Updated using BFGS Update


** CONSTRAINED OPTIMIZATION IN DELOCALIZED INTERNAL COORDINATES **
   Searching for a Minimum

   Optimization Cycle:   4

                       Coordinates (Angstroms)
     ATOM                X               Y               Z
      1  H         6.2249213497   -0.2433245649    0.2416230591
      2  H         5.3145472189    2.2134491011   -0.0794291766
      3  C         5.1939682677    0.0620046038    0.1269038316
      4  C         4.6929332114    1.3262764519   -0.0401375794
      5  S         3.9324429429   -1.1285326858    0.1463049032
      6  C         3.2744452035    1.3463532442   -0.1696674724
      7  H         2.6992509307    2.2513272182   -0.3312239869
      8  C         2.6964180787    0.0944012296   -0.0978173504
      9  H         1.3302587178   -2.3802668062   -0.7018462812
     10  C         1.2964032827   -0.2709342459   -0.1964846603
     11  C         0.7361419970   -1.4982913662   -0.4896264379
     12  S         0.0360812733    0.9206566585    0.0714664872
     13  C        -0.6829793408   -1.4927776697   -0.4910210028
     14  H        -1.2858591019   -2.3734180813   -0.6824010067
     15  C        -1.2324958808   -0.2590028010   -0.2084689041
     16  C        -2.6299732554    0.1213854918   -0.1157906136
     17  H        -2.6437153199    1.7325970542    1.3349109921
     18  C        -3.2129642177    1.1031481857    0.6599392996
     19  S        -3.8535231304   -0.7125987048   -1.0582310508
     20  C        -4.6275888877    1.1809784596    0.5083251937
     21  C        -5.1195775768    0.2576138543   -0.3767730817
     22  H        -5.2539666547    1.8834972010    1.0460816859
     23  H        -6.1466908081    0.0880165919   -0.6695579976
   Point Group: c1    Number of degrees of freedom:    63


   Energy is  -1656.664221618

              Constraints and their Current Values
                                        Value     Constraint
   Dihedral:       13  15  16  18      150.000      150.000
 Hessian Updated using BFGS Update

 62 Hessian modes will be used to form the next step
  Hessian Eigenvalues:
     0.016654    0.043769    0.045000    0.045000    0.045000    0.045000
     0.045000    0.045000    0.045001    0.045001    0.045001    0.045002
     0.045003    0.045004    0.045009    0.045014    0.045016    0.045518
     0.050141    0.159869    0.159946    0.159953    0.159966    0.159992
     0.159999    0.160000    0.160165    0.221276    0.221492    0.226856
     0.237821    0.239161    0.247515    0.249974    0.249992    0.250102
     0.250938    0.293662    0.293754    0.294743    0.294978    0.312591
     0.312616    0.354733    0.354742    0.354751    0.354782    0.355161
     0.355168    0.358372    0.358400    0.383175    0.383677    0.405805
     0.406649    0.415123    0.458140    0.461949    0.462002    0.485399
     0.497267    0.497326

 Minimum Search - Taking Simple RFO Step
 Searching for Lamda that Minimizes Along All modes
 Value Taken    Lamda =  -0.00000291
 Step Taken.  Stepsize is  0.011154

                             Maximum     Tolerance    Cnvgd?
         Gradient           0.000108      0.000300     YES
         Displacement       0.004105      0.001200      NO
         Energy change     -0.000007      0.000001      NO


 New Cartesian Coordinates Obtained by Inverse Iteration

 Displacement from previous Coordinates is:  0.015384
 ----------------------------------------------------------------
             Standard Nuclear Orientation (Angstroms)
    I     Atom           X                Y                Z
 ----------------------------------------------------------------
    1      H       6.2250483496    -0.2432012497     0.2385147750
    2      H       5.3139205476     2.2139019683    -0.0779256903
    3      C       5.1939634029     0.0620770815     0.1249060126
    4      C       4.6925446282     1.3265116487    -0.0397489608
    5      S       3.9327524646    -1.1288383881     0.1432535770
    6      C       3.2739804495     1.3464917676    -0.1682079967
    7      H       2.6984433838     2.2516291902    -0.3275946805
    8      C       2.6963134970     0.0942743208    -0.0979021638
    9      H       1.3300986990    -2.3806184517    -0.7011948404
   10      C       1.2963529820    -0.2712009395    -0.1959072209
   11      C       0.7360601841    -1.4986765965    -0.4886104568
   12      S       0.0361437801     0.9203315500     0.0727897096
   13      C      -0.6829600550    -1.4928752104    -0.4909344092
   14      H      -1.2858081021    -2.3740326248    -0.6800635604
   15      C      -1.2324491901    -0.2588723847    -0.2089724236
   16      C      -2.6297245864     0.1216056195    -0.1165627744
   17      H      -2.6436417943     1.7321660712     1.3349985905
   18      C      -3.2126345872     1.1038463506     0.6587586643
   19      S      -3.8535523887    -0.7139033266    -1.0573303363
   20      C      -4.6272360943     1.1813670220     0.5075416977
   21      C      -5.1193310642     0.2574433837    -0.3769117928
   22      H      -5.2533843156     1.8850402742     1.0440614400
   23      H      -6.1464218904     0.0880913437    -0.6698783099
 ----------------------------------------------------------------
 Nuclear Repulsion Energy =  1172.8809364993 hartrees
 There are       64 alpha and       64 beta electrons
 Applying Cartesian multipole field
    Component          Value
    ---------          -----
     (2,0,0)        1.00000E-12
     (0,2,0)        2.00000E-11
     (0,0,2)       -3.00000E-11
 Nucleus-field energy     =     0.0000000115 hartrees
 Requested basis set is 6-31++G(d,p)
 There are 110 shells and 345 basis functions
 A cutoff of  1.0D-12 yielded   4682 shell pairs
 There are     47610 function pairs

 Q-Chem warning in module /project/projectdirs/jcesr/qchem/qc44/cnl_qc441/compile/cori/qc_src/libqints/qchem/aobasis.C, line 68:

 Using reconstructed effective core potential

 Smallest overlap matrix eigenvalue = 7.42E-08
 Linear dependence detected in AO basis
 Number of orthogonalized atomic orbitals = 343
 Maximum deviation from orthogonality = 9.402E-11
 Guess MOs from SCF MO coefficient file
 Reading MOs from coefficient file
 Reading MOs from coefficient file
 A restricted hybrid HF-DFT SCF calculation will be
 performed using Pulay DIIS extrapolation
 Exchange:     0.2000 Hartree-Fock + 0.0800 Slater + 0.7200 B88
 Correlation:  0.1900 VWN1RPA + 0.8100 LYP
 Using SG-1 standard quadrature grid
 SCF converges when DIIS error is below 1.0E-08
 Geometry optimization detected.  Setting ReadMinima to 0
 Setting SaveMinima to 0
 ---------------------------------------
  Cycle       Energy         DIIS Error
 ---------------------------------------
    1   -1656.6634150393      4.90E-05
    2   -1656.6642229971      4.20E-06
    3   -1656.6642224343      7.45E-06
    4   -1656.6642233965      1.51E-06
    5   -1656.6642234275      4.55E-07
    6   -1656.6642234287      3.24E-07
    7   -1656.6642234311      8.99E-08
    8   -1656.6642234306      3.08E-08
    9   -1656.6642234314      9.40E-09 Convergence criterion met
 ---------------------------------------
 SCF time:  CPU 9.88 s  wall 9.08 s
 SCF   energy in the final basis set = -1656.6642234314
 Total energy in the final basis set = -1656.6642234314
 
 --------------------------------------------------------------
 
                    Orbital Energies (a.u.)
 --------------------------------------------------------------
 
 Alpha MOs
 -- Occupied --
-88.921 -88.921 -88.921 -10.241 -10.241 -10.240 -10.240 -10.226
-10.226 -10.206 -10.206 -10.206 -10.206 -10.205 -10.205  -7.981
 -7.981  -7.981  -5.945  -5.945  -5.945  -5.941  -5.941  -5.941
 -5.938  -5.938  -5.937  -0.907  -0.892  -0.876  -0.787  -0.756
 -0.745  -0.745  -0.732  -0.698  -0.618  -0.597  -0.570  -0.560
 -0.536  -0.535  -0.529  -0.502  -0.462  -0.423  -0.421  -0.417
 -0.415  -0.408  -0.402  -0.399  -0.386  -0.378  -0.370  -0.361
 -0.350  -0.344  -0.295  -0.267  -0.263  -0.261  -0.248  -0.203
 -- Virtual --
 -0.070  -0.032  -0.007  -0.006  -0.000   0.005   0.007   0.008
  0.012   0.016   0.024   0.028   0.030   0.032   0.041   0.042
  0.047   0.050   0.053   0.055   0.059   0.061   0.071   0.077
  0.084   0.087   0.089   0.093   0.101   0.105   0.108   0.109
  0.114   0.116   0.119   0.124   0.126   0.127   0.130   0.132
  0.135   0.141   0.146   0.147   0.148   0.150   0.156   0.159
  0.164   0.164   0.170   0.171   0.178   0.182   0.183   0.190
  0.194   0.199   0.203   0.212   0.214   0.217   0.220   0.222
  0.224   0.232   0.233   0.244   0.249   0.252   0.262   0.266
  0.269   0.272   0.276   0.280   0.283   0.286   0.292   0.301
  0.315   0.322   0.326   0.331   0.344   0.352   0.357   0.360
  0.366   0.374   0.383   0.396   0.398   0.453   0.455   0.461
  0.498   0.509   0.520   0.532   0.536   0.560   0.571   0.579
  0.581   0.598   0.612   0.622   0.628   0.647   0.655   0.657
  0.661   0.664   0.669   0.686   0.691   0.699   0.715   0.716
  0.722   0.726   0.733   0.742   0.757   0.762   0.779   0.788
  0.789   0.818   0.821   0.829   0.832   0.840   0.850   0.868
  0.889   0.932   0.934   0.940   0.954   0.956   0.960   0.961
  0.968   0.973   0.980   0.986   0.993   0.996   1.008   1.027
  1.038   1.048   1.055   1.069   1.083   1.090   1.104   1.107
  1.109   1.134   1.151   1.164   1.168   1.183   1.204   1.224
  1.255   1.259   1.264   1.290   1.314   1.328   1.343   1.347
  1.354   1.359   1.363   1.376   1.449   1.457   1.488   1.493
  1.513   1.526   1.542   1.573   1.616   1.680   1.691   1.714
  1.747   1.796   1.837   1.858   1.866   1.887   1.890   1.908
  1.916   1.923   1.939   1.960   1.973   2.007   2.031   2.066
  2.068   2.081   2.099   2.111   2.152   2.175   2.179   2.197
  2.206   2.222   2.236   2.260   2.282   2.291   2.329   2.363
  2.366   2.421   2.439   2.444   2.452   2.461   2.466   2.483
  2.500   2.525   2.533   2.538   2.541   2.577   2.589   2.607
  2.628   2.669   2.682   2.706   2.710   2.724   2.821   2.863
  2.878   2.905   2.923   2.937   2.948   3.130   3.177   3.217
  3.271   3.272   3.326   3.414   3.415   3.674   3.730   3.738
  3.972   3.980   3.982   4.255   4.264   4.306   4.320   4.324
  4.352   4.390   4.482   4.548   4.646   4.695   4.727
 --------------------------------------------------------------
 
          Ground-State Mulliken Net Atomic Charges

     Atom                 Charge (a.u.)
  ----------------------------------------
      1 H                     0.196372
      2 H                     0.119468
      3 C                     0.032369
      4 C                    -0.339721
      5 S                    -0.118542
      6 C                     0.556686
      7 H                     0.128985
      8 C                    -0.493591
      9 H                     0.119464
     10 C                    -0.080847
     11 C                    -0.097177
     12 S                    -0.246216
     13 C                     0.143786
     14 H                     0.128496
     15 C                    -0.167614
     16 C                    -0.488098
     17 H                     0.136375
     18 C                     0.540726
     19 S                    -0.088699
     20 C                    -0.335683
     21 C                     0.040044
     22 H                     0.118290
     23 H                     0.195128
  ----------------------------------------
  Sum of atomic charges =     0.000000

 -----------------------------------------------------------------
                    Cartesian Multipole Moments
 -----------------------------------------------------------------
    Charge (ESU x 10^10)
                 0.0000
    Dipole Moment (Debye)
         X      -0.0131      Y       0.3937      Z       0.2040
       Tot       0.4437
    Quadrupole Moments (Debye-Ang)
        XX     -90.2939     XY       0.0743     YY    -103.0550
        XZ      -0.2300     YZ       3.3462     ZZ    -114.1982
    Octopole Moments (Debye-Ang^2)
       XXX      -8.8987    XXY      17.9948    XYY       5.6503
       YYY      -1.6346    XXZ      17.1206    XYZ     -12.9144
       YYZ      15.6123    XZZ     -13.5985    YZZ      -0.1244
       ZZZ      50.1588
    Hexadecapole Moments (Debye-Ang^3)
      XXXX   -6338.4847   XXXY      23.9727   XXYY   -1316.4362
      XYYY      79.2704   YYYY    -761.9119   XXXZ     -42.3550
      XXYZ      15.1638   XYYZ     -65.3270   YYYZ     -62.8957
      XXZZ   -1363.9632   XYZZ       8.1624   YYZZ    -185.4912
      XZZZ    -134.1662   YZZZ     -77.6052   ZZZZ    -309.5190
 -----------------------------------------------------------------
 Calculating analytic gradient of the SCF energy
 Gradient of SCF Energy
            1           2           3           4           5           6
    1  -0.0000010  -0.0000007  -0.0000091  -0.0000004  -0.0000143  -0.0000019
    2   0.0000011   0.0000003  -0.0000124   0.0000064   0.0000017  -0.0000109
    3  -0.0000020  -0.0000019  -0.0000013  -0.0000085   0.0000308  -0.0000394
            7           8           9          10          11          12
    1   0.0000001   0.0000368   0.0000011  -0.0000370   0.0000160  -0.0000073
    2   0.0000009   0.0000008  -0.0000162   0.0000080   0.0000313  -0.0000007
    3  -0.0000054   0.0000375   0.0000651  -0.0000126  -0.0001377   0.0000266
           13          14          15          16          17          18
    1  -0.0000136  -0.0000019  -0.0000227   0.0001106   0.0000026  -0.0000848
    2  -0.0001564  -0.0000010  -0.0000373   0.0006030   0.0000020  -0.0004450
    3   0.0006599   0.0000105  -0.0007128  -0.0003916  -0.0000031   0.0005149
           19          20          21          22          23
    1   0.0000057   0.0000126   0.0000208  -0.0000075  -0.0000041
    2  -0.0000115   0.0000777   0.0000191  -0.0000470  -0.0000137
    3   0.0000023  -0.0000797  -0.0000375   0.0000573   0.0000286
 Max gradient component =       7.128E-04
 RMS gradient           =       1.713E-04
 Gradient time:  CPU 4.59 s  wall 4.60 s
 Geometry Optimization Parameters
   NAtoms,    NIC,     NZ,  NCons,   NDum,   NFix, NCnnct, MaxDiis
       23     166       0       1       0       0       0       0

 Cartesian Hessian Update
 Hessian Updated using BFGS Update


** CONSTRAINED OPTIMIZATION IN DELOCALIZED INTERNAL COORDINATES **
   Searching for a Minimum

   Optimization Cycle:   5

                       Coordinates (Angstroms)
     ATOM                X               Y               Z
      1  H         6.2250483496   -0.2432012497    0.2385147750
      2  H         5.3139205476    2.2139019683   -0.0779256903
      3  C         5.1939634029    0.0620770815    0.1249060126
      4  C         4.6925446282    1.3265116487   -0.0397489608
      5  S         3.9327524646   -1.1288383881    0.1432535770
      6  C         3.2739804495    1.3464917676   -0.1682079967
      7  H         2.6984433838    2.2516291902   -0.3275946805
      8  C         2.6963134970    0.0942743208   -0.0979021638
      9  H         1.3300986990   -2.3806184517   -0.7011948404
     10  C         1.2963529820   -0.2712009395   -0.1959072209
     11  C         0.7360601841   -1.4986765965   -0.4886104568
     12  S         0.0361437801    0.9203315500    0.0727897096
     13  C        -0.6829600550   -1.4928752104   -0.4909344092
     14  H        -1.2858081021   -2.3740326248   -0.6800635604
     15  C        -1.2324491901   -0.2588723847   -0.2089724236
     16  C        -2.6297245864    0.1216056195   -0.1165627744
     17  H        -2.6436417943    1.7321660712    1.3349985905
     18  C        -3.2126345872    1.1038463506    0.6587586643
     19  S        -3.8535523887   -0.7139033266   -1.0573303363
     20  C        -4.6272360943    1.1813670220    0.5075416977
     21  C        -5.1193310642    0.2574433837   -0.3769117928
     22  H        -5.2533843156    1.8850402742    1.0440614400
     23  H        -6.1464218904    0.0880913437   -0.6698783099
   Point Group: c1    Number of degrees of freedom:    63


   Energy is  -1656.664223431

              Constraints and their Current Values
                                        Value     Constraint
   Dihedral:       13  15  16  18      150.000      150.000
 Hessian Updated using BFGS Update

 59 Hessian modes will be used to form the next step
  Hessian Eigenvalues:
     0.014206    0.033619    0.045000    0.045000    0.045000    0.045000
     0.045001    0.045001    0.045002    0.045003    0.045004    0.045009
     0.045015    0.045042    0.046269    0.055634    0.159829    0.159929
     0.159953    0.159961    0.159992    0.159999    0.160078    0.160123
     0.221292    0.221585    0.226814    0.237828    0.240097    0.249206
     0.249984    0.250066    0.250697    0.250935    0.293587    0.293771
     0.294742    0.294937    0.312586    0.312693    0.354733    0.354741
     0.354752    0.354784    0.355163    0.355170    0.358372    0.358418
     0.383322    0.384860    0.405817    0.407450    0.416275    0.458164
     0.461751    0.462241    0.485472    0.497282    0.497570

 Minimum Search - Taking Simple RFO Step
 Searching for Lamda that Minimizes Along All modes
 Value Taken    Lamda =   0.00000000
 Step Taken.  Stepsize is  0.005837

                             Maximum     Tolerance    Cnvgd?
         Gradient           0.000079      0.000300     YES
         Displacement       0.003039      0.001200      NO
         Energy change     -0.000002      0.000001      NO


 New Cartesian Coordinates Obtained by Inverse Iteration

 Displacement from previous Coordinates is:  0.012888
 ----------------------------------------------------------------
             Standard Nuclear Orientation (Angstroms)
    I     Atom           X                Y                Z
 ----------------------------------------------------------------
    1      H       6.2255640351    -0.2428852587     0.2355641113
    2      H       5.3134620733     2.2143705319    -0.0768442460
    3      C       5.1943102749     0.0622550910     0.1231002412
    4      C       4.6923756075     1.3267453041    -0.0394493373
    5      S       3.9334410657    -1.1290523009     0.1407097165
    6      C       3.2737033463     1.3464887888    -0.1668330474
    7      H       2.6977892033     2.2516931275    -0.3244387560
[...]
    5   -1656.6642239673      3.91E-07
    6   -1656.6642239682      3.00E-07
    7   -1656.6642239710      6.51E-08
    8   -1656.6642239704      2.30E-08
    9   -1656.6642239710      7.76E-09 Convergence criterion met
 ---------------------------------------
 SCF time:  CPU 9.72 s  wall 9.10 s
 SCF   energy in the final basis set = -1656.6642239710
 Total energy in the final basis set = -1656.6642239710
 
 --------------------------------------------------------------
 
                    Orbital Energies (a.u.)
 --------------------------------------------------------------
 
 Alpha MOs
 -- Occupied --
-88.921 -88.921 -88.921 -10.241 -10.241 -10.241 -10.240 -10.226
-10.226 -10.206 -10.206 -10.206 -10.206 -10.205 -10.205  -7.981
 -7.981  -7.981  -5.945  -5.945  -5.945  -5.941  -5.941  -5.941
 -5.938  -5.938  -5.937  -0.907  -0.892  -0.876  -0.787  -0.756
 -0.745  -0.745  -0.732  -0.698  -0.618  -0.597  -0.570  -0.560
 -0.536  -0.535  -0.529  -0.502  -0.462  -0.423  -0.421  -0.417
 -0.415  -0.408  -0.402  -0.399  -0.386  -0.378  -0.370  -0.361
 -0.350  -0.344  -0.295  -0.267  -0.263  -0.261  -0.248  -0.203
 -- Virtual --
 -0.070  -0.032  -0.007  -0.005  -0.000   0.005   0.007   0.008
  0.012   0.016   0.024   0.028   0.030   0.032   0.041   0.042
  0.047   0.050   0.053   0.055   0.059   0.061   0.071   0.077
  0.084   0.087   0.089   0.093   0.101   0.105   0.108   0.109
  0.114   0.116   0.119   0.124   0.126   0.127   0.130   0.132
  0.135   0.141   0.146   0.147   0.148   0.150   0.156   0.159
  0.164   0.164   0.170   0.171   0.178   0.182   0.183   0.190
  0.194   0.199   0.203   0.212   0.214   0.217   0.220   0.222
  0.224   0.232   0.233   0.244   0.249   0.252   0.262   0.266
  0.269   0.272   0.276   0.280   0.283   0.286   0.292   0.301
  0.315   0.322   0.326   0.331   0.344   0.352   0.357   0.360
  0.366   0.374   0.383   0.396   0.398   0.453   0.455   0.462
  0.498   0.509   0.520   0.532   0.536   0.560   0.571   0.579
  0.581   0.598   0.612   0.622   0.628   0.647   0.655   0.657
  0.661   0.664   0.669   0.686   0.691   0.699   0.715   0.716
  0.722   0.726   0.733   0.742   0.757   0.762   0.779   0.788
  0.789   0.818   0.821   0.829   0.832   0.840   0.850   0.868
  0.889   0.932   0.934   0.940   0.954   0.956   0.960   0.961
  0.968   0.972   0.980   0.986   0.993   0.996   1.008   1.027
  1.038   1.048   1.055   1.069   1.083   1.090   1.104   1.107
  1.109   1.134   1.151   1.164   1.167   1.183   1.204   1.224
  1.255   1.259   1.264   1.290   1.314   1.328   1.343   1.347
  1.354   1.359   1.363   1.376   1.449   1.457   1.488   1.493
  1.513   1.526   1.542   1.573   1.616   1.680   1.691   1.714
  1.747   1.796   1.837   1.858   1.866   1.887   1.890   1.908
  1.916   1.923   1.939   1.960   1.973   2.007   2.031   2.066
  2.068   2.081   2.099   2.111   2.153   2.175   2.179   2.197
  2.206   2.222   2.236   2.260   2.282   2.291   2.329   2.363
  2.366   2.421   2.439   2.444   2.452   2.461   2.466   2.483
  2.500   2.525   2.533   2.538   2.541   2.577   2.589   2.607
  2.628   2.669   2.682   2.706   2.710   2.724   2.821   2.864
  2.878   2.905   2.923   2.937   2.948   3.130   3.177   3.217
  3.271   3.272   3.326   3.414   3.415   3.674   3.730   3.738
  3.972   3.980   3.982   4.255   4.264   4.306   4.320   4.324
  4.352   4.390   4.482   4.548   4.646   4.695   4.727
 --------------------------------------------------------------
 
          Ground-State Mulliken Net Atomic Charges

     Atom                 Charge (a.u.)
  ----------------------------------------
      1 H                     0.196395
      2 H                     0.119492
      3 C                     0.032283
      4 C                    -0.339403
      5 S                    -0.118807
      6 C                     0.557902
      7 H                     0.128973
      8 C                    -0.493035
      9 H                     0.119458
     10 C                    -0.082104
     11 C                    -0.097295
     12 S                    -0.247184
     13 C                     0.144797
     14 H                     0.128513
     15 C                    -0.168842
     16 C                    -0.487518
     17 H                     0.136357
     18 C                     0.540802
     19 S                    -0.088691
     20 C                    -0.335442
     21 C                     0.039928
     22 H                     0.118292
     23 H                     0.195130
  ----------------------------------------
  Sum of atomic charges =     0.000000

 -----------------------------------------------------------------
                    Cartesian Multipole Moments
 -----------------------------------------------------------------
    Charge (ESU x 10^10)
                 0.0000
    Dipole Moment (Debye)
         X      -0.0130      Y       0.3950      Z       0.2032
       Tot       0.4444
    Quadrupole Moments (Debye-Ang)
        XX     -90.2927     XY       0.0685     YY    -103.0497
        XZ      -0.2257     YZ       3.3520     ZZ    -114.2043
    Octopole Moments (Debye-Ang^2)
       XXX      -8.8968    XXY      18.0530    XYY       5.6161
       YYY      -1.5616    XXZ      17.0313    XYZ     -12.8701
       YYZ      15.6340    XZZ     -13.6027    YZZ      -0.1089
       ZZZ      50.1769
    Hexadecapole Moments (Debye-Ang^3)
      XXXX   -6338.8002   XXXY      23.7219   XXYY   -1316.4254
      XYYY      79.2082   YYYY    -762.0828   XXXZ     -41.9629
      XXYZ      15.2100   XYYZ     -65.1491   YYYZ     -62.9842
      XXZZ   -1364.1465   XYZZ       8.1783   YYZZ    -185.5046
      XZZZ    -133.7187   YZZZ     -77.7664   ZZZZ    -309.1976
 -----------------------------------------------------------------
 Calculating analytic gradient of the SCF energy
 Gradient of SCF Energy
            1           2           3           4           5           6
    1   0.0000014   0.0000011   0.0000054   0.0000069  -0.0000091  -0.0000028
    2   0.0000014  -0.0000018  -0.0000050  -0.0000034   0.0000117  -0.0000063
    3  -0.0000001  -0.0000014  -0.0000019  -0.0000053   0.0000276  -0.0000423
            7           8           9          10          11          12
    1  -0.0000013   0.0000097   0.0000008  -0.0000075   0.0000015   0.0000012
    2  -0.0000027   0.0000015  -0.0000048   0.0000089   0.0000089  -0.0000296
    3  -0.0000022   0.0000188   0.0000272  -0.0000266  -0.0000504   0.0000586
           13          14          15          16          17          18
    1   0.0000066   0.0000001  -0.0000771   0.0001676  -0.0000031  -0.0000918
    2  -0.0001484  -0.0000066  -0.0000017   0.0006111  -0.0000152  -0.0004280
    3   0.0006349   0.0000336  -0.0007634  -0.0004267   0.0000154   0.0004945
           19          20          21          22          23
    1  -0.0000039   0.0000037  -0.0000024  -0.0000033  -0.0000035
    2  -0.0000095   0.0000182   0.0000189  -0.0000152  -0.0000024
    3   0.0000294  -0.0000232  -0.0000251   0.0000174   0.0000112
 Max gradient component =       7.634E-04
 RMS gradient           =       1.724E-04
 Gradient time:  CPU 4.56 s  wall 4.57 s
 Geometry Optimization Parameters
   NAtoms,    NIC,     NZ,  NCons,   NDum,   NFix, NCnnct, MaxDiis
       23     166       0       1       0       0       0       0

 Cartesian Hessian Update
 Hessian Updated using BFGS Update


** CONSTRAINED OPTIMIZATION IN DELOCALIZED INTERNAL COORDINATES **
   Searching for a Minimum

   Optimization Cycle:   6

                       Coordinates (Angstroms)
     ATOM                X               Y               Z
      1  H         6.2255640351   -0.2428852587    0.2355641113
      2  H         5.3134620733    2.2143705319   -0.0768442460
      3  C         5.1943102749    0.0622550910    0.1231002412
      4  C         4.6923756075    1.3267453041   -0.0394493373
      5  S         3.9334410657   -1.1290523009    0.1407097165
      6  C         3.2737033463    1.3464887888   -0.1668330474
      7  H         2.6977892033    2.2516931275   -0.3244387560
      8  C         2.6964021304    0.0940146638   -0.0977908760
      9  H         1.3299806916   -2.3809795333   -0.7008304774
     10  C         1.2964698027   -0.2716550569   -0.1951165984
     11  C         0.7360408034   -1.4991474538   -0.4875273417
     12  S         0.0362831373    0.9199232917    0.0735735081
     13  C        -0.6829627240   -1.4931331518   -0.4902979279
     14  H        -1.2858240445   -2.3743701430   -0.6790177502
     15  C        -1.2324586189   -0.2589964618   -0.2088155674
     16  C        -2.6296753630    0.1216035221   -0.1166499840
     17  H        -2.6437897449    1.7325177147    1.3345446433
     18  C        -3.2126715747    1.1041523349    0.6582548722
     19  S        -3.8536170720   -0.7145622902   -1.0567220382
     20  C        -4.6272776323    1.1815875232    0.5070164762
     21  C        -5.1194068879    0.2572597633   -0.3769814061
     22  H        -5.2532713842    1.8864124754    1.0421989991
     23  H        -6.1463888253    0.0883159378   -0.6705683638
   Point Group: c1    Number of degrees of freedom:    63


   Energy is  -1656.664223971

              Constraints and their Current Values
                                        Value     Constraint
   Dihedral:       13  15  16  18      150.000      150.000
 Hessian Updated using BFGS Update

 62 Hessian modes will be used to form the next step
  Hessian Eigenvalues:
     0.010261    0.024490    0.045000    0.045000    0.045000    0.045000
     0.045000    0.045001    0.045001    0.045001    0.045002    0.045003
     0.045004    0.045009    0.045013    0.045015    0.045374    0.048322
     0.057400    0.159825    0.159911    0.159953    0.159971    0.159991
     0.160010    0.160047    0.160159    0.221294    0.221672    0.226942
     0.237851    0.241020    0.249726    0.250012    0.250109    0.250256
     0.259441    0.293550    0.293713    0.294747    0.294914    0.312584
     0.312734    0.354735    0.354750    0.354755    0.354797    0.355163
     0.355174    0.358373    0.358443    0.383307    0.384950    0.405897
     0.408173    0.416809    0.458339    0.461975    0.462742    0.485724
     0.497312    0.497599

 Minimum Search - Taking Simple RFO Step
 Searching for Lamda that Minimizes Along All modes
 Value Taken    Lamda =   0.00000000
 Step Taken.  Stepsize is  0.006151

                             Maximum     Tolerance    Cnvgd?
         Gradient           0.000066      0.000300     YES
         Displacement       0.004111      0.001200      NO
         Energy change     -0.000001      0.000001     YES

 Final energy is   -1656.66422397099     


 ******************************
 **  OPTIMIZATION CONVERGED  **
 ******************************

                       Coordinates (Angstroms)
     ATOM                X               Y               Z
      1  H         6.2255640351   -0.2428852587    0.2355641113
      2  H         5.3134620733    2.2143705319   -0.0768442460
      3  C         5.1943102749    0.0622550910    0.1231002412
      4  C         4.6923756075    1.3267453041   -0.0394493373
      5  S         3.9334410657   -1.1290523009    0.1407097165
      6  C         3.2737033463    1.3464887888   -0.1668330474
      7  H         2.6977892033    2.2516931275   -0.3244387560
      8  C         2.6964021304    0.0940146638   -0.0977908760
      9  H         1.3299806916   -2.3809795333   -0.7008304774
     10  C         1.2964698027   -0.2716550569   -0.1951165984
     11  C         0.7360408034   -1.4991474538   -0.4875273417
     12  S         0.0362831373    0.9199232917    0.0735735081
     13  C        -0.6829627240   -1.4931331518   -0.4902979279
     14  H        -1.2858240445   -2.3743701430   -0.6790177502
     15  C        -1.2324586189   -0.2589964618   -0.2088155674
     16  C        -2.6296753630    0.1216035221   -0.1166499840
     17  H        -2.6437897449    1.7325177147    1.3345446433
     18  C        -3.2126715747    1.1041523349    0.6582548722
     19  S        -3.8536170720   -0.7145622902   -1.0567220382
     20  C        -4.6272776323    1.1815875232    0.5070164762
     21  C        -5.1194068879    0.2572597633   -0.3769814061
     22  H        -5.2532713842    1.8864124754    1.0421989991
     23  H        -6.1463888253    0.0883159378   -0.6705683638

Z-matrix Print:
$molecule
0 1
S 
C  1 1.754794
C  2 1.379953 1 110.228141
H  3 1.084267 2 122.749619 1 178.790142 0
C  3 1.419019 2 113.677413 1 -0.279970 0
H  5 1.084385 3 123.420347 2 -179.212458 0
C  5 1.380696 3 113.737325 2 0.406784 0
C  7 1.450171 5 129.067199 3 179.674599 0
C  8 1.380846 7 128.972911 5 160.534717 0
H  9 1.084395 8 122.845834 7 -0.807050 0
C  9 1.424517 8 113.535698 7 -179.568657 0
H  11 1.083986 9 123.792085 8 179.545057 0
C  11 1.370145 9 112.844650 8 0.139936 0
H  13 1.081315 11 128.473226 9 179.509986 0
C  2 1.451057 1 120.647304 3 179.347201 0
C  15 1.380494 2 128.974631 1 -29.210456 0
H  16 1.084360 15 122.749565 2 -0.626728 0
C  16 1.424774 15 113.477839 2 -179.004476 0
H  18 1.084005 16 123.799798 15 179.452770 0
C  18 1.370411 16 112.852666 15 0.216670 0
H  20 1.081401 18 128.428601 16 179.342687 0
S  20 1.734563 18 111.630688 16 -0.698368 0
S  13 1.734738 11 111.636595 9 -0.630430 0
$end

 
 --------------------------------------------------------------
 
                    Orbital Energies (a.u.)
 --------------------------------------------------------------
 
 Alpha MOs
 -- Occupied --
-88.921 -88.921 -88.921 -10.241 -10.241 -10.241 -10.240 -10.226
-10.226 -10.206 -10.206 -10.206 -10.206 -10.205 -10.205  -7.981
 -7.981  -7.981  -5.945  -5.945  -5.945  -5.941  -5.941  -5.941
 -5.938  -5.938  -5.937  -0.907  -0.892  -0.876  -0.787  -0.756
 -0.745  -0.745  -0.732  -0.698  -0.618  -0.597  -0.570  -0.560
 -0.536  -0.535  -0.529  -0.502  -0.462  -0.423  -0.421  -0.417
 -0.415  -0.408  -0.402  -0.399  -0.386  -0.378  -0.370  -0.361
 -0.350  -0.344  -0.295  -0.267  -0.263  -0.261  -0.248  -0.203
 -- Virtual --
 -0.070  -0.032  -0.007  -0.005  -0.000   0.005   0.007   0.008
  0.012   0.016   0.024   0.028   0.030   0.032   0.041   0.042
  0.047   0.050   0.053   0.055   0.059   0.061   0.071   0.077
  0.084   0.087   0.089   0.093   0.101   0.105   0.108   0.109
  0.114   0.116   0.119   0.124   0.126   0.127   0.130   0.132
  0.135   0.141   0.146   0.147   0.148   0.150   0.156   0.159
  0.164   0.164   0.170   0.171   0.178   0.182   0.183   0.190
  0.194   0.199   0.203   0.212   0.214   0.217   0.220   0.222
  0.224   0.232   0.233   0.244   0.249   0.252   0.262   0.266
  0.269   0.272   0.276   0.280   0.283   0.286   0.292   0.301
  0.315   0.322   0.326   0.331   0.344   0.352   0.357   0.360
  0.366   0.374   0.383   0.396   0.398   0.453   0.455   0.462
  0.498   0.509   0.520   0.532   0.536   0.560   0.571   0.579
  0.581   0.598   0.612   0.622   0.628   0.647   0.655   0.657
  0.661   0.664   0.669   0.686   0.691   0.699   0.715   0.716
  0.722   0.726   0.733   0.742   0.757   0.762   0.779   0.788
  0.789   0.818   0.821   0.829   0.832   0.840   0.850   0.868
  0.889   0.932   0.934   0.940   0.954   0.956   0.960   0.961
  0.968   0.972   0.980   0.986   0.993   0.996   1.008   1.027
  1.038   1.048   1.055   1.069   1.083   1.090   1.104   1.107
  1.109   1.134   1.151   1.164   1.167   1.183   1.204   1.224
  1.255   1.259   1.264   1.290   1.314   1.328   1.343   1.347
  1.354   1.359   1.363   1.376   1.449   1.457   1.488   1.493
  1.513   1.526   1.542   1.573   1.616   1.680   1.691   1.714
  1.747   1.796   1.837   1.858   1.866   1.887   1.890   1.908
  1.916   1.923   1.939   1.960   1.973   2.007   2.031   2.066
  2.068   2.081   2.099   2.111   2.153   2.175   2.179   2.197
  2.206   2.222   2.236   2.260   2.282   2.291   2.329   2.363
  2.366   2.421   2.439   2.444   2.452   2.461   2.466   2.483
  2.500   2.525   2.533   2.538   2.541   2.577   2.589   2.607
  2.628   2.669   2.682   2.706   2.710   2.724   2.821   2.864
  2.878   2.905   2.923   2.937   2.948   3.130   3.177   3.217
  3.271   3.272   3.326   3.414   3.415   3.674   3.730   3.738
  3.972   3.980   3.982   4.255   4.264   4.306   4.320   4.324
  4.352   4.390   4.482   4.548   4.646   4.695   4.727
 --------------------------------------------------------------
 
          Ground-State Mulliken Net Atomic Charges

     Atom                 Charge (a.u.)
  ----------------------------------------
      1 H                     0.196395
      2 H                     0.119492
      3 C                     0.032283
      4 C                    -0.339403
      5 S                    -0.118807
      6 C                     0.557902
      7 H                     0.128973
      8 C                    -0.493035
      9 H                     0.119458
     10 C                    -0.082104
     11 C                    -0.097295
     12 S                    -0.247184
     13 C                     0.144797
     14 H                     0.128513
     15 C                    -0.168842
     16 C                    -0.487518
     17 H                     0.136357
     18 C                     0.540802
     19 S                    -0.088691
     20 C                    -0.335442
     21 C                     0.039928
     22 H                     0.118292
     23 H                     0.195130
  ----------------------------------------
  Sum of atomic charges =     0.000000

 -----------------------------------------------------------------
                    Cartesian Multipole Moments
 -----------------------------------------------------------------
    Charge (ESU x 10^10)
                 0.0000
    Dipole Moment (Debye)
         X      -0.0130      Y       0.3950      Z       0.2032
       Tot       0.4444
    Quadrupole Moments (Debye-Ang)
        XX     -90.2927     XY       0.0685     YY    -103.0497
        XZ      -0.2257     YZ       3.3520     ZZ    -114.2043
    Octopole Moments (Debye-Ang^2)
       XXX      -8.8968    XXY      18.0530    XYY       5.6161
       YYY      -1.5616    XXZ      17.0313    XYZ     -12.8701
       YYZ      15.6340    XZZ     -13.6027    YZZ      -0.1089
       ZZZ      50.1769
    Hexadecapole Moments (Debye-Ang^3)
      XXXX   -6338.8002   XXXY      23.7219   XXYY   -1316.4254
      XYYY      79.2082   YYYY    -762.0828   XXXZ     -41.9629
      XXYZ      15.2100   XYYZ     -65.1491   YYYZ     -62.9842
      XXZZ   -1364.1465   XYZZ       8.1783   YYZZ    -185.5046
      XZZZ    -133.7187   YZZZ     -77.7664   ZZZZ    -309.1976
 -----------------------------------------------------------------
Archival summary:
1\1\nid00497\OPT\ProcedureUnspecified\BasisUnspecified\3128\bwood\TueMay3010:54:202017TueMay3010:54:202017\0\\#,OPT,ProcedureUnspecified,BasisUnspecified,\\0,1\S\C,1,1.75479\C,2,1.37995,1,110.228\H,3,1.08427,2,122.75,1,178.79,0\C,3,1.41902,2,113.677,1,-0.27997,0\H,5,1.08438,3,123.42,2,-179.212,0\C,5,1.3807,3,113.737,2,0.406784,0\C,7,1.45017,5,129.067,3,179.675,0\C,8,1.38085,7,128.973,5,160.535,0\H,9,1.08439,8,122.846,7,-0.80705,0\C,9,1.42452,8,113.536,7,-179.569,0\H,11,1.08399,9,123.792,8,179.545,0\C,11,1.37014,9,112.845,8,0.139936,0\H,13,1.08132,11,128.473,9,179.51,0\C,2,1.45106,1,120.647,3,179.347,0\C,15,1.38049,2,128.975,1,-29.2105,0\H,16,1.08436,15,122.75,2,-0.626728,0\C,16,1.42477,15,113.478,2,-179.004,0\H,18,1.084,16,123.8,15,179.453,0\C,18,1.37041,16,112.853,15,0.21667,0\H,20,1.0814,18,128.429,16,179.343,0\S,20,1.73456,18,111.631,16,-0.698368,0\S,13,1.73474,11,111.637,9,-0.63043,0\\\@

 Total job time:  96.85s(wall), 101.73s(cpu) 
 Tue May 30 10:54:20 2017

        *************************************************************
        *                                                           *
        *  Thank you very much for using Q-Chem.  Have a nice day.  *
        *                                                           *
        *************************************************************


0 sent ACK to 0 
now end server 0 ... 
