srun -N 1 --ntasks-per-node 22 --cpus-per-task 2 --cpu_bind=cores --nodelist nid00500 /global/project/projectdirs/jcesr/qchem/qc44/cnl_qc441/dist/exe/qcprog.cori.haswell.exe .pt_nn_neutral_160.0.in.36911.qcin.1 /dev/shm/eg_qchem/qchem36911/
Process 2 of 22 is on nid00500 - thread support 0
Process 3 of 22 is on nid00500 - thread support 0
Process 4 of 22 is on nid00500 - thread support 0
Process 0 of 22 is on nid00500 - thread support 0
Process 1 of 22 is on nid00500 - thread support 0
Process 5 of 22 is on nid00500 - thread support 0
Process 6 of 22 is on nid00500 - thread support 0
Process 21 of 22 is on nid00500 - thread support 0
initial socket setup ...start
initial socket setup ...done 
now start server 0 ... 
nid00500 10.128.1
Q-Chem Developer Version! Running on 10.128.1.*
                  Welcome to Q-Chem
     A Quantum Leap Into The Future Of Chemistry


 Q-Chem 4.4, Q-Chem, Inc., Pleasanton, CA (2016)

 Y. Shao,  Z. Gan,  E. Epifanovsky,  A. T. B. Gilbert,  M. Wormit,  
 J. Kussmann,  A. W. Lange,  A. Behn,  J. Deng,  X. Feng,  D. Ghosh,  
 M. Goldey,  P. R. Horn,  L. D. Jacobson,  I. Kaliman,  F. Rob,  
 R. Z. Khaliullin,  T. Kus,  A. Landau,  J. Liu,  E. I. Proynov,  Y. M. Rhee,  
 R. M. Richard,  M. A. Rohrdanz,  R. P. Steele,  E. J. Sundstrom,  
 H. L. Woodcock III,  P. M. Zimmerman,  D. Zuev,  B. Albrecht,  E. Alguire,  
 B. Austin,  S. A. Baeppler,  G. J. O. Beran,  Y. A. Bernard,  
 E. J. Berquist,  K. Brandhorst,  K. B. Bravaya,  S. T. Brown,  D. Casanova,  
 C.-M. Chang,  Y. Chen,  S. H. Chien,  K. D. Closser,  M. P. Coons,  
 D. L. Crittenden,  S. Dasgupta,  M. Diedenhofen,  R. A. DiStasio Jr.,  
 H. Do,  A. D. Dutoi,  R. G. Edgar,  P.-T. Fang,  S. Fatehi,  Q. Feng,  
 L. Fusti-Molnar,  A. Ghysels,  A. Golubeva-Zadorozhnaya,  J. Gomes,  
 A. Gunina,  M. W. D. Hanson-Heine,  P. H. P. Harbach,  A. W. Hauser,  
 J. E. Herr,  E. G. Hohenstein,  Z. C. Holden,  K. Hui,  T.-C. Jagau,  H. Ji,  
 B. Kaduk,  K. Khistyaev,  Jaehoon Kim,  Jihan Kim,  R. A. King,  
 P. Klunzinger,  K. Koh,  D. Kosenkov,  T. Kowalczyk,  C. M. Krauter,  
 A. Kunitsa,  K. U. Lao,  A. Laurent,  K. V. Lawler,  J. Lee,  D. Lefrancois,  
 S. Lehtola,  S. V. Levchenko,  C. Y. Lin,  Y.-S. Lin,  F. Liu,  E. Livshits,  
 R. C. Lochan,  A. Luenser,  P. Manohar,  S. F. Manzer,  S.-P. Mao,  Y. Mao,  
 N. Mardirossian,  A. V. Marenich,  L. A. Martinez-Martinez,  S. A. Maurer,  
 N. J. Mayhall,  J.-M. Mewes,  A. F. Morrison,  K. Nanda,  T. S. Nguyen-Beck,  
 C. M. Oana,  R. Olivares-Amaya,  D. P. O'Neill,  J. A. Parkhill,  
 T. M. Perrine,  R. Peverati,  P. A. Pieniazek,  F. Plasser,  A. Prociuk,  
 D. R. Rehn,  E. Rosta,  N. J. Russ,  N. Sergueev,  S. M. Sharada,  
 S. Sharma,  D. W. Small,  A. Sodt,  T. Stauch,  T. Stein,  D. Stuck,  
 Y.-C. Su,  A. J. W. Thom,  T. Tsuchimochi,  L. Vogt,  O. Vydrov,  T. Wang,  
 M. A. Watson,  J. Wenzel,  A. White,  C. F. Williams,  V. Vanovschi,  
 K. Yao,  S. Yeganeh,  S. R. Yost,  Z.-Q. You,  I. Y. Zhang,  X. Zhang,  
 Y. Zhao,  B. R. Brooks,  G. K. L. Chan,  D. M. Chipman,  C. J. Cramer,  
 W. A. Goddard III,  M. S. Gordon,  W. J. Hehre,  A. Klamt,  
 H. F. Schaefer III,  M. W. Schmidt,  C. D. Sherrill,  D. G. Truhlar,  
 A. Warshel,  X. Xu,  A. Aspuru-Guzik,  R. Baer,  A. T. Bell,  N. A. Besley,  
 J.-D. Chai,  A. Dreuw,  B. D. Dunietz,  T. R. Furlani,  S. R. Gwaltney,  
 C.-P. Hsu,  Y. Jung,  J. Kong,  D. S. Lambrecht,  W. Liang,  C. Ochsenfeld,  
 V. A. Rassolov,  L. V. Slipchenko,  J. E. Subotnik,  T. Van Voorhis,  
 J. M. Herbert,  A. I. Krylov,  P. M. W. Gill,  M. Head-Gordon

 Contributors to earlier versions of Q-Chem not listed above: 
 R. D. Adamson,  J. Baker,  E. F. C. Byrd,  A. K. Chakraborty,  C.-L. Cheng,  
 H. Dachsel,  R. J. Doerksen,  G. Hawkins,  A. Heyden,  S. Hirata,  
 G. Kedziora,  F. J. Keil,  C. Kelley,  P. P. Korambath,  W. Kurlancheek,  
 A. M. Lee,  M. S. Lee,  D. Liotard,  I. Lotan,  P. E. Maslen,  N. Nair,  
 D. Neuhauser,  R. Olson,  B. Peters,  J. Ritchie,  N. E. Schultz,  
 N. Shenvi,  A. C. Simmonett,  K. S. Thanthiriwatte,  Q. Wu,  W. Zhang

 Please cite Q-Chem as follows:
 Y. Shao et al., Mol. Phys. 113, 184-215 (2015)
 DOI: 10.1080/00268976.2014.952696

 Q-Chem 4.4.2 for Intel X86 EM64T Linux

 Parts of Q-Chem use Armadillo 5.200.1 (Boston Tea Smuggler).
 http://arma.sourceforge.net/

 Q-Chem begins on Tue May 30 10:52:40 2017  

Host: nid00478
0

     Scratch files written to /dev/shm/eg_qchem/qchem36911.0//
 Parallel job on  22  processors

Checking the input file for inconsistencies... 	...done.

--------------------------------------------------------------
User input:
--------------------------------------------------------------
$molecule
 0  1
 H           6.23254100       -0.22338900        0.17638100
 H           5.29752400        2.22850500       -0.10953100
 C           5.19733500        0.07486000        0.08356300
 C           4.68347900        1.33634400       -0.06443600
 S           3.94559900       -1.12581000        0.11905200
 C           3.26267300        1.34659400       -0.16511200
 H           2.67740100        2.24810800       -0.30841700
 C           2.69562400        0.08941900       -0.09094600
 H           1.33241900       -2.39005500       -0.68762600
 C           1.29739300       -0.28590200       -0.16150800
 C           0.73808300       -1.51455700       -0.45078400
 S           0.03601800        0.89451200        0.14982500
 C          -0.68041100       -1.51067300       -0.44936800
 H          -1.28012400       -2.38277100       -0.68510300
 C          -1.23220500       -0.27900200       -0.15852500
 C          -2.62830100        0.10383400       -0.08465000
 H          -2.61633510        1.93185389        1.08397649
 C          -3.19903335        1.19045931        0.54861791
 S          -3.87023765       -0.86270745       -0.86343863
 C          -4.61461590        1.25418247        0.40343125
 C          -5.12032749        0.22014659       -0.33975041
 H          -5.22923969        2.04072757        0.82607308
 H          -6.14919832        0.02612195       -0.60992907
$end


$rem
         jobtype = opt
        exchange = b3lyp
           basis = 6-31++g**
  max_scf_cycles = 150
      mem_static = 281
       mem_total = 2818
      sym_ignore = true
        symmetry = false
          thresh = 12
$end


$opt
CONSTRAINT
tors 13 15 16 18 160.0
ENDCONSTRAINT
$end

--------------------------------------------------------------
 ----------------------------------------------------------------
             Standard Nuclear Orientation (Angstroms)
    I     Atom           X                Y                Z
 ----------------------------------------------------------------
    1      H       6.2325410000    -0.2233890000     0.1763810000
    2      H       5.2975240000     2.2285050000    -0.1095310000
    3      C       5.1973350000     0.0748600000     0.0835630000
    4      C       4.6834790000     1.3363440000    -0.0644360000
    5      S       3.9455990000    -1.1258100000     0.1190520000
    6      C       3.2626730000     1.3465940000    -0.1651120000
    7      H       2.6774010000     2.2481080000    -0.3084170000
    8      C       2.6956240000     0.0894190000    -0.0909460000
    9      H       1.3324190000    -2.3900550000    -0.6876260000
   10      C       1.2973930000    -0.2859020000    -0.1615080000
   11      C       0.7380830000    -1.5145570000    -0.4507840000
   12      S       0.0360180000     0.8945120000     0.1498250000
   13      C      -0.6804110000    -1.5106730000    -0.4493680000
   14      H      -1.2801240000    -2.3827710000    -0.6851030000
   15      C      -1.2322050000    -0.2790020000    -0.1585250000
   16      C      -2.6283010000     0.1038340000    -0.0846500000
   17      H      -2.6163351000     1.9318538900     1.0839764900
   18      C      -3.1990333500     1.1904593100     0.5486179100
   19      S      -3.8702376500    -0.8627074500    -0.8634386300
   20      C      -4.6146159000     1.2541824700     0.4034312500
   21      C      -5.1203274900     0.2201465900    -0.3397504100
   22      H      -5.2292396900     2.0407275700     0.8260730800
   23      H      -6.1491983200     0.0261219500    -0.6099290700
 ----------------------------------------------------------------
 Nuclear Repulsion Energy =  1173.1197258197 hartrees
 There are       64 alpha and       64 beta electrons
 Requested basis set is 6-31++G(d,p)
 There are 110 shells and 345 basis functions

 Total QAlloc Memory Limit   2818 MB
 Mega-Array Size       275 MB
 MEM_STATIC part       281 MB
 A cutoff of  1.0D-12 yielded   4682 shell pairs
 There are     47610 function pairs

 Q-Chem warning in module /project/projectdirs/jcesr/qchem/qc44/cnl_qc441/compile/cori/qc_src/libqints/qchem/aobasis.C, line 68:

 Using reconstructed effective core potential

 
 -------------------------------------------------------
 OpenMP Integral Computing Module                       
 Release: version 1.0, May 2013, Q-Chem Inc. Pittsburgh 
 -------------------------------------------------------
 Integral Job Info:
 Integral job number is                      11
 Integral operator is                         1
 short-range coefficients                     0
 long-range coefficients              100000000
 Omega coefficients                           0
 if combine SR and LR in K                    0
 Integral screening is                        0
 Integral computing path is                   2
 max size of driver memory is            800000
 size of driver memory is                593474
 size of scratch memory is             15166112
 max col of scratch BK array               1296
 max len of scratch array in speh3          155
 max len of scratch index in speh4           18
 max int batch size is                      520
 min int batch size is                       52
 fixed nKL is                                52
 max L of basis functions is                  2
 order of int derivative is                   0
 number of shells is                        110
 number of basis is                         345
 number of cartesian basis is               345
 number of contracted shell pairs          4682
 number of primitive shell pairs          14648
 maxK2 (contraction) of shell pair           36
 max number of K2 of shell pair               1
 max number of CS2 of shell pair            518
 max number of PS2 of shell pair           3036
 mem total for path MDJ                  101082
 -------------------------------------------------------
 Smallest overlap matrix eigenvalue = 6.99E-08
 Linear dependence detected in AO basis
 Number of orthogonalized atomic orbitals = 343
 Maximum deviation from orthogonality = 2.539E-10

 Scale SEOQF with 1.000000e-02/1.000000e-01/1.000000e-01

 Standard Electronic Orientation quadrupole field applied
 Nucleus-field energy     =     0.0000000130 hartrees
 Guess from superposition of atomic densities
 Warning:  Energy on first SCF cycle will be non-variational
 A restricted hybrid HF-DFT SCF calculation will be
 performed using Pulay DIIS extrapolation
 Exchange:     0.2000 Hartree-Fock + 0.0800 Slater + 0.7200 B88
 Correlation:  0.1900 VWN1RPA + 0.8100 LYP
 Using SG-1 standard quadrature grid
 SCF converges when DIIS error is below 1.0E-08
 ---------------------------------------
  Cycle       Energy         DIIS Error
 ---------------------------------------
    1   -1660.3011336182      3.68E-02
    2   -1656.4162855682      3.85E-03
    3   -1656.0874061964      5.78E-03
    4   -1656.6454227660      1.05E-03
    5   -1656.6586719280      5.74E-04
    6   -1656.6636552769      1.64E-04
    7   -1656.6640476743      6.84E-05
    8   -1656.6641178056      1.40E-05
    9   -1656.6641205567      5.35E-06
   10   -1656.6641210129      1.80E-06
   11   -1656.6641210697      3.95E-07
   12   -1656.6641210705      2.56E-07
   13   -1656.6641210717      7.29E-08
   14   -1656.6641210717      1.88E-08
   15   -1656.6641210719      3.02E-09 Convergence criterion met
 ---------------------------------------
 SCF time:  CPU 16.34 s  wall 15.24 s
 SCF   energy in the final basis set = -1656.6641210719
 Total energy in the final basis set = -1656.6641210719
 
 --------------------------------------------------------------
 
                    Orbital Energies (a.u.)
 --------------------------------------------------------------
 
 Alpha MOs
 -- Occupied --
-88.921 -88.921 -88.921 -10.241 -10.241 -10.241 -10.241 -10.226
-10.226 -10.207 -10.206 -10.206 -10.206 -10.205 -10.205  -7.981
 -7.981  -7.981  -5.945  -5.945  -5.945  -5.941  -5.941  -5.941
 -5.938  -5.938  -5.937  -0.907  -0.893  -0.876  -0.788  -0.757
 -0.745  -0.745  -0.732  -0.698  -0.618  -0.598  -0.570  -0.560
 -0.536  -0.535  -0.530  -0.502  -0.462  -0.423  -0.422  -0.417
 -0.416  -0.409  -0.402  -0.399  -0.387  -0.379  -0.370  -0.361
 -0.350  -0.344  -0.297  -0.268  -0.263  -0.260  -0.249  -0.201
 -- Virtual --
 -0.072  -0.032  -0.007  -0.005  -0.000   0.006   0.007   0.008
  0.012   0.016   0.024   0.029   0.029   0.032   0.041   0.043
  0.047   0.051   0.054   0.055   0.060   0.062   0.072   0.077
  0.083   0.088   0.089   0.092   0.100   0.105   0.108   0.109
  0.114   0.116   0.119   0.124   0.126   0.127   0.129   0.133
  0.136   0.139   0.146   0.147   0.149   0.150   0.156   0.162
  0.165   0.166   0.171   0.172   0.180   0.181   0.183   0.192
  0.193   0.200   0.203   0.211   0.214   0.217   0.218   0.224
  0.224   0.233   0.238   0.242   0.247   0.248   0.266   0.268
  0.269   0.273   0.278   0.281   0.285   0.287   0.292   0.304
  0.317   0.323   0.324   0.334   0.344   0.353   0.359   0.361
  0.364   0.373   0.386   0.397   0.398   0.453   0.454   0.461
  0.500   0.509   0.518   0.528   0.531   0.564   0.571   0.581
  0.582   0.600   0.607   0.622   0.632   0.648   0.654   0.657
  0.660   0.663   0.667   0.681   0.694   0.697   0.714   0.715
  0.720   0.725   0.733   0.740   0.759   0.760   0.780   0.786
  0.788   0.821   0.824   0.831   0.833   0.840   0.852   0.869
  0.887   0.930   0.933   0.942   0.952   0.954   0.960   0.961
  0.967   0.974   0.981   0.985   0.992   0.996   1.006   1.028
  1.039   1.049   1.058   1.072   1.084   1.095   1.104   1.110
  1.110   1.150   1.151   1.166   1.169   1.183   1.205   1.235
  1.254   1.264   1.267   1.288   1.310   1.331   1.344   1.347
  1.350   1.361   1.362   1.376   1.447   1.464   1.491   1.493
  1.505   1.517   1.549   1.580   1.631   1.679   1.690   1.711
  1.739   1.797   1.836   1.862   1.865   1.890   1.891   1.909
  1.914   1.924   1.933   1.959   1.966   2.008   2.036   2.065
  2.066   2.076   2.100   2.113   2.158   2.174   2.181   2.194
  2.205   2.222   2.234   2.260   2.280   2.293   2.331   2.363
  2.365   2.419   2.439   2.445   2.447   2.464   2.471   2.480
  2.500   2.523   2.534   2.536   2.542   2.574   2.588   2.609
  2.632   2.668   2.685   2.706   2.712   2.724   2.827   2.866
  2.881   2.914   2.926   2.939   2.951   3.129   3.178   3.220
  3.271   3.273   3.326   3.414   3.415   3.674   3.730   3.739
  3.971   3.981   3.981   4.259   4.261   4.306   4.319   4.322
  4.350   4.388   4.482   4.549   4.647   4.696   4.728
 --------------------------------------------------------------
 
          Ground-State Mulliken Net Atomic Charges

     Atom                 Charge (a.u.)
  ----------------------------------------
      1 H                     0.196460
      2 H                     0.119583
      3 C                     0.025421
      4 C                    -0.308245
      5 S                    -0.116738
      6 C                     0.607303
      7 H                     0.133313
      8 C                    -0.470563
      9 H                     0.123145
     10 C                    -0.168108
     11 C                     0.053129
     12 S                    -0.317077
     13 C                    -0.005003
     14 H                     0.120612
     15 C                    -0.126804
     16 C                    -0.474650
     17 H                     0.130046
     18 C                     0.550867
     19 S                    -0.114453
     20 C                    -0.297308
     21 C                     0.023218
     22 H                     0.119543
     23 H                     0.196309
  ----------------------------------------
  Sum of atomic charges =     0.000000

 -----------------------------------------------------------------
                    Cartesian Multipole Moments
 -----------------------------------------------------------------
    Charge (ESU x 10^10)
                 0.0000
    Dipole Moment (Debye)
         X       0.0051      Y       0.4957      Z       0.0245
       Tot       0.4963
    Quadrupole Moments (Debye-Ang)
        XX     -90.3703     XY      -0.1634     YY    -102.2274
        XZ       0.0629     YZ       3.2364     ZZ    -114.9812
    Octopole Moments (Debye-Ang^2)
       XXX      -8.3358    XXY      20.0418    XYY       2.2812
       YYY       5.9860    XXZ      11.5523    XYZ     -11.7733
       YYZ      12.5903    XZZ     -10.4543    YZZ       0.5903
       ZZZ      41.1847
    Hexadecapole Moments (Debye-Ang^3)
      XXXX   -6342.1087   XXXY      10.6110   XXYY   -1308.9279
      XYYY      53.3761   YYYY    -790.8104   XXXZ     -20.2282
      XXYZ      11.8107   XYYZ     -55.5273   YYYZ     -57.8420
      XXZZ   -1374.0236   XYZZ       6.4450   YYZZ    -185.8272
      XZZZ    -105.4271   YZZZ     -77.9287   ZZZZ    -265.9258
 -----------------------------------------------------------------
 Calculating analytic gradient of the SCF energy
 Gradient of SCF Energy
            1           2           3           4           5           6
    1  -0.0000197   0.0000055   0.0000246  -0.0000181  -0.0001081   0.0000818
    2  -0.0000063  -0.0000028   0.0000662  -0.0000170  -0.0000314   0.0000941
    3   0.0000683   0.0000016   0.0000099  -0.0000532  -0.0000403   0.0000262
            7           8           9          10          11          12
    1   0.0000051  -0.0001125   0.0000044   0.0000976  -0.0001121  -0.0000730
    2  -0.0000130   0.0000972   0.0000185   0.0003967  -0.0003420  -0.0003189
    3   0.0000002  -0.0005457  -0.0000830  -0.0014399   0.0013941   0.0012738
           13          14          15          16          17          18
    1  -0.0000086   0.0000018  -0.0000940   0.0005235   0.0001279  -0.0002856
    2  -0.0006932   0.0003093   0.0005073   0.0006517   0.0006847  -0.0011364
    3   0.0021237  -0.0012317  -0.0015499  -0.0013756  -0.0010976   0.0020175
           19          20          21          22          23
    1  -0.0001993  -0.0001144   0.0001862  -0.0000012   0.0000882
    2  -0.0006782  -0.0008073   0.0008383   0.0000351   0.0003473
    3   0.0012456   0.0012074  -0.0013848  -0.0000930  -0.0004736
 Max gradient component =       2.124E-03
 RMS gradient           =       6.874E-04
 Gradient time:  CPU 4.71 s  wall 4.61 s
 Geometry Optimization Parameters
   NAtoms,    NIC,     NZ,  NCons,   NDum,   NFix, NCnnct, MaxDiis
       23     166       0       1       0       0       0       0


** CONSTRAINED OPTIMIZATION IN DELOCALIZED INTERNAL COORDINATES **
   Searching for a Minimum

   Optimization Cycle:   1

                       Coordinates (Angstroms)
     ATOM                X               Y               Z
      1  H         6.2325410000   -0.2233890000    0.1763810000
      2  H         5.2975240000    2.2285050000   -0.1095310000
      3  C         5.1973350000    0.0748600000    0.0835630000
      4  C         4.6834790000    1.3363440000   -0.0644360000
      5  S         3.9455990000   -1.1258100000    0.1190520000
      6  C         3.2626730000    1.3465940000   -0.1651120000
      7  H         2.6774010000    2.2481080000   -0.3084170000
      8  C         2.6956240000    0.0894190000   -0.0909460000
      9  H         1.3324190000   -2.3900550000   -0.6876260000
     10  C         1.2973930000   -0.2859020000   -0.1615080000
     11  C         0.7380830000   -1.5145570000   -0.4507840000
     12  S         0.0360180000    0.8945120000    0.1498250000
     13  C        -0.6804110000   -1.5106730000   -0.4493680000
     14  H        -1.2801240000   -2.3827710000   -0.6851030000
     15  C        -1.2322050000   -0.2790020000   -0.1585250000
     16  C        -2.6283010000    0.1038340000   -0.0846500000
     17  H        -2.6163351000    1.9318538900    1.0839764900
     18  C        -3.1990333500    1.1904593100    0.5486179100
     19  S        -3.8702376500   -0.8627074500   -0.8634386300
     20  C        -4.6146159000    1.2541824700    0.4034312500
     21  C        -5.1203274900    0.2201465900   -0.3397504100
     22  H        -5.2292396900    2.0407275700    0.8260730800
     23  H        -6.1491983200    0.0261219500   -0.6099290700
   Point Group: c1    Number of degrees of freedom:    63


   Energy is  -1656.664121072

              Constraints and their Current Values
                                        Value     Constraint
   Dihedral:       13  15  16  18      160.000      160.000

 Attempting to Generate Delocalized Internal Coordinates

 62 Hessian modes will be used to form the next step
  Hessian Eigenvalues:
     0.045000    0.045000    0.045000    0.045000    0.045000    0.045000
     0.045000    0.045000    0.045000    0.045001    0.045002    0.045002
     0.045003    0.045003    0.045009    0.045010    0.045011    0.045018
     0.045019    0.159886    0.159939    0.159955    0.159957    0.159992
     0.159993    0.160000    0.160000    0.221281    0.221281    0.226855
     0.237826    0.237826    0.245311    0.249998    0.249998    0.250000
     0.250000    0.293636    0.293684    0.294746    0.294936    0.312571
     0.312615    0.354732    0.354740    0.354742    0.354756    0.355161
     0.355164    0.358372    0.358373    0.383080    0.383176    0.405793
     0.405832    0.413732    0.458107    0.461989    0.461995    0.485493
     0.497291    0.497294

 Minimum Search - Taking Simple RFO Step
 Searching for Lamda that Minimizes Along All modes
 Value Taken    Lamda =  -0.00027522
 Step Taken.  Stepsize is  0.077795

                             Maximum     Tolerance    Cnvgd?
         Gradient           0.001777      0.000300      NO
         Displacement       0.039289      0.001200      NO
         Energy change     *********      0.000001      NO


 New Cartesian Coordinates Obtained by Inverse Iteration

 Displacement from previous Coordinates is:  0.236072
 ----------------------------------------------------------------
             Standard Nuclear Orientation (Angstroms)
    I     Atom           X                Y                Z
 ----------------------------------------------------------------
    1      H       6.2294971128    -0.2334849975     0.2122671499
    2      H       5.3067440197     2.2204082159    -0.0953474030
    3      C       5.1963877804     0.0681492497     0.1075848645
    4      C       4.6888798090     1.3308027271    -0.0520375947
    5      S       3.9397512038    -1.1274572506     0.1363948688
    6      C       3.2692789385     1.3458406880    -0.1684122623
    7      H       2.6891099830     2.2487801242    -0.3231749776
    8      C       2.6966691513     0.0913134097    -0.0941082074
    9      H       1.3310878893    -2.3851465715    -0.6969447642
   10      C       1.2977220718    -0.2787489296    -0.1798041039
   11      C       0.7373866021    -1.5061396516    -0.4718382770
   12      S       0.0368967521     0.9089202781     0.1060267799
   13      C      -0.6811488738    -1.5011612700    -0.4697683208
   14      H      -1.2815188981    -2.3776474691    -0.6866809932
   15      C      -1.2325946198    -0.2685215407    -0.1826983830
   16      C      -2.6293675437     0.1117262751    -0.0998495861
   17      H      -2.6134024138     1.9437897936     1.0622684808
   18      C      -3.1977809599     1.2011135502     0.5305117965
   19      S      -3.8748903735    -0.8632571290    -0.8623196610
   20      C      -4.6160459235     1.2528333027     0.4080335888
   21      C      -5.1267453287     0.2026714048    -0.3087053986
   22      H      -5.2303372294     2.0345066256     0.8401338472
   23      H      -6.1595186496    -0.0084895051    -0.5497358237
 ----------------------------------------------------------------
 Nuclear Repulsion Energy =  1172.9764207001 hartrees
 There are       64 alpha and       64 beta electrons
 Applying Cartesian multipole field
    Component          Value
    ---------          -----
     (2,0,0)        1.00000E-12
     (0,2,0)        2.00000E-11
     (0,0,2)       -3.00000E-11
 Nucleus-field energy     =     0.0000000130 hartrees
 Requested basis set is 6-31++G(d,p)
 There are 110 shells and 345 basis functions
 A cutoff of  1.0D-12 yielded   4682 shell pairs
 There are     47610 function pairs

 Q-Chem warning in module /project/projectdirs/jcesr/qchem/qc44/cnl_qc441/compile/cori/qc_src/libqints/qchem/aobasis.C, line 68:

 Using reconstructed effective core potential

 Smallest overlap matrix eigenvalue = 7.08E-08
 Linear dependence detected in AO basis
 Number of orthogonalized atomic orbitals = 343
 Maximum deviation from orthogonality = 1.295E-10
 Guess MOs from SCF MO coefficient file
 Reading MOs from coefficient file
 Reading MOs from coefficient file
 A restricted hybrid HF-DFT SCF calculation will be
 performed using Pulay DIIS extrapolation
 Exchange:     0.2000 Hartree-Fock + 0.0800 Slater + 0.7200 B88
 Correlation:  0.1900 VWN1RPA + 0.8100 LYP
 Using SG-1 standard quadrature grid
 SCF converges when DIIS error is below 1.0E-08
 Geometry optimization detected.  Setting ReadMinima to 0
 Setting SaveMinima to 0
 ---------------------------------------
  Cycle       Energy         DIIS Error
 ---------------------------------------
    1   -1656.6644375535      5.24E-04
    2   -1656.6642405742      5.13E-05
    3   -1656.6640889182      1.11E-04
    4   -1656.6642952025      1.22E-05
    5   -1656.6642967629      7.32E-06
    6   -1656.6642975267      2.45E-06
    7   -1656.6642976191      9.44E-07
    8   -1656.6642976321      2.91E-07
    9   -1656.6642976335      8.18E-08
   10   -1656.6642976339      3.10E-08
   11   -1656.6642976328      1.00E-08
   12   -1656.6642976328      4.39E-09 Convergence criterion met
 ---------------------------------------
 SCF time:  CPU 13.28 s  wall 12.17 s
 SCF   energy in the final basis set = -1656.6642976328
 Total energy in the final basis set = -1656.6642976328
 
 --------------------------------------------------------------
 
                    Orbital Energies (a.u.)
 --------------------------------------------------------------
 
 Alpha MOs
 -- Occupied --
-88.921 -88.921 -88.921 -10.242 -10.241 -10.241 -10.241 -10.226
-10.226 -10.207 -10.206 -10.206 -10.206 -10.205 -10.205  -7.981
 -7.981  -7.981  -5.945  -5.945  -5.945  -5.941  -5.941  -5.941
 -5.938  -5.938  -5.937  -0.907  -0.893  -0.876  -0.788  -0.757
 -0.745  -0.745  -0.732  -0.698  -0.618  -0.598  -0.570  -0.560
 -0.536  -0.535  -0.530  -0.502  -0.462  -0.423  -0.422  -0.417
 -0.416  -0.409  -0.402  -0.399  -0.387  -0.379  -0.370  -0.361
 -0.350  -0.344  -0.297  -0.268  -0.263  -0.260  -0.249  -0.201
 -- Virtual --
 -0.072  -0.032  -0.007  -0.005  -0.000   0.007   0.007   0.008
  0.011   0.016   0.024   0.029   0.029   0.033   0.041   0.043
  0.047   0.051   0.054   0.054   0.060   0.062   0.072   0.077
  0.083   0.088   0.089   0.092   0.100   0.105   0.108   0.109
  0.114   0.117   0.119   0.124   0.125   0.127   0.129   0.133
  0.136   0.139   0.146   0.147   0.149   0.150   0.156   0.162
  0.165   0.165   0.171   0.172   0.180   0.181   0.183   0.192
  0.193   0.200   0.203   0.211   0.214   0.217   0.218   0.224
  0.224   0.233   0.238   0.242   0.247   0.248   0.266   0.267
  0.269   0.272   0.277   0.280   0.285   0.287   0.292   0.304
  0.316   0.323   0.324   0.333   0.345   0.353   0.360   0.361
  0.364   0.373   0.385   0.397   0.397   0.453   0.454   0.462
  0.499   0.509   0.518   0.529   0.532   0.564   0.571   0.581
  0.582   0.599   0.608   0.622   0.632   0.647   0.654   0.658
  0.660   0.663   0.666   0.681   0.694   0.697   0.714   0.715
  0.721   0.725   0.733   0.740   0.759   0.760   0.780   0.786
  0.788   0.821   0.824   0.831   0.833   0.840   0.852   0.868
  0.887   0.932   0.933   0.942   0.953   0.954   0.960   0.961
  0.967   0.974   0.981   0.985   0.992   0.996   1.006   1.028
  1.039   1.050   1.058   1.072   1.084   1.095   1.104   1.109
  1.110   1.150   1.151   1.166   1.168   1.183   1.207   1.235
  1.255   1.265   1.266   1.288   1.315   1.331   1.342   1.346
  1.352   1.359   1.362   1.374   1.448   1.463   1.491   1.493
  1.507   1.517   1.548   1.580   1.630   1.678   1.689   1.712
  1.739   1.796   1.836   1.862   1.865   1.890   1.891   1.909
  1.914   1.924   1.933   1.960   1.966   2.007   2.034   2.065
  2.066   2.076   2.100   2.113   2.157   2.173   2.180   2.195
  2.206   2.222   2.234   2.260   2.280   2.293   2.330   2.363
  2.365   2.420   2.439   2.444   2.448   2.465   2.469   2.481
  2.500   2.524   2.534   2.536   2.541   2.573   2.588   2.609
  2.632   2.668   2.684   2.706   2.713   2.723   2.826   2.866
  2.881   2.914   2.926   2.939   2.951   3.130   3.178   3.220
  3.271   3.272   3.326   3.414   3.415   3.674   3.730   3.739
  3.971   3.981   3.981   4.260   4.260   4.306   4.319   4.322
  4.351   4.388   4.482   4.549   4.647   4.696   4.728
 --------------------------------------------------------------
 
          Ground-State Mulliken Net Atomic Charges

     Atom                 Charge (a.u.)
  ----------------------------------------
      1 H                     0.196365
      2 H                     0.119576
      3 C                     0.026128
      4 C                    -0.307721
      5 S                    -0.117585
      6 C                     0.600382
      7 H                     0.132570
      8 C                    -0.477633
      9 H                     0.122991
     10 C                    -0.165616
     11 C                     0.040982
     12 S                    -0.318487
     13 C                     0.019091
     14 H                     0.121773
     15 C                    -0.143788
     16 C                    -0.474326
     17 H                     0.131206
     18 C                     0.572274
     19 S                    -0.115279
     20 C                    -0.301912
     21 C                     0.023304
     22 H                     0.119597
     23 H                     0.196106
  ----------------------------------------
  Sum of atomic charges =     0.000000

 -----------------------------------------------------------------
                    Cartesian Multipole Moments
 -----------------------------------------------------------------
    Charge (ESU x 10^10)
                 0.0000
    Dipole Moment (Debye)
         X       0.0032      Y       0.4738      Z       0.0687
       Tot       0.4787
    Quadrupole Moments (Debye-Ang)
        XX     -90.3045     XY      -0.0477     YY    -102.2235
        XZ      -0.0735     YZ       3.1760     ZZ    -115.0325
    Octopole Moments (Debye-Ang^2)
       XXX      -8.7247    XXY      18.7796    XYY       2.4280
       YYY       5.2120    XXZ      14.4021    XYZ     -11.9804
       YYZ      13.1701    XZZ      -9.9666    YZZ       0.2939
       ZZZ      42.8928
    Hexadecapole Moments (Debye-Ang^3)
      XXXX   -6342.3081   XXXY      16.3488   XXYY   -1309.8614
      XYYY      52.6390   YYYY    -790.9941   XXXZ     -29.1656
      XXYZ      12.3209   XYYZ     -56.7138   YYYZ     -57.2005
      XXZZ   -1376.5504   XYZZ       6.1159   YYZZ    -185.8310
      XZZZ    -109.7423   YZZZ     -77.0928   ZZZZ    -265.8937
 -----------------------------------------------------------------
 Calculating analytic gradient of the SCF energy
 Gradient of SCF Energy
            1           2           3           4           5           6
    1   0.0000023  -0.0000002   0.0000274  -0.0000090   0.0000377  -0.0000127
    2  -0.0000091  -0.0000043   0.0000210  -0.0000318  -0.0000155   0.0000578
    3   0.0000110  -0.0000068  -0.0000283   0.0000292   0.0000490  -0.0000088
            7           8           9          10          11          12
    1  -0.0000027  -0.0000893   0.0000004   0.0001091   0.0000253  -0.0000162
    2  -0.0000182   0.0000088   0.0000064   0.0000370  -0.0000516  -0.0000800
    3  -0.0000242  -0.0001863  -0.0000174  -0.0003350   0.0002450   0.0002053
           13          14          15          16          17          18
    1   0.0000272   0.0000152  -0.0000245   0.0000141   0.0000765  -0.0001812
    2  -0.0003076   0.0001969   0.0000918   0.0002457   0.0004679  -0.0008269
    3   0.0014271  -0.0008067  -0.0006053  -0.0003116  -0.0007178   0.0013154
           19          20          21          22          23
    1  -0.0000122  -0.0000164   0.0000173  -0.0000087   0.0000206
    2   0.0000525  -0.0000091   0.0000500   0.0000281   0.0000901
    3  -0.0000299   0.0000290  -0.0000577  -0.0000471  -0.0001279
 Max gradient component =       1.427E-03
 RMS gradient           =       3.156E-04
 Gradient time:  CPU 4.60 s  wall 4.60 s
 Geometry Optimization Parameters
   NAtoms,    NIC,     NZ,  NCons,   NDum,   NFix, NCnnct, MaxDiis
       23     166       0       1       0       0       0       0

 Cartesian Hessian Update
 Hessian Updated using BFGS Update


** CONSTRAINED OPTIMIZATION IN DELOCALIZED INTERNAL COORDINATES **
   Searching for a Minimum

   Optimization Cycle:   2

                       Coordinates (Angstroms)
     ATOM                X               Y               Z
      1  H         6.2294971128   -0.2334849975    0.2122671499
      2  H         5.3067440197    2.2204082159   -0.0953474030
      3  C         5.1963877804    0.0681492497    0.1075848645
      4  C         4.6888798090    1.3308027271   -0.0520375947
      5  S         3.9397512038   -1.1274572506    0.1363948688
      6  C         3.2692789385    1.3458406880   -0.1684122623
      7  H         2.6891099830    2.2487801242   -0.3231749776
      8  C         2.6966691513    0.0913134097   -0.0941082074
      9  H         1.3310878893   -2.3851465715   -0.6969447642
     10  C         1.2977220718   -0.2787489296   -0.1798041039
     11  C         0.7373866021   -1.5061396516   -0.4718382770
     12  S         0.0368967521    0.9089202781    0.1060267799
     13  C        -0.6811488738   -1.5011612700   -0.4697683208
     14  H        -1.2815188981   -2.3776474691   -0.6866809932
     15  C        -1.2325946198   -0.2685215407   -0.1826983830
     16  C        -2.6293675437    0.1117262751   -0.0998495861
     17  H        -2.6134024138    1.9437897936    1.0622684808
     18  C        -3.1977809599    1.2011135502    0.5305117965
     19  S        -3.8748903735   -0.8632571290   -0.8623196610
     20  C        -4.6160459235    1.2528333027    0.4080335888
     21  C        -5.1267453287    0.2026714048   -0.3087053986
     22  H        -5.2303372294    2.0345066256    0.8401338472
     23  H        -6.1595186496   -0.0084895051   -0.5497358237
   Point Group: c1    Number of degrees of freedom:    63


   Energy is  -1656.664297633

              Constraints and their Current Values
                                        Value     Constraint
   Dihedral:       13  15  16  18      160.000      160.000
 Hessian Updated using BFGS Update

 57 Hessian modes will be used to form the next step
  Hessian Eigenvalues:
     0.027628    0.045000    0.045000    0.045000    0.045000    0.045000
     0.045001    0.045003    0.045003    0.045009    0.045009    0.045014
     0.045018    0.052664    0.159886    0.159939    0.159955    0.159959
     0.159990    0.159992    0.159999    0.160001    0.221281    0.221300
     0.226995    0.237821    0.237841    0.245663    0.249788    0.249998
     0.250000    0.250362    0.293680    0.293699    0.294762    0.294938
     0.312570    0.312611    0.354732    0.354741    0.354742    0.354758
     0.355162    0.355164    0.358372    0.358373    0.383151    0.383696
     0.405800    0.405838    0.413783    0.458155    0.461950    0.462000
     0.485509    0.497291    0.497294

 Minimum Search - Taking Simple RFO Step
 Searching for Lamda that Minimizes Along All modes
 Value Taken    Lamda =  -0.00005706
 Step Taken.  Stepsize is  0.045018

                             Maximum     Tolerance    Cnvgd?
         Gradient           0.000440      0.000300      NO
         Displacement       0.017333      0.001200      NO
         Energy change     -0.000177      0.000001      NO


 New Cartesian Coordinates Obtained by Inverse Iteration

 Displacement from previous Coordinates is:  0.107558
 ----------------------------------------------------------------
             Standard Nuclear Orientation (Angstroms)
    I     Atom           X                Y                Z
 ----------------------------------------------------------------
    1      H       6.2267074256    -0.2394179949     0.2289172343
    2      H       5.3116414153     2.2161598393    -0.0879082450
    3      C       5.1948937263     0.0645029824     0.1183310640
    4      C       4.6913964668     1.3281242775    -0.0463494232
    5      S       3.9352585665    -1.1279985391     0.1424397963
    6      C       3.2724854908     1.3462976182    -0.1703072291
    7      H       2.6953841737     2.2504330793    -0.3296293360
    8      C       2.6964860669     0.0933172161    -0.0968186237
    9      H       1.3304417588    -2.3824942884    -0.6991808769
   10      C       1.2972018631    -0.2741148699    -0.1898949341
   11      C       0.7367656496    -1.5015183818    -0.4818312035
   12      S       0.0367607437     0.9166345536     0.0842289392
   13      C      -0.6816781125    -1.4964754576    -0.4798819703
   14      H      -1.2823174305    -2.3764826932    -0.6812918379
   15      C      -1.2327053654    -0.2632532945    -0.1948410010
   16      C      -2.6294550715     0.1154956820    -0.1078838509
   17      H      -2.6120362542     1.9460127514     1.0564454725
   18      C      -3.1966778023     1.2062866100     0.5209142614
   19      S      -3.8767375455    -0.8652729446    -0.8599972553
   20      C      -4.6161149863     1.2516231454     0.4101141318
   21      C      -5.1285603528     0.1959759471    -0.2973460292
   22      H      -5.2302919787     2.0298060806     0.8486057275
   23      H      -6.1627879474    -0.0228399889    -0.5250391907
 ----------------------------------------------------------------
 Nuclear Repulsion Energy =  1173.0044444823 hartrees
 There are       64 alpha and       64 beta electrons
 Applying Cartesian multipole field
    Component          Value
    ---------          -----
     (2,0,0)        1.00000E-12
     (0,2,0)        2.00000E-11
     (0,0,2)       -3.00000E-11
 Nucleus-field energy     =     0.0000000130 hartrees
 Requested basis set is 6-31++G(d,p)
 There are 110 shells and 345 basis functions
 A cutoff of  1.0D-12 yielded   4682 shell pairs
 There are     47610 function pairs

 Q-Chem warning in module /project/projectdirs/jcesr/qchem/qc44/cnl_qc441/compile/cori/qc_src/libqints/qchem/aobasis.C, line 68:

 Using reconstructed effective core potential

 Smallest overlap matrix eigenvalue = 7.16E-08
 Linear dependence detected in AO basis
 Number of orthogonalized atomic orbitals = 343
 Maximum deviation from orthogonality = 1.508E-10
 Guess MOs from SCF MO coefficient file
 Reading MOs from coefficient file
 Reading MOs from coefficient file
 A restricted hybrid HF-DFT SCF calculation will be
 performed using Pulay DIIS extrapolation
 Exchange:     0.2000 Hartree-Fock + 0.0800 Slater + 0.7200 B88
 Correlation:  0.1900 VWN1RPA + 0.8100 LYP
 Using SG-1 standard quadrature grid
 SCF converges when DIIS error is below 1.0E-08
 Geometry optimization detected.  Setting ReadMinima to 0
 Setting SaveMinima to 0
 ---------------------------------------
  Cycle       Energy         DIIS Error
 ---------------------------------------
    1   -1656.6642718608      2.47E-04
    2   -1656.6643192717      2.45E-05
    3   -1656.6642891407      5.06E-05
    4   -1656.6643310826      6.42E-06
    5   -1656.6643315346      3.69E-06
    6   -1656.6643317336      1.18E-06
    7   -1656.6643317538      4.78E-07
    8   -1656.6643317556      1.49E-07
    9   -1656.6643317542      4.29E-08
   10   -1656.6643317546      1.38E-08
   11   -1656.6643317546      4.17E-09 Convergence criterion met
 ---------------------------------------
 SCF time:  CPU 12.02 s  wall 11.13 s
 SCF   energy in the final basis set = -1656.6643317546
 Total energy in the final basis set = -1656.6643317546
 
 --------------------------------------------------------------
 
                    Orbital Energies (a.u.)
 --------------------------------------------------------------
 
 Alpha MOs
 -- Occupied --
-88.921 -88.921 -88.921 -10.241 -10.241 -10.241 -10.241 -10.226
-10.226 -10.207 -10.206 -10.206 -10.206 -10.205 -10.205  -7.981
 -7.981  -7.981  -5.945  -5.945  -5.945  -5.941  -5.941  -5.941
 -5.938  -5.938  -5.937  -0.907  -0.893  -0.876  -0.788  -0.757
 -0.745  -0.745  -0.732  -0.698  -0.618  -0.598  -0.570  -0.560
 -0.536  -0.535  -0.530  -0.502  -0.462  -0.423  -0.422  -0.417
 -0.416  -0.409  -0.402  -0.399  -0.387  -0.379  -0.370  -0.361
 -0.350  -0.344  -0.297  -0.268  -0.263  -0.260  -0.249  -0.201
 -- Virtual --
 -0.072  -0.032  -0.007  -0.005  -0.000   0.007   0.007   0.008
  0.011   0.016   0.024   0.029   0.029   0.033   0.041   0.043
  0.047   0.051   0.054   0.054   0.060   0.062   0.072   0.077
  0.083   0.088   0.089   0.092   0.100   0.105   0.108   0.109
  0.114   0.117   0.119   0.124   0.125   0.127   0.129   0.133
  0.136   0.139   0.146   0.147   0.149   0.150   0.156   0.162
  0.165   0.165   0.171   0.171   0.180   0.181   0.183   0.192
  0.193   0.200   0.203   0.211   0.214   0.217   0.218   0.224
  0.224   0.233   0.238   0.242   0.247   0.249   0.266   0.267
  0.269   0.272   0.277   0.280   0.285   0.287   0.292   0.304
  0.316   0.323   0.324   0.333   0.345   0.353   0.360   0.361
  0.364   0.373   0.385   0.397   0.397   0.453   0.454   0.463
  0.499   0.509   0.518   0.529   0.532   0.564   0.571   0.581
  0.582   0.599   0.608   0.622   0.632   0.647   0.654   0.658
  0.661   0.663   0.666   0.681   0.694   0.697   0.714   0.715
  0.721   0.725   0.733   0.740   0.759   0.760   0.780   0.786
  0.788   0.821   0.824   0.831   0.833   0.839   0.852   0.868
  0.887   0.932   0.933   0.942   0.953   0.954   0.960   0.961
  0.968   0.974   0.980   0.985   0.992   0.996   1.006   1.028
  1.039   1.050   1.058   1.072   1.083   1.095   1.104   1.109
  1.110   1.150   1.151   1.166   1.168   1.183   1.207   1.236
  1.255   1.265   1.265   1.287   1.316   1.329   1.342   1.345
  1.353   1.359   1.363   1.374   1.449   1.461   1.490   1.493
  1.509   1.517   1.548   1.579   1.629   1.678   1.690   1.711
  1.740   1.797   1.837   1.862   1.865   1.890   1.891   1.909
  1.914   1.924   1.933   1.960   1.966   2.007   2.034   2.066
  2.066   2.077   2.100   2.112   2.157   2.174   2.180   2.195
  2.206   2.222   2.234   2.260   2.280   2.292   2.330   2.363
  2.365   2.420   2.440   2.443   2.449   2.464   2.468   2.482
  2.500   2.525   2.535   2.536   2.541   2.573   2.588   2.609
  2.632   2.668   2.685   2.706   2.713   2.722   2.826   2.866
  2.881   2.914   2.926   2.939   2.951   3.130   3.178   3.220
  3.271   3.272   3.326   3.414   3.415   3.674   3.730   3.739
  3.971   3.981   3.981   4.260   4.260   4.306   4.319   4.322
  4.350   4.388   4.482   4.549   4.647   4.696   4.728
 --------------------------------------------------------------
 
          Ground-State Mulliken Net Atomic Charges

     Atom                 Charge (a.u.)
  ----------------------------------------
      1 H                     0.196325
      2 H                     0.119563
      3 C                     0.026149
      4 C                    -0.307261
      5 S                    -0.118344
      6 C                     0.595470
      7 H                     0.132133
      8 C                    -0.480928
      9 H                     0.122633
     10 C                    -0.160017
     11 C                     0.031319
     12 S                    -0.319475
     13 C                     0.034840
     14 H                     0.122565
     15 C                    -0.156040
     16 C                    -0.476440
     17 H                     0.132059
     18 C                     0.589190
     19 S                    -0.117246
     20 C                    -0.306962
     21 C                     0.024757
     22 H                     0.119561
     23 H                     0.196147
  ----------------------------------------
  Sum of atomic charges =     0.000000

 -----------------------------------------------------------------
                    Cartesian Multipole Moments
 -----------------------------------------------------------------
    Charge (ESU x 10^10)
                 0.0000
    Dipole Moment (Debye)
         X       0.0009      Y       0.4574      Z       0.1051
       Tot       0.4693
    Quadrupole Moments (Debye-Ang)
        XX     -90.2906     XY       0.0254     YY    -102.2231
        XZ      -0.1615     YZ       3.1402     ZZ    -115.0531
    Octopole Moments (Debye-Ang^2)
       XXX      -8.8238    XXY      18.1043    XYY       2.5659
       YYY       4.6812    XXZ      15.9079    XYZ     -12.0694
       YYZ      13.5752    XZZ      -9.7596    YZZ       0.2014
       ZZZ      43.9770
    Hexadecapole Moments (Debye-Ang^3)
      XXXX   -6341.3513   XXXY      18.8228   XXYY   -1309.9787
      XYYY      52.2936   YYYY    -791.3527   XXXZ     -33.1200
      XXYZ      12.6455   XYYZ     -57.1893   YYYZ     -56.9118
      XXZZ   -1377.0073   XYZZ       5.6868   YYZZ    -185.9245
      XZZZ    -111.5321   YZZZ     -76.6445   ZZZZ    -265.9165
 -----------------------------------------------------------------
 Calculating analytic gradient of the SCF energy
 Gradient of SCF Energy
            1           2           3           4           5           6
    1  -0.0000015   0.0000022  -0.0000201  -0.0000025   0.0000118   0.0000089
    2  -0.0000047   0.0000005   0.0000066  -0.0000006  -0.0000112   0.0000098
    3  -0.0000077  -0.0000083  -0.0000101   0.0000165   0.0000487  -0.0000230
            7           8           9          10          11          12
    1   0.0000026  -0.0000121  -0.0000110  -0.0000157  -0.0000137   0.0000261
    2  -0.0000070  -0.0000180  -0.0000169  -0.0000548   0.0000681   0.0000854
    3  -0.0000252   0.0000217   0.0000606   0.0001152  -0.0002608  -0.0001245
           13          14          15          16          17          18
    1  -0.0000150   0.0000050   0.0000480  -0.0000672   0.0000290  -0.0000280
    2  -0.0001221   0.0000667  -0.0000662   0.0001062   0.0002075  -0.0003679
    3   0.0006480  -0.0003526  -0.0001281   0.0000190  -0.0003046   0.0005290
           19          20          21          22          23
    1   0.0000144   0.0000301   0.0000134  -0.0000019  -0.0000027
    2   0.0001007   0.0001359  -0.0000617  -0.0000409  -0.0000156
    3  -0.0001680  -0.0002021   0.0000830   0.0000643   0.0000089
 Max gradient component =       6.480E-04
 RMS gradient           =       1.422E-04
 Gradient time:  CPU 4.58 s  wall 4.58 s
 Geometry Optimization Parameters
   NAtoms,    NIC,     NZ,  NCons,   NDum,   NFix, NCnnct, MaxDiis
       23     166       0       1       0       0       0       0

 Cartesian Hessian Update
 Hessian Updated using BFGS Update


** CONSTRAINED OPTIMIZATION IN DELOCALIZED INTERNAL COORDINATES **
   Searching for a Minimum

   Optimization Cycle:   3

                       Coordinates (Angstroms)
     ATOM                X               Y               Z
      1  H         6.2267074256   -0.2394179949    0.2289172343
      2  H         5.3116414153    2.2161598393   -0.0879082450
      3  C         5.1948937263    0.0645029824    0.1183310640
      4  C         4.6913964668    1.3281242775   -0.0463494232
      5  S         3.9352585665   -1.1279985391    0.1424397963
      6  C         3.2724854908    1.3462976182   -0.1703072291
      7  H         2.6953841737    2.2504330793   -0.3296293360
      8  C         2.6964860669    0.0933172161   -0.0968186237
      9  H         1.3304417588   -2.3824942884   -0.6991808769
     10  C         1.2972018631   -0.2741148699   -0.1898949341
     11  C         0.7367656496   -1.5015183818   -0.4818312035
     12  S         0.0367607437    0.9166345536    0.0842289392
     13  C        -0.6816781125   -1.4964754576   -0.4798819703
     14  H        -1.2823174305   -2.3764826932   -0.6812918379
     15  C        -1.2327053654   -0.2632532945   -0.1948410010
     16  C        -2.6294550715    0.1154956820   -0.1078838509
     17  H        -2.6120362542    1.9460127514    1.0564454725
     18  C        -3.1966778023    1.2062866100    0.5209142614
     19  S        -3.8767375455   -0.8652729446   -0.8599972553
     20  C        -4.6161149863    1.2516231454    0.4101141318
     21  C        -5.1285603528    0.1959759471   -0.2973460292
     22  H        -5.2302919787    2.0298060806    0.8486057275
     23  H        -6.1627879474   -0.0228399889   -0.5250391907
   Point Group: c1    Number of degrees of freedom:    63


   Energy is  -1656.664331755

              Constraints and their Current Values
                                        Value     Constraint
   Dihedral:       13  15  16  18      160.000      160.000
 Hessian Updated using BFGS Update

 56 Hessian modes will be used to form the next step
  Hessian Eigenvalues:
     0.020484    0.045000    0.045000    0.045000    0.045001    0.045003
     0.045003    0.045006    0.045009    0.045014    0.045016    0.046146
     0.055458    0.159885    0.159942    0.159952    0.159960    0.159992
     0.159995    0.159999    0.160014    0.221281    0.221345    0.227017
     0.237826    0.237989    0.246077    0.249834    0.249999    0.250093
     0.250322    0.293670    0.293701    0.294758    0.294991    0.312569
     0.312607    0.354732    0.354739    0.354742    0.354763    0.355163
     0.355165    0.358373    0.358375    0.383135    0.383623    0.405805
     0.405860    0.413943    0.458208    0.461979    0.462155    0.485526
     0.497291    0.497296

 Minimum Search - Taking Simple RFO Step
 Searching for Lamda that Minimizes Along All modes
 Value Taken    Lamda =  -0.00000863
 Step Taken.  Stepsize is  0.018357

                             Maximum     Tolerance    Cnvgd?
         Gradient           0.000172      0.000300     YES
         Displacement       0.006106      0.001200      NO
         Energy change     -0.000034      0.000001      NO


 New Cartesian Coordinates Obtained by Inverse Iteration

 Displacement from previous Coordinates is:  0.016854
 ----------------------------------------------------------------
             Standard Nuclear Orientation (Angstroms)
    I     Atom           X                Y                Z
 ----------------------------------------------------------------
    1      H       6.2266616455    -0.2401927220     0.2285167313
    2      H       5.3122713956     2.2159322897    -0.0859829514
    3      C       5.1949585584     0.0640940612     0.1178761472
    4      C       4.6917986663     1.3280061492    -0.0456738701
    5      S       3.9349526656    -1.1280351453     0.1403245846
    6      C       3.2728936896     1.3466972611    -0.1699221147
    7      H       2.6960653906     2.2512179888    -0.3280853381
    8      C       2.6965374648     0.0938239951    -0.0978223517
    9      H       1.3306772289    -2.3824165694    -0.6979844644
   10      C       1.2971936278    -0.2734105909    -0.1914433284
   11      C       0.7368504646    -1.5011130692    -0.4823425535
   12      S       0.0365437400     0.9172728936     0.0818905450
   13      C      -0.6816466650    -1.4961585423    -0.4806774498
   14      H      -1.2822599280    -2.3775811999    -0.6757915870
   15      C      -1.2328556413    -0.2628553458    -0.1961816799
   16      C      -2.6295737834     0.1158395398    -0.1092089770
   17      H      -2.6123632155     1.9438076821     1.0589865651
   18      C      -3.1966955559     1.2069737560     0.5191718969
   19      S      -3.8771963977    -0.8656211045    -0.8598930922
   20      C      -4.6162471520     1.2518761690     0.4094142533
   21      C      -5.1288821584     0.1961446412    -0.2977596715
   22      H      -5.2303715901     2.0296623899     0.8486979476
   23      H      -6.1632519504    -0.0231631974    -0.5243136213
 ----------------------------------------------------------------
 Nuclear Repulsion Energy =  1172.9911289464 hartrees
 There are       64 alpha and       64 beta electrons
 Applying Cartesian multipole field
    Component          Value
    ---------          -----
     (2,0,0)        1.00000E-12
     (0,2,0)        2.00000E-11
     (0,0,2)       -3.00000E-11
 Nucleus-field energy     =     0.0000000130 hartrees
 Requested basis set is 6-31++G(d,p)
 There are 110 shells and 345 basis functions
 A cutoff of  1.0D-12 yielded   4682 shell pairs
 There are     47610 function pairs

 Q-Chem warning in module /project/projectdirs/jcesr/qchem/qc44/cnl_qc441/compile/cori/qc_src/libqints/qchem/aobasis.C, line 68:

 Using reconstructed effective core potential

 Smallest overlap matrix eigenvalue = 7.18E-08
 Linear dependence detected in AO basis
 Number of orthogonalized atomic orbitals = 343
 Maximum deviation from orthogonality = 1.477E-10
 Guess MOs from SCF MO coefficient file
 Reading MOs from coefficient file
 Reading MOs from coefficient file
 A restricted hybrid HF-DFT SCF calculation will be
 performed using Pulay DIIS extrapolation
 Exchange:     0.2000 Hartree-Fock + 0.0800 Slater + 0.7200 B88
 Correlation:  0.1900 VWN1RPA + 0.8100 LYP
 Using SG-1 standard quadrature grid
 SCF converges when DIIS error is below 1.0E-08
 Geometry optimization detected.  Setting ReadMinima to 0
 Setting SaveMinima to 0
 ---------------------------------------
  Cycle       Energy         DIIS Error
 ---------------------------------------
    1   -1656.6635663380      4.40E-05
    2   -1656.6643369852      4.56E-06
    3   -1656.6643365809      7.14E-06
    4   -1656.6643374175      1.36E-06
    5   -1656.6643374398      6.46E-07
    6   -1656.6643374454      3.39E-07
    7   -1656.6643374493      6.68E-08
    8   -1656.6643374462      2.51E-08
    9   -1656.6643374463      6.32E-09 Convergence criterion met
 ---------------------------------------
 SCF time:  CPU 9.92 s  wall 9.11 s
 SCF   energy in the final basis set = -1656.6643374463
 Total energy in the final basis set = -1656.6643374463
 
 --------------------------------------------------------------
 
                    Orbital Energies (a.u.)
 --------------------------------------------------------------
 
 Alpha MOs
 -- Occupied --
-88.921 -88.921 -88.921 -10.241 -10.241 -10.241 -10.241 -10.226
-10.226 -10.207 -10.206 -10.206 -10.206 -10.205 -10.205  -7.981
 -7.981  -7.981  -5.945  -5.945  -5.945  -5.941  -5.941  -5.941
 -5.938  -5.938  -5.937  -0.907  -0.893  -0.876  -0.788  -0.757
 -0.745  -0.745  -0.732  -0.698  -0.618  -0.598  -0.570  -0.560
 -0.536  -0.535  -0.530  -0.502  -0.462  -0.423  -0.422  -0.417
 -0.415  -0.409  -0.402  -0.399  -0.387  -0.379  -0.370  -0.361
 -0.350  -0.344  -0.297  -0.268  -0.263  -0.260  -0.249  -0.201
 -- Virtual --
 -0.072  -0.032  -0.007  -0.005  -0.000   0.007   0.007   0.008
  0.011   0.016   0.024   0.029   0.029   0.033   0.041   0.043
  0.047   0.051   0.054   0.054   0.060   0.062   0.072   0.077
  0.083   0.088   0.089   0.092   0.100   0.105   0.108   0.109
  0.114   0.116   0.119   0.125   0.125   0.127   0.129   0.133
  0.136   0.139   0.146   0.147   0.149   0.150   0.156   0.162
  0.165   0.165   0.171   0.171   0.180   0.181   0.183   0.192
  0.193   0.200   0.203   0.211   0.214   0.217   0.218   0.224
  0.224   0.233   0.238   0.241   0.247   0.248   0.266   0.267
  0.269   0.272   0.277   0.280   0.285   0.287   0.292   0.304
  0.316   0.323   0.324   0.333   0.345   0.353   0.360   0.361
  0.364   0.373   0.385   0.397   0.397   0.453   0.455   0.463
  0.499   0.509   0.518   0.529   0.532   0.564   0.571   0.581
  0.582   0.599   0.608   0.622   0.632   0.647   0.654   0.658
  0.660   0.663   0.666   0.681   0.694   0.697   0.714   0.715
  0.721   0.725   0.733   0.740   0.759   0.760   0.780   0.786
  0.788   0.821   0.824   0.831   0.833   0.839   0.852   0.868
  0.887   0.932   0.933   0.941   0.953   0.954   0.960   0.961
  0.968   0.974   0.980   0.986   0.992   0.996   1.006   1.028
  1.039   1.051   1.058   1.072   1.083   1.095   1.104   1.109
  1.110   1.150   1.152   1.166   1.168   1.183   1.208   1.236
  1.254   1.264   1.265   1.287   1.316   1.329   1.342   1.346
  1.353   1.359   1.363   1.373   1.450   1.461   1.489   1.494
  1.510   1.517   1.548   1.579   1.628   1.678   1.690   1.711
  1.740   1.797   1.837   1.862   1.865   1.890   1.891   1.909
  1.914   1.925   1.933   1.960   1.966   2.007   2.034   2.066
  2.066   2.077   2.100   2.112   2.157   2.174   2.180   2.195
  2.206   2.222   2.234   2.260   2.280   2.292   2.330   2.363
  2.365   2.420   2.440   2.443   2.449   2.464   2.467   2.482
  2.500   2.525   2.535   2.536   2.541   2.573   2.589   2.609
  2.632   2.668   2.685   2.706   2.714   2.722   2.826   2.866
  2.881   2.914   2.926   2.939   2.951   3.129   3.178   3.220
  3.271   3.272   3.326   3.414   3.415   3.674   3.730   3.738
  3.971   3.981   3.981   4.260   4.260   4.306   4.319   4.322
  4.350   4.388   4.482   4.549   4.647   4.696   4.728
 --------------------------------------------------------------
 
          Ground-State Mulliken Net Atomic Charges

     Atom                 Charge (a.u.)
  ----------------------------------------
      1 H                     0.196355
      2 H                     0.119570
      3 C                     0.025987
      4 C                    -0.306983
      5 S                    -0.118686
      6 C                     0.594635
      7 H                     0.132062
      8 C                    -0.481052
      9 H                     0.122440
     10 C                    -0.157096
     11 C                     0.026427
     12 S                    -0.320336
     13 C                     0.041007
     14 H                     0.122856
     15 C                    -0.160958
     16 C                    -0.477655
     17 H                     0.132322
     18 C                     0.593995
     19 S                    -0.117907
     20 C                    -0.308143
     21 C                     0.025420
     22 H                     0.119557
     23 H                     0.196185
  ----------------------------------------
  Sum of atomic charges =     0.000000

 -----------------------------------------------------------------
                    Cartesian Multipole Moments
 -----------------------------------------------------------------
    Charge (ESU x 10^10)
                 0.0000
    Dipole Moment (Debye)
         X       0.0004      Y       0.4531      Z       0.1177
       Tot       0.4681
    Quadrupole Moments (Debye-Ang)
        XX     -90.2819     XY       0.0379     YY    -102.2266
        XZ      -0.1809     YZ       3.1353     ZZ    -115.0579
    Octopole Moments (Debye-Ang^2)
       XXX      -8.8272    XXY      18.0290    XYY       2.6025
       YYY       4.5546    XXZ      16.1243    XYZ     -12.0464
       YYZ      13.7290    XZZ      -9.7561    YZZ       0.2172
       ZZZ      44.3135
    Hexadecapole Moments (Debye-Ang^3)
      XXXX   -6341.4834   XXXY      18.9933   XXYY   -1310.1109
      XYYY      52.4506   YYYY    -791.5082   XXXZ     -33.3299
      XXYZ      12.7797   XYYZ     -57.1543   YYYZ     -56.9839
      XXZZ   -1377.1421   XYZZ       5.6097   YYZZ    -185.9888
      XZZZ    -111.5160   YZZZ     -76.6769   ZZZZ    -265.8140
 -----------------------------------------------------------------
 Calculating analytic gradient of the SCF energy
 Gradient of SCF Energy
            1           2           3           4           5           6
    1   0.0000026   0.0000016   0.0000028   0.0000039  -0.0000063   0.0000004
    2  -0.0000026  -0.0000045  -0.0000132  -0.0000006   0.0000196  -0.0000128
    3  -0.0000042  -0.0000029   0.0000004   0.0000014   0.0000401  -0.0000347
            7           8           9          10          11          12
    1  -0.0000002   0.0000179   0.0000032  -0.0000092   0.0000266   0.0000069
    2  -0.0000026  -0.0000041  -0.0000171  -0.0000409   0.0000704   0.0000002
    3  -0.0000145   0.0000429   0.0000788   0.0000914  -0.0002450  -0.0000534
           13          14          15          16          17          18
    1  -0.0000336   0.0000034   0.0000016  -0.0000070   0.0000064  -0.0000018
    2  -0.0000492   0.0000290  -0.0000250   0.0000704   0.0000690  -0.0001491
    3   0.0002672  -0.0001145  -0.0000658  -0.0000108  -0.0001061   0.0002053
           19          20          21          22          23
    1   0.0000046  -0.0000004  -0.0000110  -0.0000077  -0.0000049
    2   0.0000377   0.0000989  -0.0000051  -0.0000507  -0.0000177
    3  -0.0000452  -0.0001609   0.0000165   0.0000840   0.0000302
 Max gradient component =       2.672E-04
 RMS gradient           =       6.823E-05
 Gradient time:  CPU 4.58 s  wall 4.59 s
 Geometry Optimization Parameters
   NAtoms,    NIC,     NZ,  NCons,   NDum,   NFix, NCnnct, MaxDiis
       23     166       0       1       0       0       0       0

 Cartesian Hessian Update
 Hessian Updated using BFGS Update


** CONSTRAINED OPTIMIZATION IN DELOCALIZED INTERNAL COORDINATES **
   Searching for a Minimum

   Optimization Cycle:   4

                       Coordinates (Angstroms)
     ATOM                X               Y               Z
      1  H         6.2266616455   -0.2401927220    0.2285167313
      2  H         5.3122713956    2.2159322897   -0.0859829514
      3  C         5.1949585584    0.0640940612    0.1178761472
      4  C         4.6917986663    1.3280061492   -0.0456738701
      5  S         3.9349526656   -1.1280351453    0.1403245846
      6  C         3.2728936896    1.3466972611   -0.1699221147
      7  H         2.6960653906    2.2512179888   -0.3280853381
      8  C         2.6965374648    0.0938239951   -0.0978223517
      9  H         1.3306772289   -2.3824165694   -0.6979844644
     10  C         1.2971936278   -0.2734105909   -0.1914433284
     11  C         0.7368504646   -1.5011130692   -0.4823425535
     12  S         0.0365437400    0.9172728936    0.0818905450
     13  C        -0.6816466650   -1.4961585423   -0.4806774498
     14  H        -1.2822599280   -2.3775811999   -0.6757915870
     15  C        -1.2328556413   -0.2628553458   -0.1961816799
     16  C        -2.6295737834    0.1158395398   -0.1092089770
     17  H        -2.6123632155    1.9438076821    1.0589865651
     18  C        -3.1966955559    1.2069737560    0.5191718969
     19  S        -3.8771963977   -0.8656211045   -0.8598930922
     20  C        -4.6162471520    1.2518761690    0.4094142533
     21  C        -5.1288821584    0.1961446412   -0.2977596715
     22  H        -5.2303715901    2.0296623899    0.8486979476
     23  H        -6.1632519504   -0.0231631974   -0.5243136213
   Point Group: c1    Number of degrees of freedom:    63


   Energy is  -1656.664337446

              Constraints and their Current Values
                                        Value     Constraint
   Dihedral:       13  15  16  18      160.000      160.000
 Hessian Updated using BFGS Update

 61 Hessian modes will be used to form the next step
  Hessian Eigenvalues:
     0.015889    0.043772    0.045000    0.045000    0.045000    0.045000
     0.045000    0.045000    0.045001    0.045002    0.045002    0.045003
     0.045004    0.045009    0.045014    0.045016    0.045528    0.050199
     0.159875    0.159942    0.159958    0.159971    0.159993    0.159995
     0.159999    0.160052    0.221293    0.221375    0.227024    0.237825
     0.238478    0.247011    0.249905    0.249998    0.250059    0.250617
     0.293698    0.293734    0.294756    0.294960    0.312580    0.312623
     0.354732    0.354742    0.354747    0.354791    0.355163    0.355170
     0.358372    0.358376    0.383271    0.383572    0.405816    0.406082
     0.414573    0.458275    0.461983    0.462200    0.485468    0.497290
     0.497297

 Minimum Search - Taking Simple RFO Step
 Searching for Lamda that Minimizes Along All modes
 Value Taken    Lamda =  -0.00000280
 Step Taken.  Stepsize is  0.011422

                             Maximum     Tolerance    Cnvgd?
         Gradient           0.000109      0.000300     YES
         Displacement       0.003692      0.001200      NO
         Energy change     -0.000006      0.000001      NO


 New Cartesian Coordinates Obtained by Inverse Iteration

 Displacement from previous Coordinates is:  0.025002
 ----------------------------------------------------------------
             Standard Nuclear Orientation (Angstroms)
    I     Atom           X                Y                Z
 ----------------------------------------------------------------
    1      H       6.2269904046    -0.2395162249     0.2238075864
    2      H       5.3113211791     2.2168389632    -0.0851399876
    3      C       5.1950637633     0.0645612941     0.1147264018
    4      C       4.6912511082     1.3285798705    -0.0459522197
    5      S       3.9355691602    -1.1281415531     0.1362463847
    6      C       3.2722181390     1.3469504812    -0.1686379734
    7      H       2.6948627853     2.2515844975    -0.3241966019
    8      C       2.6964279420     0.0937213885    -0.0981817421
    9      H       1.3307119651    -2.3831099829    -0.6964893072
   10      C       1.2971339171    -0.2738679913    -0.1907105918
   11      C       0.7368671345    -1.5018877304    -0.4805608151
   12      S       0.0364697912     0.9165442152     0.0836017484
   13      C      -0.6815863446    -1.4969937166    -0.4789683366
   14      H      -1.2822128106    -2.3790650509    -0.6711326529
   15      C      -1.2328016126    -0.2636087124    -0.1947637393
   16      C      -2.6294202248     0.1153822024    -0.1086594871
   17      H      -2.6125764854     1.9414713607     1.0624386487
   18      C      -3.1965631407     1.2066739123     0.5194719820
   19      S      -3.8768040040    -0.8654397097    -0.8605635938
   20      C      -4.6159297393     1.2524577089     0.4081489155
   21      C      -5.1283647029     0.1974497925    -0.3002584571
   22      H      -5.2300074072     2.0309617610     0.8462231999
   23      H      -6.1625603178    -0.0207454459    -0.5286537417
 ----------------------------------------------------------------
 Nuclear Repulsion Energy =  1173.0116555442 hartrees
 There are       64 alpha and       64 beta electrons
 Applying Cartesian multipole field
    Component          Value
    ---------          -----
     (2,0,0)        1.00000E-12
     (0,2,0)        2.00000E-11
     (0,0,2)       -3.00000E-11
 Nucleus-field energy     =     0.0000000130 hartrees
 Requested basis set is 6-31++G(d,p)
 There are 110 shells and 345 basis functions
 A cutoff of  1.0D-12 yielded   4682 shell pairs
 There are     47610 function pairs

 Q-Chem warning in module /project/projectdirs/jcesr/qchem/qc44/cnl_qc441/compile/cori/qc_src/libqints/qchem/aobasis.C, line 68:

 Using reconstructed effective core potential

 Smallest overlap matrix eigenvalue = 7.18E-08
 Linear dependence detected in AO basis
 Number of orthogonalized atomic orbitals = 343
 Maximum deviation from orthogonality = 1.123E-10
 Guess MOs from SCF MO coefficient file
 Reading MOs from coefficient file
 Reading MOs from coefficient file
 A restricted hybrid HF-DFT SCF calculation will be
 performed using Pulay DIIS extrapolation
 Exchange:     0.2000 Hartree-Fock + 0.0800 Slater + 0.7200 B88
 Correlation:  0.1900 VWN1RPA + 0.8100 LYP
 Using SG-1 standard quadrature grid
 SCF converges when DIIS error is below 1.0E-08
 Geometry optimization detected.  Setting ReadMinima to 0
 Setting SaveMinima to 0
 ---------------------------------------
  Cycle       Energy         DIIS Error
 ---------------------------------------
    1   -1656.6636943430      5.54E-05
    2   -1656.6643384526      5.81E-06
    3   -1656.6643364274      1.28E-05
    4   -1656.6643391794      1.57E-06
    5   -1656.6643392157      5.79E-07
    6   -1656.6643392180      3.25E-07
    7   -1656.6643392192      1.04E-07
    8   -1656.6643392188      3.54E-08
    9   -1656.6643392183      9.32E-09 Convergence criterion met
 ---------------------------------------
 SCF time:  CPU 9.99 s  wall 9.19 s
 SCF   energy in the final basis set = -1656.6643392183
 Total energy in the final basis set = -1656.6643392183
 
 --------------------------------------------------------------
 
                    Orbital Energies (a.u.)
 --------------------------------------------------------------
 
 Alpha MOs
 -- Occupied --
-88.921 -88.921 -88.921 -10.241 -10.241 -10.241 -10.241 -10.226
-10.226 -10.207 -10.206 -10.206 -10.206 -10.205 -10.205  -7.981
 -7.981  -7.981  -5.945  -5.945  -5.945  -5.941  -5.941  -5.941
 -5.938  -5.938  -5.937  -0.907  -0.893  -0.876  -0.788  -0.757
 -0.745  -0.745  -0.732  -0.698  -0.618  -0.598  -0.570  -0.560
 -0.536  -0.535  -0.530  -0.502  -0.462  -0.423  -0.422  -0.417
 -0.415  -0.409  -0.402  -0.399  -0.387  -0.379  -0.370  -0.361
 -0.350  -0.344  -0.297  -0.268  -0.263  -0.260  -0.249  -0.201
 -- Virtual --
 -0.072  -0.032  -0.007  -0.005  -0.000   0.007   0.007   0.008
  0.011   0.016   0.024   0.029   0.029   0.033   0.041   0.043
  0.047   0.051   0.054   0.054   0.060   0.062   0.072   0.077
  0.083   0.088   0.089   0.092   0.100   0.105   0.108   0.109
  0.114   0.116   0.119   0.125   0.125   0.127   0.129   0.133
  0.136   0.139   0.146   0.147   0.149   0.150   0.156   0.162
  0.165   0.165   0.171   0.171   0.180   0.181   0.183   0.192
  0.193   0.200   0.203   0.211   0.214   0.217   0.218   0.224
  0.224   0.233   0.238   0.241   0.247   0.248   0.266   0.267
  0.269   0.272   0.277   0.280   0.285   0.287   0.292   0.304
  0.317   0.323   0.324   0.333   0.345   0.353   0.360   0.361
  0.364   0.373   0.385   0.397   0.397   0.453   0.455   0.463
  0.499   0.509   0.518   0.529   0.532   0.564   0.571   0.581
  0.582   0.599   0.608   0.622   0.632   0.647   0.654   0.658
  0.660   0.663   0.666   0.680   0.694   0.697   0.714   0.715
  0.721   0.725   0.733   0.740   0.759   0.760   0.780   0.786
  0.788   0.821   0.824   0.831   0.833   0.839   0.852   0.868
  0.887   0.932   0.933   0.941   0.954   0.954   0.960   0.961
  0.968   0.973   0.979   0.986   0.992   0.996   1.006   1.028
  1.039   1.051   1.058   1.072   1.083   1.096   1.104   1.109
  1.110   1.150   1.152   1.166   1.168   1.183   1.208   1.236
  1.254   1.264   1.265   1.287   1.316   1.329   1.342   1.346
  1.353   1.359   1.362   1.373   1.450   1.460   1.489   1.494
  1.510   1.518   1.548   1.579   1.628   1.678   1.690   1.711
  1.740   1.797   1.837   1.862   1.865   1.890   1.891   1.909
  1.914   1.925   1.933   1.960   1.965   2.007   2.034   2.066
  2.066   2.077   2.100   2.112   2.157   2.174   2.180   2.195
  2.206   2.222   2.234   2.260   2.280   2.292   2.330   2.363
  2.365   2.420   2.440   2.443   2.450   2.464   2.467   2.482
  2.500   2.525   2.535   2.536   2.541   2.573   2.589   2.609
  2.632   2.668   2.685   2.706   2.714   2.722   2.826   2.866
  2.881   2.915   2.926   2.939   2.951   3.129   3.178   3.220
  3.271   3.272   3.326   3.414   3.415   3.674   3.730   3.738
  3.971   3.981   3.981   4.260   4.260   4.306   4.319   4.322
  4.350   4.388   4.482   4.549   4.647   4.696   4.728
 --------------------------------------------------------------
 
          Ground-State Mulliken Net Atomic Charges

     Atom                 Charge (a.u.)
  ----------------------------------------
      1 H                     0.196374
      2 H                     0.119589
      3 C                     0.025668
      4 C                    -0.306565
      5 S                    -0.118880
      6 C                     0.595058
      7 H                     0.132024
      8 C                    -0.480704
      9 H                     0.122333
     10 C                    -0.155679
     11 C                     0.023552
     12 S                    -0.321368
     13 C                     0.044231
     14 H                     0.123002
     15 C                    -0.163618
     16 C                    -0.478036
     17 H                     0.132426
     18 C                     0.595065
     19 S                    -0.117974
     20 C                    -0.307727
     21 C                     0.025504
     22 H                     0.119546
     23 H                     0.196183
  ----------------------------------------
  Sum of atomic charges =     0.000000

 -----------------------------------------------------------------
                    Cartesian Multipole Moments
 -----------------------------------------------------------------
    Charge (ESU x 10^10)
                 0.0000
    Dipole Moment (Debye)
         X       0.0001      Y       0.4529      Z       0.1206
       Tot       0.4687
    Quadrupole Moments (Debye-Ang)
        XX     -90.2885     XY       0.0341     YY    -102.2236
        XZ      -0.1768     YZ       3.1405     ZZ    -115.0586
    Octopole Moments (Debye-Ang^2)
       XXX      -8.8154    XXY      18.0974    XYY       2.5927
       YYY       4.5555    XXZ      15.9900    XYZ     -11.9902
       YYZ      13.8054    XZZ      -9.8026    YZZ       0.2453
       ZZZ      44.4437
    Hexadecapole Moments (Debye-Ang^3)
      XXXX   -6341.3325   XXXY      18.6749   XXYY   -1309.9909
      XYYY      52.6674   YYYY    -791.6548   XXXZ     -32.6067
      XXYZ      12.8567   XYYZ     -56.9640   YYYZ     -57.1275
      XXZZ   -1377.0154   XYZZ       5.6551   YYZZ    -186.0498
      XZZZ    -111.0131   YZZZ     -76.8335   ZZZZ    -265.6404
 -----------------------------------------------------------------
 Calculating analytic gradient of the SCF energy
 Gradient of SCF Energy
            1           2           3           4           5           6
    1  -0.0000008   0.0000007  -0.0000038  -0.0000011  -0.0000154   0.0000031
    2  -0.0000008  -0.0000019  -0.0000138   0.0000023   0.0000031  -0.0000107
    3   0.0000001   0.0000006  -0.0000001  -0.0000057   0.0000379  -0.0000450
            7           8           9          10          11          12
    1  -0.0000000   0.0000241   0.0000007  -0.0000228   0.0000006   0.0000001
    2  -0.0000014   0.0000111  -0.0000140  -0.0000093   0.0000271  -0.0000085
    3  -0.0000043   0.0000282   0.0000548   0.0000168  -0.0001313   0.0000590
           13          14          15          16          17          18
    1  -0.0000056   0.0000003  -0.0000021   0.0000209  -0.0000011  -0.0000043
    2  -0.0000241  -0.0000020   0.0000085   0.0000688   0.0000045  -0.0000396
    3   0.0000717   0.0000063  -0.0000887  -0.0000629  -0.0000016   0.0000663
           19          20          21          22          23
    1  -0.0000050   0.0000083   0.0000056  -0.0000018  -0.0000005
    2  -0.0000295   0.0000489   0.0000188  -0.0000300  -0.0000074
    3   0.0000199  -0.0000742  -0.0000186   0.0000543   0.0000165
 Max gradient component =       1.313E-04
 RMS gradient           =       3.281E-05
 Gradient time:  CPU 4.58 s  wall 4.58 s
 Geometry Optimization Parameters
   NAtoms,    NIC,     NZ,  NCons,   NDum,   NFix, NCnnct, MaxDiis
       23     166       0       1       0       0       0       0

 Cartesian Hessian Update
 Hessian Updated using BFGS Update


** CONSTRAINED OPTIMIZATION IN DELOCALIZED INTERNAL COORDINATES **
   Searching for a Minimum

   Optimization Cycle:   5

                       Coordinates (Angstroms)
     ATOM                X               Y               Z
      1  H         6.2269904046   -0.2395162249    0.2238075864
      2  H         5.3113211791    2.2168389632   -0.0851399876
      3  C         5.1950637633    0.0645612941    0.1147264018
      4  C         4.6912511082    1.3285798705   -0.0459522197
      5  S         3.9355691602   -1.1281415531    0.1362463847
      6  C         3.2722181390    1.3469504812   -0.1686379734
      7  H         2.6948627853    2.2515844975   -0.3241966019
      8  C         2.6964279420    0.0937213885   -0.0981817421
      9  H         1.3307119651   -2.3831099829   -0.6964893072
     10  C         1.2971339171   -0.2738679913   -0.1907105918
     11  C         0.7368671345   -1.5018877304   -0.4805608151
     12  S         0.0364697912    0.9165442152    0.0836017484
     13  C        -0.6815863446   -1.4969937166   -0.4789683366
     14  H        -1.2822128106   -2.3790650509   -0.6711326529
     15  C        -1.2328016126   -0.2636087124   -0.1947637393
     16  C        -2.6294202248    0.1153822024   -0.1086594871
     17  H        -2.6125764854    1.9414713607    1.0624386487
     18  C        -3.1965631407    1.2066739123    0.5194719820
     19  S        -3.8768040040   -0.8654397097   -0.8605635938
     20  C        -4.6159297393    1.2524577089    0.4081489155
     21  C        -5.1283647029    0.1974497925   -0.3002584571
     22  H        -5.2300074072    2.0309617610    0.8462231999
     23  H        -6.1625603178   -0.0207454459   -0.5286537417
   Point Group: c1    Number of degrees of freedom:    63


   Energy is  -1656.664339218

              Constraints and their Current Values
                                        Value     Constraint
   Dihedral:       13  15  16  18      160.000      160.000
 Hessian Updated using BFGS Update

 60 Hessian modes will be used to form the next step
  Hessian Eigenvalues:
     0.012916    0.033936    0.045000    0.045000    0.045000    0.045000
     0.045001    0.045002    0.045002    0.045003    0.045004    0.045009
     0.045014    0.045016    0.045044    0.046220    0.056862    0.159860
     0.159939    0.159958    0.159968    0.159991    0.159998    0.160006
     0.160055    0.221327    0.221373    0.227034    0.237842    0.238895
     0.248268    0.249913    0.250004    0.250212    0.250811    0.293700
     0.293726    0.294771    0.294997    0.312586    0.312646    0.354734
     0.354742    0.354747    0.354796    0.355163    0.355171    0.358375
     0.358381    0.383224    0.384292    0.405824    0.406341    0.415020
     0.458268    0.461963    0.462211    0.485595    0.497287    0.497329

 Minimum Search - Taking Simple RFO Step
 Searching for Lamda that Minimizes Along All modes
 Value Taken    Lamda =   0.00000000
 Step Taken.  Stepsize is  0.006607

                             Maximum     Tolerance    Cnvgd?
         Gradient           0.000068      0.000300     YES
         Displacement       0.002354      0.001200      NO
         Energy change     -0.000002      0.000001      NO


 New Cartesian Coordinates Obtained by Inverse Iteration

 Displacement from previous Coordinates is:  0.020490
 ----------------------------------------------------------------
             Standard Nuclear Orientation (Angstroms)
    I     Atom           X                Y                Z
 ----------------------------------------------------------------
    1      H       6.2275728229    -0.2388765574     0.2194242814
    2      H       5.3105688020     2.2176275962    -0.0843633328
    3      C       5.1954132807     0.0649763123     0.1119135919
    4      C       4.6909067161     1.3290459331    -0.0460771775
    5      S       3.9364194062    -1.1282820011     0.1326778248
    6      C       3.2717339286     1.3470471481    -0.1672385278
    7      H       2.6938624517     2.2517410551    -0.3204987782
    8      C       2.6964823248     0.0934752793    -0.0982769864
[...]
    5   -1656.6643398471      5.00E-07
    6   -1656.6643398483      3.09E-07
    7   -1656.6643398512      8.91E-08
    8   -1656.6643398502      2.88E-08
    9   -1656.6643398505      8.33E-09 Convergence criterion met
 ---------------------------------------
 SCF time:  CPU 9.98 s  wall 9.15 s
 SCF   energy in the final basis set = -1656.6643398505
 Total energy in the final basis set = -1656.6643398505
 
 --------------------------------------------------------------
 
                    Orbital Energies (a.u.)
 --------------------------------------------------------------
 
 Alpha MOs
 -- Occupied --
-88.921 -88.921 -88.921 -10.241 -10.241 -10.241 -10.241 -10.226
-10.226 -10.207 -10.206 -10.206 -10.206 -10.205 -10.205  -7.981
 -7.981  -7.981  -5.945  -5.945  -5.945  -5.941  -5.941  -5.941
 -5.938  -5.938  -5.937  -0.907  -0.893  -0.876  -0.788  -0.757
 -0.745  -0.745  -0.732  -0.698  -0.618  -0.598  -0.570  -0.560
 -0.536  -0.535  -0.530  -0.502  -0.462  -0.423  -0.422  -0.417
 -0.415  -0.409  -0.402  -0.399  -0.387  -0.379  -0.370  -0.361
 -0.350  -0.344  -0.297  -0.268  -0.263  -0.260  -0.249  -0.201
 -- Virtual --
 -0.072  -0.032  -0.007  -0.005  -0.000   0.007   0.007   0.008
  0.011   0.016   0.024   0.029   0.029   0.033   0.041   0.043
  0.047   0.051   0.054   0.054   0.060   0.062   0.072   0.077
  0.083   0.088   0.089   0.092   0.100   0.105   0.108   0.109
  0.114   0.116   0.119   0.125   0.125   0.127   0.129   0.133
  0.136   0.139   0.146   0.147   0.150   0.150   0.156   0.162
  0.165   0.165   0.171   0.171   0.180   0.181   0.183   0.192
  0.193   0.200   0.203   0.210   0.214   0.217   0.218   0.224
  0.224   0.233   0.238   0.241   0.247   0.248   0.266   0.267
  0.269   0.272   0.277   0.280   0.285   0.287   0.292   0.304
  0.317   0.323   0.324   0.333   0.345   0.353   0.360   0.361
  0.364   0.373   0.385   0.397   0.397   0.453   0.455   0.462
  0.499   0.509   0.518   0.529   0.532   0.564   0.571   0.581
  0.582   0.599   0.608   0.622   0.632   0.647   0.654   0.658
  0.660   0.663   0.666   0.680   0.694   0.697   0.714   0.715
  0.721   0.725   0.733   0.740   0.759   0.760   0.780   0.786
  0.788   0.821   0.824   0.831   0.833   0.839   0.852   0.868
  0.887   0.932   0.933   0.941   0.954   0.954   0.960   0.961
  0.968   0.973   0.979   0.986   0.992   0.996   1.006   1.028
  1.039   1.051   1.058   1.072   1.083   1.096   1.104   1.109
  1.110   1.150   1.152   1.166   1.168   1.183   1.208   1.236
  1.254   1.265   1.265   1.287   1.316   1.329   1.342   1.346
  1.353   1.359   1.362   1.373   1.450   1.460   1.489   1.494
  1.511   1.518   1.548   1.579   1.628   1.678   1.690   1.711
  1.741   1.797   1.837   1.862   1.865   1.890   1.891   1.909
  1.914   1.925   1.933   1.960   1.965   2.007   2.034   2.066
  2.066   2.077   2.100   2.112   2.157   2.174   2.180   2.195
  2.206   2.222   2.234   2.260   2.280   2.292   2.330   2.363
  2.365   2.420   2.440   2.443   2.450   2.464   2.467   2.482
  2.500   2.525   2.535   2.536   2.541   2.573   2.589   2.609
  2.632   2.668   2.685   2.706   2.714   2.722   2.826   2.866
  2.881   2.915   2.926   2.939   2.951   3.129   3.178   3.220
  3.271   3.272   3.326   3.414   3.415   3.674   3.730   3.738
  3.971   3.981   3.981   4.260   4.261   4.306   4.319   4.322
  4.350   4.388   4.482   4.549   4.647   4.696   4.728
 --------------------------------------------------------------
 
          Ground-State Mulliken Net Atomic Charges

     Atom                 Charge (a.u.)
  ----------------------------------------
      1 H                     0.196401
      2 H                     0.119608
      3 C                     0.025530
      4 C                    -0.306399
      5 S                    -0.119092
      6 C                     0.595766
      7 H                     0.131976
      8 C                    -0.480424
      9 H                     0.122283
     10 C                    -0.155208
     11 C                     0.022017
     12 S                    -0.322170
     13 C                     0.045501
     14 H                     0.123058
     15 C                    -0.164554
     16 C                    -0.477792
     17 H                     0.132475
     18 C                     0.594752
     19 S                    -0.117802
     20 C                    -0.307094
     21 C                     0.025447
     22 H                     0.119540
     23 H                     0.196183
  ----------------------------------------
  Sum of atomic charges =     0.000000

 -----------------------------------------------------------------
                    Cartesian Multipole Moments
 -----------------------------------------------------------------
    Charge (ESU x 10^10)
                 0.0000
    Dipole Moment (Debye)
         X      -0.0000      Y       0.4541      Z       0.1194
       Tot       0.4696
    Quadrupole Moments (Debye-Ang)
        XX     -90.2888     XY       0.0266     YY    -102.2207
        XZ      -0.1680     YZ       3.1461     ZZ    -115.0607
    Octopole Moments (Debye-Ang^2)
       XXX      -8.8132    XXY      18.1777    XYY       2.5703
       YYY       4.5962    XXZ      15.8300    XYZ     -11.9365
       YYZ      13.8475    XZZ      -9.8412    YZZ       0.2614
       ZZZ      44.5094
    Hexadecapole Moments (Debye-Ang^3)
      XXXX   -6341.5031   XXXY      18.3689   XXYY   -1309.9783
      XYYY      52.8103   YYYY    -791.7643   XXXZ     -31.9009
      XXYZ      12.9139   XYYZ     -56.7603   YYYZ     -57.2259
      XXZZ   -1377.0465   XYZZ       5.7264   YYZZ    -186.0891
      XZZZ    -110.4748   YZZZ     -76.9639   ZZZZ    -265.4388
 -----------------------------------------------------------------
 Calculating analytic gradient of the SCF energy
 Gradient of SCF Energy
            1           2           3           4           5           6
    1   0.0000009   0.0000015   0.0000040   0.0000054  -0.0000101  -0.0000000
    2  -0.0000003  -0.0000031  -0.0000084  -0.0000042   0.0000082  -0.0000084
    3   0.0000018   0.0000012  -0.0000007  -0.0000029   0.0000345  -0.0000476
            7           8           9          10          11          12
    1  -0.0000009   0.0000106   0.0000012  -0.0000088   0.0000019  -0.0000001
    2  -0.0000033   0.0000106  -0.0000035  -0.0000010   0.0000088  -0.0000334
    3  -0.0000010   0.0000138   0.0000200  -0.0000091  -0.0000472   0.0000816
           13          14          15          16          17          18
    1   0.0000012  -0.0000021  -0.0000140   0.0000293  -0.0000024  -0.0000049
    2  -0.0000079  -0.0000060   0.0000208   0.0000597  -0.0000160  -0.0000118
    3   0.0000177   0.0000386  -0.0000979  -0.0000791   0.0000249   0.0000250
           19          20          21          22          23
    1  -0.0000060  -0.0000014  -0.0000042  -0.0000006  -0.0000008
    2  -0.0000203   0.0000073   0.0000163  -0.0000073   0.0000034
    3   0.0000399  -0.0000155  -0.0000135   0.0000145   0.0000008
 Max gradient component =       9.788E-05
 RMS gradient           =       2.481E-05
 Gradient time:  CPU 4.58 s  wall 4.59 s
 Geometry Optimization Parameters
   NAtoms,    NIC,     NZ,  NCons,   NDum,   NFix, NCnnct, MaxDiis
       23     166       0       1       0       0       0       0

 Cartesian Hessian Update
 Hessian Updated using BFGS Update


** CONSTRAINED OPTIMIZATION IN DELOCALIZED INTERNAL COORDINATES **
   Searching for a Minimum

   Optimization Cycle:   6

                       Coordinates (Angstroms)
     ATOM                X               Y               Z
      1  H         6.2275728229   -0.2388765574    0.2194242814
      2  H         5.3105688020    2.2176275962   -0.0843633328
      3  C         5.1954132807    0.0649763123    0.1119135919
      4  C         4.6909067161    1.3290459331   -0.0460771775
      5  S         3.9364194062   -1.1282820011    0.1326778248
      6  C         3.2717339286    1.3470471481   -0.1672385278
      7  H         2.6938624517    2.2517410551   -0.3204987782
      8  C         2.6964823248    0.0934752793   -0.0982769864
      9  H         1.3307175291   -2.3837059416   -0.6954092001
     10  C         1.2972170485   -0.2744187145   -0.1897862223
     11  C         0.7369107539   -1.5026156218   -0.4788455720
     12  S         0.0365106557    0.9159004482    0.0847659325
     13  C        -0.6815492452   -1.4977432623   -0.4771107260
     14  H        -1.2821962013   -2.3800114182   -0.6683064369
     15  C        -1.2327951197   -0.2642918134   -0.1932511710
     16  C        -2.6293996104    0.1149408051   -0.1078347425
     17  H        -2.6129135027    1.9404239571    1.0641678922
     18  C        -3.1966771623    1.2063673073    0.5199621624
     19  S        -3.8765242998   -0.8651856004   -0.8610367989
     20  C        -4.6159140766    1.2528644877    0.4072056927
     21  C        -5.1281431444    0.1982929473   -0.3019971025
     22  H        -5.2299866849    2.0321881006    0.8438272846
     23  H        -6.1621561728   -0.0189591164   -0.5321162678
   Point Group: c1    Number of degrees of freedom:    63


   Energy is  -1656.664339851

              Constraints and their Current Values
                                        Value     Constraint
   Dihedral:       13  15  16  18      160.000      160.000
 Hessian Updated using BFGS Update

 61 Hessian modes will be used to form the next step
  Hessian Eigenvalues:
     0.008311    0.024862    0.045000    0.045000    0.045000    0.045000
     0.045000    0.045000    0.045002    0.045002    0.045003    0.045004
     0.045009    0.045014    0.045016    0.045314    0.048473    0.060103
     0.159861    0.159935    0.159959    0.159969    0.159986    0.159995
     0.160009    0.160195    0.221345    0.221400    0.227055    0.237825
     0.239756    0.249802    0.249932    0.250170    0.250348    0.251974
     0.293618    0.293701    0.294781    0.295078    0.312582    0.312635
     0.354735    0.354746    0.354749    0.354800    0.355164    0.355171
     0.358375    0.358388    0.383124    0.384399    0.405835    0.406766
     0.415641    0.458282    0.461963    0.462376    0.485584    0.497290
     0.497396

 Minimum Search - Taking Simple RFO Step
 Searching for Lamda that Minimizes Along All modes
 Value Taken    Lamda =   0.00000000
 Step Taken.  Stepsize is  0.008720

                             Maximum     Tolerance    Cnvgd?
         Gradient           0.000062      0.000300     YES
         Displacement       0.004006      0.001200      NO
         Energy change     -0.000001      0.000001     YES

 Final energy is   -1656.66433985050     


 ******************************
 **  OPTIMIZATION CONVERGED  **
 ******************************

                       Coordinates (Angstroms)
     ATOM                X               Y               Z
      1  H         6.2275728229   -0.2388765574    0.2194242814
      2  H         5.3105688020    2.2176275962   -0.0843633328
      3  C         5.1954132807    0.0649763123    0.1119135919
      4  C         4.6909067161    1.3290459331   -0.0460771775
      5  S         3.9364194062   -1.1282820011    0.1326778248
      6  C         3.2717339286    1.3470471481   -0.1672385278
      7  H         2.6938624517    2.2517410551   -0.3204987782
      8  C         2.6964823248    0.0934752793   -0.0982769864
      9  H         1.3307175291   -2.3837059416   -0.6954092001
     10  C         1.2972170485   -0.2744187145   -0.1897862223
     11  C         0.7369107539   -1.5026156218   -0.4788455720
     12  S         0.0365106557    0.9159004482    0.0847659325
     13  C        -0.6815492452   -1.4977432623   -0.4771107260
     14  H        -1.2821962013   -2.3800114182   -0.6683064369
     15  C        -1.2327951197   -0.2642918134   -0.1932511710
     16  C        -2.6293996104    0.1149408051   -0.1078347425
     17  H        -2.6129135027    1.9404239571    1.0641678922
     18  C        -3.1966771623    1.2063673073    0.5199621624
     19  S        -3.8765242998   -0.8651856004   -0.8610367989
     20  C        -4.6159140766    1.2528644877    0.4072056927
     21  C        -5.1281431444    0.1982929473   -0.3019971025
     22  H        -5.2299866849    2.0321881006    0.8438272846
     23  H        -6.1621561728   -0.0189591164   -0.5321162678

Z-matrix Print:
$molecule
0 1
S 
C  1 1.755359
C  2 1.380526 1 110.153674
H  3 1.084311 2 122.823245 1 179.056833 0
C  3 1.418469 2 113.742026 1 -0.243726 0
H  5 1.084355 3 123.411233 2 -179.154340 0
C  5 1.380567 3 113.736912 2 0.304410 0
C  2 1.449696 1 120.757797 3 179.886970 0
C  8 1.380994 2 128.995522 1 -19.863292 0
H  9 1.084333 8 122.821770 2 -0.802222 0
C  9 1.424468 8 113.520625 2 -179.451563 0
H  11 1.084006 9 123.778799 8 179.503502 0
C  11 1.370207 9 112.849289 8 0.131236 0
H  13 1.081359 11 128.479727 9 179.500382 0
C  7 1.449711 5 129.102404 3 179.730611 0
C  15 1.380982 7 128.995755 5 160.715333 0
H  16 1.084387 15 122.846796 7 -0.829558 0
C  16 1.424449 15 113.533834 7 -179.588250 0
H  18 1.083985 16 123.791387 15 179.542961 0
C  18 1.370168 16 112.849419 15 0.128548 0
H  20 1.081313 18 128.475419 16 179.517902 0
S  20 1.734751 18 111.638272 16 -0.626179 0
S  13 1.734953 11 111.645339 9 -0.614918 0
$end

 
 --------------------------------------------------------------
 
                    Orbital Energies (a.u.)
 --------------------------------------------------------------
 
 Alpha MOs
 -- Occupied --
-88.921 -88.921 -88.921 -10.241 -10.241 -10.241 -10.241 -10.226
-10.226 -10.207 -10.206 -10.206 -10.206 -10.205 -10.205  -7.981
 -7.981  -7.981  -5.945  -5.945  -5.945  -5.941  -5.941  -5.941
 -5.938  -5.938  -5.937  -0.907  -0.893  -0.876  -0.788  -0.757
 -0.745  -0.745  -0.732  -0.698  -0.618  -0.598  -0.570  -0.560
 -0.536  -0.535  -0.530  -0.502  -0.462  -0.423  -0.422  -0.417
 -0.415  -0.409  -0.402  -0.399  -0.387  -0.379  -0.370  -0.361
 -0.350  -0.344  -0.297  -0.268  -0.263  -0.260  -0.249  -0.201
 -- Virtual --
 -0.072  -0.032  -0.007  -0.005  -0.000   0.007   0.007   0.008
  0.011   0.016   0.024   0.029   0.029   0.033   0.041   0.043
  0.047   0.051   0.054   0.054   0.060   0.062   0.072   0.077
  0.083   0.088   0.089   0.092   0.100   0.105   0.108   0.109
  0.114   0.116   0.119   0.125   0.125   0.127   0.129   0.133
  0.136   0.139   0.146   0.147   0.150   0.150   0.156   0.162
  0.165   0.165   0.171   0.171   0.180   0.181   0.183   0.192
  0.193   0.200   0.203   0.210   0.214   0.217   0.218   0.224
  0.224   0.233   0.238   0.241   0.247   0.248   0.266   0.267
  0.269   0.272   0.277   0.280   0.285   0.287   0.292   0.304
  0.317   0.323   0.324   0.333   0.345   0.353   0.360   0.361
  0.364   0.373   0.385   0.397   0.397   0.453   0.455   0.462
  0.499   0.509   0.518   0.529   0.532   0.564   0.571   0.581
  0.582   0.599   0.608   0.622   0.632   0.647   0.654   0.658
  0.660   0.663   0.666   0.680   0.694   0.697   0.714   0.715
  0.721   0.725   0.733   0.740   0.759   0.760   0.780   0.786
  0.788   0.821   0.824   0.831   0.833   0.839   0.852   0.868
  0.887   0.932   0.933   0.941   0.954   0.954   0.960   0.961
  0.968   0.973   0.979   0.986   0.992   0.996   1.006   1.028
  1.039   1.051   1.058   1.072   1.083   1.096   1.104   1.109
  1.110   1.150   1.152   1.166   1.168   1.183   1.208   1.236
  1.254   1.265   1.265   1.287   1.316   1.329   1.342   1.346
  1.353   1.359   1.362   1.373   1.450   1.460   1.489   1.494
  1.511   1.518   1.548   1.579   1.628   1.678   1.690   1.711
  1.741   1.797   1.837   1.862   1.865   1.890   1.891   1.909
  1.914   1.925   1.933   1.960   1.965   2.007   2.034   2.066
  2.066   2.077   2.100   2.112   2.157   2.174   2.180   2.195
  2.206   2.222   2.234   2.260   2.280   2.292   2.330   2.363
  2.365   2.420   2.440   2.443   2.450   2.464   2.467   2.482
  2.500   2.525   2.535   2.536   2.541   2.573   2.589   2.609
  2.632   2.668   2.685   2.706   2.714   2.722   2.826   2.866
  2.881   2.915   2.926   2.939   2.951   3.129   3.178   3.220
  3.271   3.272   3.326   3.414   3.415   3.674   3.730   3.738
  3.971   3.981   3.981   4.260   4.261   4.306   4.319   4.322
  4.350   4.388   4.482   4.549   4.647   4.696   4.728
 --------------------------------------------------------------
 
          Ground-State Mulliken Net Atomic Charges

     Atom                 Charge (a.u.)
  ----------------------------------------
      1 H                     0.196401
      2 H                     0.119608
      3 C                     0.025530
      4 C                    -0.306399
      5 S                    -0.119092
      6 C                     0.595766
      7 H                     0.131976
      8 C                    -0.480424
      9 H                     0.122283
     10 C                    -0.155208
     11 C                     0.022017
     12 S                    -0.322170
     13 C                     0.045501
     14 H                     0.123058
     15 C                    -0.164554
     16 C                    -0.477792
     17 H                     0.132475
     18 C                     0.594752
     19 S                    -0.117802
     20 C                    -0.307094
     21 C                     0.025447
     22 H                     0.119540
     23 H                     0.196183
  ----------------------------------------
  Sum of atomic charges =     0.000000

 -----------------------------------------------------------------
                    Cartesian Multipole Moments
 -----------------------------------------------------------------
    Charge (ESU x 10^10)
                 0.0000
    Dipole Moment (Debye)
         X      -0.0000      Y       0.4541      Z       0.1194
       Tot       0.4696
    Quadrupole Moments (Debye-Ang)
        XX     -90.2888     XY       0.0266     YY    -102.2207
        XZ      -0.1680     YZ       3.1461     ZZ    -115.0607
    Octopole Moments (Debye-Ang^2)
       XXX      -8.8132    XXY      18.1777    XYY       2.5703
       YYY       4.5962    XXZ      15.8300    XYZ     -11.9365
       YYZ      13.8475    XZZ      -9.8412    YZZ       0.2614
       ZZZ      44.5094
    Hexadecapole Moments (Debye-Ang^3)
      XXXX   -6341.5031   XXXY      18.3689   XXYY   -1309.9783
      XYYY      52.8103   YYYY    -791.7643   XXXZ     -31.9009
      XXYZ      12.9139   XYYZ     -56.7603   YYYZ     -57.2259
      XXZZ   -1377.0465   XYZZ       5.7264   YYZZ    -186.0891
      XZZZ    -110.4748   YZZZ     -76.9639   ZZZZ    -265.4388
 -----------------------------------------------------------------
Archival summary:
1\1\nid00500\OPT\ProcedureUnspecified\BasisUnspecified\3128\bwood\TueMay3010:54:162017TueMay3010:54:162017\0\\#,OPT,ProcedureUnspecified,BasisUnspecified,\\0,1\S\C,1,1.75536\C,2,1.38053,1,110.154\H,3,1.08431,2,122.823,1,179.057,0\C,3,1.41847,2,113.742,1,-0.243726,0\H,5,1.08436,3,123.411,2,-179.154,0\C,5,1.38057,3,113.737,2,0.30441,0\C,2,1.4497,1,120.758,3,179.887,0\C,8,1.38099,2,128.996,1,-19.8633,0\H,9,1.08433,8,122.822,2,-0.802222,0\C,9,1.42447,8,113.521,2,-179.452,0\H,11,1.08401,9,123.779,8,179.504,0\C,11,1.37021,9,112.849,8,0.131236,0\H,13,1.08136,11,128.48,9,179.5,0\C,7,1.44971,5,129.102,3,179.731,0\C,15,1.38098,7,128.996,5,160.715,0\H,16,1.08439,15,122.847,7,-0.829558,0\C,16,1.42445,15,113.534,7,-179.588,0\H,18,1.08399,16,123.791,15,179.543,0\C,18,1.37017,16,112.849,15,0.128548,0\H,20,1.08131,18,128.475,16,179.518,0\S,20,1.73475,18,111.638,16,-0.626179,0\S,13,1.73495,11,111.645,9,-0.614918,0\\\@

 Total job time:  95.67s(wall), 101.18s(cpu) 
 Tue May 30 10:54:16 2017

        *************************************************************
        *                                                           *
        *  Thank you very much for using Q-Chem.  Have a nice day.  *
        *                                                           *
        *************************************************************


0 sent ACK to 0 
now end server 0 ... 
