srun -N 1 --ntasks-per-node 22 --cpus-per-task 2 --cpu_bind=cores --nodelist nid00558 /global/project/projectdirs/jcesr/qchem/qc44/cnl_qc441/dist/exe/qcprog.cori.haswell.exe .pt_nn_neutral_70.0.in.36722.qcin.1 /dev/shm/eg_qchem/qchem36722/
Process 1 of 22 is on nid00558 - thread support 0
Process 2 of 22 is on nid00558 - thread support 0
Process 3 of 22 is on nid00558 - thread support 0
Process 4 of 22 is on nid00558 - thread support 0
Process 5 of 22 is on nid00558 - thread support 0
Process 6 of 22 is on nid00558 - thread support 0
Process 21 of 22 is on nid00558 - thread support 0
Process 0 of 22 is on nid00558 - thread support 0
initial socket setup ...start
initial socket setup ...done 
now start server 0 ... 
nid00558 10.128.2
Q-Chem Developer Version! Running on 10.128.2.*
                  Welcome to Q-Chem
     A Quantum Leap Into The Future Of Chemistry


 Q-Chem 4.4, Q-Chem, Inc., Pleasanton, CA (2016)

 Y. Shao,  Z. Gan,  E. Epifanovsky,  A. T. B. Gilbert,  M. Wormit,  
 J. Kussmann,  A. W. Lange,  A. Behn,  J. Deng,  X. Feng,  D. Ghosh,  
 M. Goldey,  P. R. Horn,  L. D. Jacobson,  I. Kaliman,  F. Rob,  
 R. Z. Khaliullin,  T. Kus,  A. Landau,  J. Liu,  E. I. Proynov,  Y. M. Rhee,  
 R. M. Richard,  M. A. Rohrdanz,  R. P. Steele,  E. J. Sundstrom,  
 H. L. Woodcock III,  P. M. Zimmerman,  D. Zuev,  B. Albrecht,  E. Alguire,  
 B. Austin,  S. A. Baeppler,  G. J. O. Beran,  Y. A. Bernard,  
 E. J. Berquist,  K. Brandhorst,  K. B. Bravaya,  S. T. Brown,  D. Casanova,  
 C.-M. Chang,  Y. Chen,  S. H. Chien,  K. D. Closser,  M. P. Coons,  
 D. L. Crittenden,  S. Dasgupta,  M. Diedenhofen,  R. A. DiStasio Jr.,  
 H. Do,  A. D. Dutoi,  R. G. Edgar,  P.-T. Fang,  S. Fatehi,  Q. Feng,  
 L. Fusti-Molnar,  A. Ghysels,  A. Golubeva-Zadorozhnaya,  J. Gomes,  
 A. Gunina,  M. W. D. Hanson-Heine,  P. H. P. Harbach,  A. W. Hauser,  
 J. E. Herr,  E. G. Hohenstein,  Z. C. Holden,  K. Hui,  T.-C. Jagau,  H. Ji,  
 B. Kaduk,  K. Khistyaev,  Jaehoon Kim,  Jihan Kim,  R. A. King,  
 P. Klunzinger,  K. Koh,  D. Kosenkov,  T. Kowalczyk,  C. M. Krauter,  
 A. Kunitsa,  K. U. Lao,  A. Laurent,  K. V. Lawler,  J. Lee,  D. Lefrancois,  
 S. Lehtola,  S. V. Levchenko,  C. Y. Lin,  Y.-S. Lin,  F. Liu,  E. Livshits,  
 R. C. Lochan,  A. Luenser,  P. Manohar,  S. F. Manzer,  S.-P. Mao,  Y. Mao,  
 N. Mardirossian,  A. V. Marenich,  L. A. Martinez-Martinez,  S. A. Maurer,  
 N. J. Mayhall,  J.-M. Mewes,  A. F. Morrison,  K. Nanda,  T. S. Nguyen-Beck,  
 C. M. Oana,  R. Olivares-Amaya,  D. P. O'Neill,  J. A. Parkhill,  
 T. M. Perrine,  R. Peverati,  P. A. Pieniazek,  F. Plasser,  A. Prociuk,  
 D. R. Rehn,  E. Rosta,  N. J. Russ,  N. Sergueev,  S. M. Sharada,  
 S. Sharma,  D. W. Small,  A. Sodt,  T. Stauch,  T. Stein,  D. Stuck,  
 Y.-C. Su,  A. J. W. Thom,  T. Tsuchimochi,  L. Vogt,  O. Vydrov,  T. Wang,  
 M. A. Watson,  J. Wenzel,  A. White,  C. F. Williams,  V. Vanovschi,  
 K. Yao,  S. Yeganeh,  S. R. Yost,  Z.-Q. You,  I. Y. Zhang,  X. Zhang,  
 Y. Zhao,  B. R. Brooks,  G. K. L. Chan,  D. M. Chipman,  C. J. Cramer,  
 W. A. Goddard III,  M. S. Gordon,  W. J. Hehre,  A. Klamt,  
 H. F. Schaefer III,  M. W. Schmidt,  C. D. Sherrill,  D. G. Truhlar,  
 A. Warshel,  X. Xu,  A. Aspuru-Guzik,  R. Baer,  A. T. Bell,  N. A. Besley,  
 J.-D. Chai,  A. Dreuw,  B. D. Dunietz,  T. R. Furlani,  S. R. Gwaltney,  
 C.-P. Hsu,  Y. Jung,  J. Kong,  D. S. Lambrecht,  W. Liang,  C. Ochsenfeld,  
 V. A. Rassolov,  L. V. Slipchenko,  J. E. Subotnik,  T. Van Voorhis,  
 J. M. Herbert,  A. I. Krylov,  P. M. W. Gill,  M. Head-Gordon

 Contributors to earlier versions of Q-Chem not listed above: 
 R. D. Adamson,  J. Baker,  E. F. C. Byrd,  A. K. Chakraborty,  C.-L. Cheng,  
 H. Dachsel,  R. J. Doerksen,  G. Hawkins,  A. Heyden,  S. Hirata,  
 G. Kedziora,  F. J. Keil,  C. Kelley,  P. P. Korambath,  W. Kurlancheek,  
 A. M. Lee,  M. S. Lee,  D. Liotard,  I. Lotan,  P. E. Maslen,  N. Nair,  
 D. Neuhauser,  R. Olson,  B. Peters,  J. Ritchie,  N. E. Schultz,  
 N. Shenvi,  A. C. Simmonett,  K. S. Thanthiriwatte,  Q. Wu,  W. Zhang

 Please cite Q-Chem as follows:
 Y. Shao et al., Mol. Phys. 113, 184-215 (2015)
 DOI: 10.1080/00268976.2014.952696

 Q-Chem 4.4.2 for Intel X86 EM64T Linux

 Parts of Q-Chem use Armadillo 5.200.1 (Boston Tea Smuggler).
 http://arma.sourceforge.net/

 Q-Chem begins on Tue May 30 10:52:42 2017  

Host: nid00478
0

     Scratch files written to /dev/shm/eg_qchem/qchem36722.0//
 Parallel job on  22  processors

Checking the input file for inconsistencies... 	...done.

--------------------------------------------------------------
User input:
--------------------------------------------------------------
$molecule
 0  1
 H           6.23254100       -0.22338900        0.17638100
 H           5.29752400        2.22850500       -0.10953100
 C           5.19733500        0.07486000        0.08356300
 C           4.68347900        1.33634400       -0.06443600
 S           3.94559900       -1.12581000        0.11905200
 C           3.26267300        1.34659400       -0.16511200
 H           2.67740100        2.24810800       -0.30841700
 C           2.69562400        0.08941900       -0.09094600
 H           1.33241900       -2.39005500       -0.68762600
 C           1.29739300       -0.28590200       -0.16150800
 C           0.73808300       -1.51455700       -0.45078400
 S           0.03601800        0.89451200        0.14982500
 C          -0.68041100       -1.51067300       -0.44936800
 H          -1.28012400       -2.38277100       -0.68510300
 C          -1.23220500       -0.27900200       -0.15852500
 C          -2.62830100        0.10383400       -0.08465000
 H          -3.35505734       -0.88213119        1.70621171
 C          -3.57711230       -0.24750286        0.85547646
 S          -3.33985661        1.15523296       -1.29765024
 C          -4.85776320        0.32706272        0.61294517
 C          -4.88378454        1.11513659       -0.50757072
 H          -5.72028204        0.16822381        1.25002693
 H          -5.71412669        1.67234579       -0.91899152
$end


$rem
         jobtype = opt
        exchange = b3lyp
           basis = 6-31++g**
  max_scf_cycles = 150
      mem_static = 281
       mem_total = 2818
      sym_ignore = true
        symmetry = false
          thresh = 12
$end


$opt
CONSTRAINT
tors 13 15 16 18 70.0
ENDCONSTRAINT
$end

--------------------------------------------------------------
 ----------------------------------------------------------------
             Standard Nuclear Orientation (Angstroms)
    I     Atom           X                Y                Z
 ----------------------------------------------------------------
    1      H       6.2325410000    -0.2233890000     0.1763810000
    2      H       5.2975240000     2.2285050000    -0.1095310000
    3      C       5.1973350000     0.0748600000     0.0835630000
    4      C       4.6834790000     1.3363440000    -0.0644360000
    5      S       3.9455990000    -1.1258100000     0.1190520000
    6      C       3.2626730000     1.3465940000    -0.1651120000
    7      H       2.6774010000     2.2481080000    -0.3084170000
    8      C       2.6956240000     0.0894190000    -0.0909460000
    9      H       1.3324190000    -2.3900550000    -0.6876260000
   10      C       1.2973930000    -0.2859020000    -0.1615080000
   11      C       0.7380830000    -1.5145570000    -0.4507840000
   12      S       0.0360180000     0.8945120000     0.1498250000
   13      C      -0.6804110000    -1.5106730000    -0.4493680000
   14      H      -1.2801240000    -2.3827710000    -0.6851030000
   15      C      -1.2322050000    -0.2790020000    -0.1585250000
   16      C      -2.6283010000     0.1038340000    -0.0846500000
   17      H      -3.3550573400    -0.8821311900     1.7062117100
   18      C      -3.5771123000    -0.2475028600     0.8554764600
   19      S      -3.3398566100     1.1552329600    -1.2976502400
   20      C      -4.8577632000     0.3270627200     0.6129451700
   21      C      -4.8837845400     1.1151365900    -0.5075707200
   22      H      -5.7202820400     0.1682238100     1.2500269300
   23      H      -5.7141266900     1.6723457900    -0.9189915200
 ----------------------------------------------------------------
 Nuclear Repulsion Energy =  1175.1438004124 hartrees
 There are       64 alpha and       64 beta electrons
 Requested basis set is 6-31++G(d,p)
 There are 110 shells and 345 basis functions

 Total QAlloc Memory Limit   2818 MB
 Mega-Array Size       275 MB
 MEM_STATIC part       281 MB
 A cutoff of  1.0D-12 yielded   4677 shell pairs
 There are     47680 function pairs

 Q-Chem warning in module /project/projectdirs/jcesr/qchem/qc44/cnl_qc441/compile/cori/qc_src/libqints/qchem/aobasis.C, line 68:

 Using reconstructed effective core potential

 
 -------------------------------------------------------
 OpenMP Integral Computing Module                       
 Release: version 1.0, May 2013, Q-Chem Inc. Pittsburgh 
 -------------------------------------------------------
 Integral Job Info:
 Integral job number is                      11
 Integral operator is                         1
 short-range coefficients                     0
 long-range coefficients              100000000
 Omega coefficients                           0
 if combine SR and LR in K                    0
 Integral screening is                        0
 Integral computing path is                   2
 max size of driver memory is            800000
 size of driver memory is                593474
 size of scratch memory is             15166112
 max col of scratch BK array               1296
 max len of scratch array in speh3          155
 max len of scratch index in speh4           18
 max int batch size is                      520
 min int batch size is                       52
 fixed nKL is                                52
 max L of basis functions is                  2
 order of int derivative is                   0
 number of shells is                        110
 number of basis is                         345
 number of cartesian basis is               345
 number of contracted shell pairs          4677
 number of primitive shell pairs          14590
 maxK2 (contraction) of shell pair           36
 max number of K2 of shell pair               1
 max number of CS2 of shell pair            512
 max number of PS2 of shell pair           3024
 mem total for path MDJ                  101496
 -------------------------------------------------------
 Smallest overlap matrix eigenvalue = 9.08E-08
 Linear dependence detected in AO basis
 Number of orthogonalized atomic orbitals = 343
 Maximum deviation from orthogonality = 9.199E-11

 Scale SEOQF with 1.000000e-02/1.000000e-01/1.000000e-01

 Standard Electronic Orientation quadrupole field applied
 Nucleus-field energy     =     0.0000000101 hartrees
 Guess from superposition of atomic densities
 Warning:  Energy on first SCF cycle will be non-variational
 A restricted hybrid HF-DFT SCF calculation will be
 performed using Pulay DIIS extrapolation
 Exchange:     0.2000 Hartree-Fock + 0.0800 Slater + 0.7200 B88
 Correlation:  0.1900 VWN1RPA + 0.8100 LYP
 Using SG-1 standard quadrature grid
 SCF converges when DIIS error is below 1.0E-08
 ---------------------------------------
  Cycle       Energy         DIIS Error
 ---------------------------------------
    1   -1660.2805763467      3.67E-02
    2   -1656.4200158679      3.79E-03
    3   -1656.0853544904      5.74E-03
    4   -1656.6445090612      9.70E-04
    5   -1656.6557919895      5.61E-04
    6   -1656.6601264396      1.99E-04
    7   -1656.6607303861      7.14E-05
    8   -1656.6608080334      1.32E-05
    9   -1656.6608106814      3.33E-06
   10   -1656.6608108064      1.98E-06
   11   -1656.6608108682      4.04E-07
   12   -1656.6608108724      2.23E-07
   13   -1656.6608108708      6.27E-08
   14   -1656.6608108711      2.19E-08
   15   -1656.6608108713      9.02E-09 Convergence criterion met
 ---------------------------------------
 SCF time:  CPU 16.30 s  wall 15.22 s
 SCF   energy in the final basis set = -1656.6608108713
 Total energy in the final basis set = -1656.6608108713
 
 --------------------------------------------------------------
 
                    Orbital Energies (a.u.)
 --------------------------------------------------------------
 
 Alpha MOs
 -- Occupied --
-88.921 -88.921 -88.920 -10.241 -10.240 -10.238 -10.237 -10.226
-10.226 -10.207 -10.206 -10.205 -10.205 -10.205 -10.204  -7.980
 -7.979  -7.979  -5.945  -5.944  -5.943  -5.941  -5.940  -5.940
 -5.938  -5.937  -5.937  -0.906  -0.891  -0.875  -0.786  -0.754
 -0.745  -0.743  -0.733  -0.696  -0.616  -0.594  -0.568  -0.564
 -0.537  -0.534  -0.527  -0.499  -0.462  -0.421  -0.419  -0.418
 -0.415  -0.407  -0.402  -0.400  -0.383  -0.375  -0.369  -0.358
 -0.352  -0.344  -0.282  -0.267  -0.262  -0.258  -0.246  -0.211
 -- Virtual --
 -0.064  -0.035  -0.009  -0.006  -0.004   0.001   0.009   0.010
  0.013   0.019   0.023   0.027   0.030   0.034   0.034   0.042
  0.045   0.048   0.052   0.053   0.060   0.064   0.072   0.075
  0.081   0.086   0.093   0.097   0.101   0.101   0.108   0.110
  0.111   0.113   0.120   0.123   0.126   0.128   0.131   0.133
  0.134   0.136   0.142   0.145   0.147   0.150   0.152   0.156
  0.161   0.168   0.169   0.173   0.175   0.179   0.184   0.194
  0.196   0.200   0.202   0.206   0.211   0.213   0.219   0.223
  0.228   0.232   0.236   0.246   0.249   0.254   0.259   0.263
  0.267   0.269   0.273   0.279   0.286   0.291   0.295   0.301
  0.311   0.318   0.323   0.335   0.342   0.347   0.354   0.358
  0.363   0.370   0.380   0.397   0.407   0.447   0.461   0.465
  0.486   0.508   0.522   0.527   0.540   0.557   0.576   0.582
  0.583   0.598   0.605   0.623   0.636   0.650   0.655   0.659
  0.661   0.670   0.675   0.687   0.693   0.700   0.713   0.723
  0.723   0.729   0.740   0.749   0.770   0.776   0.781   0.786
  0.789   0.811   0.817   0.824   0.833   0.840   0.847   0.878
  0.902   0.930   0.939   0.946   0.955   0.957   0.958   0.963
  0.969   0.974   0.979   0.988   0.994   0.996   1.003   1.021
  1.029   1.036   1.045   1.059   1.073   1.082   1.099   1.102
  1.110   1.130   1.140   1.153   1.171   1.189   1.207   1.216
  1.239   1.261   1.264   1.296   1.310   1.333   1.347   1.353
  1.357   1.365   1.366   1.387   1.454   1.461   1.470   1.501
  1.513   1.530   1.542   1.567   1.608   1.684   1.693   1.725
  1.799   1.808   1.832   1.858   1.876   1.882   1.891   1.906
  1.917   1.921   1.946   1.952   1.965   2.016   2.016   2.051
  2.061   2.077   2.110   2.129   2.155   2.171   2.181   2.198
  2.212   2.236   2.247   2.255   2.265   2.298   2.333   2.364
  2.367   2.416   2.440   2.445   2.454   2.466   2.475   2.480
  2.502   2.518   2.530   2.532   2.559   2.583   2.600   2.611
  2.626   2.651   2.677   2.699   2.713   2.745   2.789   2.852
  2.873   2.888   2.902   2.943   2.952   3.137   3.172   3.210
  3.272   3.272   3.327   3.413   3.417   3.674   3.731   3.737
  3.967   3.978   3.982   4.257   4.292   4.311   4.320   4.329
  4.356   4.403   4.483   4.548   4.649   4.695   4.727
 --------------------------------------------------------------
 
          Ground-State Mulliken Net Atomic Charges

     Atom                 Charge (a.u.)
  ----------------------------------------
      1 H                     0.196548
      2 H                     0.119292
      3 C                     0.029616
      4 C                    -0.410564
      5 S                    -0.132101
      6 C                     0.586557
      7 H                     0.129356
      8 C                    -0.438695
      9 H                     0.125690
     10 C                    -0.062701
     11 C                    -0.061645
     12 S                    -0.095064
     13 C                     0.128135
     14 H                     0.129353
     15 C                    -0.341179
     16 C                    -0.535287
     17 H                     0.151530
     18 C                     0.565008
     19 S                     0.001562
     20 C                    -0.479980
     21 C                     0.079624
     22 H                     0.118268
     23 H                     0.196675
  ----------------------------------------
  Sum of atomic charges =     0.000000

 -----------------------------------------------------------------
                    Cartesian Multipole Moments
 -----------------------------------------------------------------
    Charge (ESU x 10^10)
                 0.0000
    Dipole Moment (Debye)
         X      -0.1440      Y      -0.1718      Z       0.2147
       Tot       0.3104
    Quadrupole Moments (Debye-Ang)
        XX     -90.0155     XY       0.8070     YY    -104.0356
        XZ      -1.5901     YZ      -1.3973     ZZ    -112.6591
    Octopole Moments (Debye-Ang^2)
       XXX     -14.9458    XXY      10.9391    XYY       2.1504
       YYY     -47.8492    XXZ      26.3365    XYZ       8.8252
       YYZ       9.1716    XZZ     -25.4448    YZZ     -17.0603
       ZZZ      52.9525
    Hexadecapole Moments (Debye-Ang^3)
      XXXX   -6237.5793   XXXY     119.4470   XXYY   -1278.8572
      XYYY     260.5520   YYYY    -779.8804   XXXZ    -102.6641
      XXYZ     -46.3482   XYYZ     -23.8037   YYYZ      53.8695
      XXZZ   -1306.2083   XYZZ      70.1947   YYZZ    -199.7783
      XZZZ    -115.8992   YZZZ      42.2037   ZZZZ    -368.5580
 -----------------------------------------------------------------
 Calculating analytic gradient of the SCF energy
 Gradient of SCF Energy
            1           2           3           4           5           6
    1  -0.0000227   0.0000104   0.0001022  -0.0001213  -0.0000217   0.0002555
    2  -0.0000130  -0.0000037   0.0000943   0.0000418  -0.0002309   0.0004906
    3   0.0000060  -0.0000039  -0.0000355  -0.0000032   0.0000028   0.0001311
            7           8           9          10          11          12
    1   0.0000293  -0.0015791  -0.0000981   0.0019846  -0.0019244  -0.0017918
    2   0.0000199  -0.0003064   0.0000555  -0.0011948  -0.0001743   0.0008154
    3  -0.0000343  -0.0002064   0.0000681  -0.0007773  -0.0001295   0.0015878
           13          14          15          16          17          18
    1   0.0026563   0.0008904  -0.0091278   0.0104588  -0.0011408  -0.0028853
    2  -0.0022368  -0.0007369   0.0057209  -0.0007647   0.0000470   0.0001392
    3  -0.0009901  -0.0002271   0.0004294  -0.0026262   0.0005551   0.0017444
           19          20          21          22          23
    1   0.0018247   0.0013480  -0.0013872   0.0001048   0.0004353
    2  -0.0013277  -0.0003851  -0.0001286   0.0000173   0.0000610
    3  -0.0013206   0.0004324   0.0015932  -0.0001020  -0.0000943
 Max gradient component =       1.046E-02
 RMS gradient           =       2.062E-03
 Gradient time:  CPU 4.66 s  wall 4.59 s
 Geometry Optimization Parameters
   NAtoms,    NIC,     NZ,  NCons,   NDum,   NFix, NCnnct, MaxDiis
       23     166       0       1       0       0       0       0


** CONSTRAINED OPTIMIZATION IN DELOCALIZED INTERNAL COORDINATES **
   Searching for a Minimum

   Optimization Cycle:   1

                       Coordinates (Angstroms)
     ATOM                X               Y               Z
      1  H         6.2325410000   -0.2233890000    0.1763810000
      2  H         5.2975240000    2.2285050000   -0.1095310000
      3  C         5.1973350000    0.0748600000    0.0835630000
      4  C         4.6834790000    1.3363440000   -0.0644360000
      5  S         3.9455990000   -1.1258100000    0.1190520000
      6  C         3.2626730000    1.3465940000   -0.1651120000
      7  H         2.6774010000    2.2481080000   -0.3084170000
      8  C         2.6956240000    0.0894190000   -0.0909460000
      9  H         1.3324190000   -2.3900550000   -0.6876260000
     10  C         1.2973930000   -0.2859020000   -0.1615080000
     11  C         0.7380830000   -1.5145570000   -0.4507840000
     12  S         0.0360180000    0.8945120000    0.1498250000
     13  C        -0.6804110000   -1.5106730000   -0.4493680000
     14  H        -1.2801240000   -2.3827710000   -0.6851030000
     15  C        -1.2322050000   -0.2790020000   -0.1585250000
     16  C        -2.6283010000    0.1038340000   -0.0846500000
     17  H        -3.3550573400   -0.8821311900    1.7062117100
     18  C        -3.5771123000   -0.2475028600    0.8554764600
     19  S        -3.3398566100    1.1552329600   -1.2976502400
     20  C        -4.8577632000    0.3270627200    0.6129451700
     21  C        -4.8837845400    1.1151365900   -0.5075707200
     22  H        -5.7202820400    0.1682238100    1.2500269300
     23  H        -5.7141266900    1.6723457900   -0.9189915200
   Point Group: c1    Number of degrees of freedom:    63


   Energy is  -1656.660810871

              Constraints and their Current Values
                                        Value     Constraint
   Dihedral:       13  15  16  18       70.000       70.000

 Attempting to Generate Delocalized Internal Coordinates

 62 Hessian modes will be used to form the next step
  Hessian Eigenvalues:
     0.045000    0.045000    0.045000    0.045000    0.045000    0.045000
     0.045000    0.045000    0.045000    0.045001    0.045002    0.045002
     0.045003    0.045003    0.045009    0.045010    0.045011    0.045018
     0.045019    0.159886    0.159939    0.159955    0.159957    0.159992
     0.159993    0.160000    0.160000    0.221281    0.221281    0.226855
     0.237826    0.237826    0.245311    0.249998    0.249998    0.250000
     0.250000    0.293636    0.293684    0.294746    0.294936    0.312571
     0.312615    0.354732    0.354740    0.354742    0.354756    0.355161
     0.355164    0.358372    0.358373    0.383080    0.383176    0.405793
     0.405832    0.413732    0.458107    0.461989    0.461995    0.485493
     0.497291    0.497294

 Minimum Search - Taking Simple RFO Step
 Searching for Lamda that Minimizes Along All modes
 Value Taken    Lamda =  -0.00050411
 Step Taken.  Stepsize is  0.055845

                             Maximum     Tolerance    Cnvgd?
         Gradient           0.004257      0.000300      NO
         Displacement       0.019098      0.001200      NO
         Energy change     *********      0.000001      NO


 New Cartesian Coordinates Obtained by Inverse Iteration

 Displacement from previous Coordinates is:  0.185706
 ----------------------------------------------------------------
             Standard Nuclear Orientation (Angstroms)
    I     Atom           X                Y                Z
 ----------------------------------------------------------------
    1      H       6.2377975428    -0.2377322066     0.1931196122
    2      H       5.3166850981     2.2167596073    -0.1153161159
    3      C       5.2045093791     0.0652095833     0.0940444407
    4      C       4.6978948486     1.3281256871    -0.0657503107
    5      S       3.9462265857    -1.1281347475     0.1336823870
    6      C       3.2774375650     1.3448960662    -0.1720695921
    7      H       2.6972500189     2.2482053919    -0.3244096678
    8      C       2.7036179558     0.0918964414    -0.0902402311
    9      H       1.3307632742    -2.3833411218    -0.6810363725
   10      C       1.3019210446    -0.2767039168    -0.1637690430
   11      C       0.7388410066    -1.5046350820    -0.4493111771
   12      S       0.0442055393     0.9083628657     0.1318090767
   13      C      -0.6820987714    -1.4950367138    -0.4511794104
   14      H      -1.2910074189    -2.3617308467    -0.6821989475
   15      C      -1.2292413950    -0.2655718793    -0.1614488751
   16      C      -2.6392335147     0.1141390827    -0.0895478479
   17      H      -3.3378296650    -0.8830239778     1.6954542746
   18      C      -3.5775358876    -0.2462102306     0.8514969888
   19      S      -3.3643519862     1.1727723251    -1.2905210328
   20      C      -4.8682807995     0.3125806463     0.6134160869
   21      C      -4.9067288639     1.1051063958    -0.5041476162
   22      H      -5.7274577784     0.1396061520     1.2517039096
   23      H      -5.7463184982     1.6528452981    -0.9105177465
 ----------------------------------------------------------------
 Nuclear Repulsion Energy =  1173.8269714005 hartrees
 There are       64 alpha and       64 beta electrons
 Applying Cartesian multipole field
    Component          Value
    ---------          -----
     (2,0,0)        1.00000E-12
     (0,2,0)        2.00000E-11
     (0,0,2)       -3.00000E-11
 Nucleus-field energy     =     0.0000000101 hartrees
 Requested basis set is 6-31++G(d,p)
 There are 110 shells and 345 basis functions
 A cutoff of  1.0D-12 yielded   4675 shell pairs
 There are     47677 function pairs

 Q-Chem warning in module /project/projectdirs/jcesr/qchem/qc44/cnl_qc441/compile/cori/qc_src/libqints/qchem/aobasis.C, line 68:

 Using reconstructed effective core potential

 Smallest overlap matrix eigenvalue = 9.38E-08
 Linear dependence detected in AO basis
 Number of orthogonalized atomic orbitals = 343
 Maximum deviation from orthogonality = 1.570E-10
 Guess MOs from SCF MO coefficient file
 Reading MOs from coefficient file
 Reading MOs from coefficient file
 A restricted hybrid HF-DFT SCF calculation will be
 performed using Pulay DIIS extrapolation
 Exchange:     0.2000 Hartree-Fock + 0.0800 Slater + 0.7200 B88
 Correlation:  0.1900 VWN1RPA + 0.8100 LYP
 Using SG-1 standard quadrature grid
 SCF converges when DIIS error is below 1.0E-08
 Geometry optimization detected.  Setting ReadMinima to 0
 Setting SaveMinima to 0
 ---------------------------------------
  Cycle       Energy         DIIS Error
 ---------------------------------------
    1   -1656.6632876737      5.08E-04
    2   -1656.6609188196      1.01E-04
    3   -1656.6602105464      2.33E-04
    4   -1656.6610909212      1.93E-05
    5   -1656.6610961182      7.67E-06
    6   -1656.6610969781      2.43E-06
    7   -1656.6610970622      8.15E-07
    8   -1656.6610970730      3.05E-07
    9   -1656.6610970740      9.20E-08
   10   -1656.6610970742      2.75E-08
   11   -1656.6610970733      1.06E-08
   12   -1656.6610970733      3.62E-09 Convergence criterion met
 ---------------------------------------
 SCF time:  CPU 13.10 s  wall 12.12 s
 SCF   energy in the final basis set = -1656.6610970733
 Total energy in the final basis set = -1656.6610970733
 
 --------------------------------------------------------------
 
                    Orbital Energies (a.u.)
 --------------------------------------------------------------
 
 Alpha MOs
 -- Occupied --
-88.921 -88.921 -88.920 -10.241 -10.240 -10.238 -10.237 -10.226
-10.226 -10.206 -10.206 -10.205 -10.205 -10.205 -10.204  -7.981
 -7.979  -7.979  -5.945  -5.944  -5.944  -5.941  -5.940  -5.940
 -5.938  -5.937  -5.937  -0.905  -0.891  -0.876  -0.786  -0.754
 -0.745  -0.743  -0.733  -0.697  -0.616  -0.593  -0.568  -0.564
 -0.537  -0.534  -0.527  -0.499  -0.463  -0.421  -0.419  -0.417
 -0.415  -0.407  -0.402  -0.400  -0.383  -0.375  -0.370  -0.358
 -0.351  -0.344  -0.282  -0.267  -0.262  -0.258  -0.247  -0.211
 -- Virtual --
 -0.063  -0.034  -0.009  -0.006  -0.004   0.001   0.009   0.010
  0.013   0.019   0.023   0.026   0.030   0.034   0.034   0.042
  0.045   0.048   0.052   0.053   0.060   0.064   0.072   0.075
  0.081   0.086   0.093   0.097   0.101   0.101   0.108   0.110
  0.111   0.113   0.120   0.123   0.126   0.128   0.131   0.133
  0.134   0.136   0.141   0.145   0.146   0.150   0.151   0.156
  0.160   0.167   0.168   0.173   0.175   0.179   0.184   0.193
  0.195   0.200   0.202   0.205   0.210   0.213   0.219   0.223
  0.228   0.232   0.236   0.246   0.249   0.254   0.259   0.262
  0.266   0.269   0.273   0.279   0.286   0.291   0.295   0.301
  0.311   0.318   0.323   0.335   0.342   0.346   0.354   0.357
  0.363   0.369   0.380   0.398   0.407   0.448   0.461   0.465
  0.485   0.507   0.522   0.528   0.540   0.557   0.576   0.582
  0.582   0.598   0.605   0.621   0.635   0.650   0.655   0.658
  0.660   0.670   0.675   0.687   0.693   0.700   0.713   0.722
  0.723   0.729   0.739   0.748   0.770   0.775   0.781   0.785
  0.789   0.810   0.816   0.824   0.832   0.839   0.847   0.878
  0.902   0.930   0.940   0.947   0.955   0.957   0.959   0.963
  0.970   0.974   0.979   0.988   0.993   0.996   1.003   1.020
  1.028   1.036   1.044   1.059   1.072   1.081   1.099   1.102
  1.110   1.130   1.140   1.153   1.171   1.189   1.207   1.215
  1.238   1.260   1.264   1.297   1.312   1.333   1.347   1.352
  1.356   1.364   1.365   1.388   1.451   1.459   1.470   1.500
  1.514   1.529   1.542   1.567   1.607   1.684   1.693   1.725
  1.794   1.806   1.830   1.861   1.874   1.881   1.889   1.904
  1.916   1.921   1.946   1.951   1.964   2.015   2.016   2.051
  2.061   2.078   2.110   2.131   2.154   2.171   2.181   2.198
  2.213   2.234   2.244   2.254   2.265   2.296   2.331   2.364
  2.367   2.416   2.440   2.445   2.454   2.466   2.474   2.479
  2.501   2.519   2.529   2.532   2.558   2.582   2.599   2.611
  2.626   2.651   2.676   2.698   2.713   2.743   2.787   2.851
  2.872   2.886   2.901   2.942   2.950   3.136   3.172   3.209
  3.270   3.272   3.326   3.413   3.416   3.673   3.731   3.736
  3.966   3.978   3.981   4.256   4.291   4.311   4.318   4.329
  4.356   4.402   4.482   4.547   4.648   4.694   4.725
 --------------------------------------------------------------
 
          Ground-State Mulliken Net Atomic Charges

     Atom                 Charge (a.u.)
  ----------------------------------------
      1 H                     0.196640
      2 H                     0.119294
      3 C                     0.031077
      4 C                    -0.410740
      5 S                    -0.131692
      6 C                     0.586398
      7 H                     0.129462
      8 C                    -0.438660
      9 H                     0.125675
     10 C                    -0.073159
     11 C                    -0.055017
     12 S                    -0.091321
     13 C                     0.111032
     14 H                     0.130023
     15 C                    -0.317264
     16 C                    -0.525944
     17 H                     0.151884
     18 C                     0.543318
     19 S                     0.002751
     20 C                    -0.476460
     21 C                     0.076934
     22 H                     0.118396
     23 H                     0.197372
  ----------------------------------------
  Sum of atomic charges =     0.000000

 -----------------------------------------------------------------
                    Cartesian Multipole Moments
 -----------------------------------------------------------------
    Charge (ESU x 10^10)
                 0.0000
    Dipole Moment (Debye)
         X      -0.1351      Y      -0.1849      Z       0.2159
       Tot       0.3147
    Quadrupole Moments (Debye-Ang)
        XX     -89.8266     XY       0.8528     YY    -104.1106
        XZ      -1.5421     YZ      -1.4733     ZZ    -112.7320
    Octopole Moments (Debye-Ang^2)
       XXX     -15.0006    XXY      10.2616    XYY       2.4806
       YYY     -49.0880    XXZ      26.2379    XYZ       8.6505
       YYZ       9.1928    XZZ     -24.9703    YZZ     -17.5523
       ZZZ      52.9796
    Hexadecapole Moments (Debye-Ang^3)
      XXXX   -6262.4778   XXXY     122.1834   XXYY   -1285.6622
      XYYY     263.6262   YYYY    -780.6391   XXXZ    -101.4952
      XXYZ     -47.0523   XYYZ     -25.2875   YYYZ      55.7171
      XXZZ   -1313.5770   XYZZ      71.6090   YYZZ    -199.5475
      XZZZ    -119.5468   YZZZ      44.7693   ZZZZ    -367.2693
 -----------------------------------------------------------------
 Calculating analytic gradient of the SCF energy
 Gradient of SCF Energy
            1           2           3           4           5           6
    1   0.0000034   0.0000112   0.0001041  -0.0000962   0.0001274   0.0001869
    2  -0.0000051  -0.0000053   0.0000267  -0.0000366  -0.0000155   0.0001222
    3  -0.0000046  -0.0000038  -0.0000063   0.0000284  -0.0000375   0.0001051
            7           8           9          10          11          12
    1   0.0000079  -0.0005460   0.0000410   0.0014176  -0.0008244  -0.0000857
    2  -0.0000220   0.0000404   0.0000064  -0.0001291   0.0002233  -0.0003072
    3  -0.0000448  -0.0001016  -0.0000134   0.0000120   0.0000583   0.0003785
           13          14          15          16          17          18
    1   0.0007900   0.0001684  -0.0016860   0.0012890  -0.0001970  -0.0002702
    2   0.0002560  -0.0000623   0.0002060  -0.0015651   0.0000907   0.0011942
    3  -0.0011131  -0.0000817   0.0011130  -0.0006623   0.0000931   0.0005014
           19          20          21          22          23
    1  -0.0001886   0.0007625  -0.0010567  -0.0000249   0.0000662
    2  -0.0003736  -0.0000249   0.0002295   0.0000535   0.0000977
    3   0.0000386  -0.0000696  -0.0001080   0.0000159  -0.0000975
 Max gradient component =       1.686E-03
 RMS gradient           =       5.085E-04
 Gradient time:  CPU 4.64 s  wall 4.59 s
 Geometry Optimization Parameters
   NAtoms,    NIC,     NZ,  NCons,   NDum,   NFix, NCnnct, MaxDiis
       23     166       0       1       0       0       0       0

 Cartesian Hessian Update
 Hessian Updated using BFGS Update


** CONSTRAINED OPTIMIZATION IN DELOCALIZED INTERNAL COORDINATES **
   Searching for a Minimum

   Optimization Cycle:   2

                       Coordinates (Angstroms)
     ATOM                X               Y               Z
      1  H         6.2377975428   -0.2377322066    0.1931196122
      2  H         5.3166850981    2.2167596073   -0.1153161159
      3  C         5.2045093791    0.0652095833    0.0940444407
      4  C         4.6978948486    1.3281256871   -0.0657503107
      5  S         3.9462265857   -1.1281347475    0.1336823870
      6  C         3.2774375650    1.3448960662   -0.1720695921
      7  H         2.6972500189    2.2482053919   -0.3244096678
      8  C         2.7036179558    0.0918964414   -0.0902402311
      9  H         1.3307632742   -2.3833411218   -0.6810363725
     10  C         1.3019210446   -0.2767039168   -0.1637690430
     11  C         0.7388410066   -1.5046350820   -0.4493111771
     12  S         0.0442055393    0.9083628657    0.1318090767
     13  C        -0.6820987714   -1.4950367138   -0.4511794104
     14  H        -1.2910074189   -2.3617308467   -0.6821989475
     15  C        -1.2292413950   -0.2655718793   -0.1614488751
     16  C        -2.6392335147    0.1141390827   -0.0895478479
     17  H        -3.3378296650   -0.8830239778    1.6954542746
     18  C        -3.5775358876   -0.2462102306    0.8514969888
     19  S        -3.3643519862    1.1727723251   -1.2905210328
     20  C        -4.8682807995    0.3125806463    0.6134160869
     21  C        -4.9067288639    1.1051063958   -0.5041476162
     22  H        -5.7274577784    0.1396061520    1.2517039096
     23  H        -5.7463184982    1.6528452981   -0.9105177465
   Point Group: c1    Number of degrees of freedom:    63


   Energy is  -1656.661097073

              Constraints and their Current Values
                                        Value     Constraint
   Dihedral:       13  15  16  18       70.000       70.000
 Hessian Updated using BFGS Update

 54 Hessian modes will be used to form the next step
  Hessian Eigenvalues:
     0.039679    0.045000    0.045000    0.045001    0.045002    0.045007
     0.045009    0.045010    0.045018    0.045018    0.045881    0.154063
     0.159902    0.159951    0.159958    0.159992    0.159993    0.160000
     0.160117    0.215035    0.221281    0.224321    0.227178    0.237826
     0.240589    0.249994    0.249998    0.249999    0.255848    0.293492
     0.293882    0.294668    0.296638    0.312571    0.313415    0.354734
     0.354741    0.354747    0.354772    0.355164    0.355170    0.358372
     0.358397    0.383019    0.399783    0.405831    0.409213    0.420124
     0.458978    0.461313    0.464492    0.484397    0.497181    0.497407

 Minimum Search - Taking Simple RFO Step
 Searching for Lamda that Minimizes Along All modes
 Value Taken    Lamda =  -0.00006248
 Step Taken.  Stepsize is  0.028489

                             Maximum     Tolerance    Cnvgd?
         Gradient           0.001133      0.000300      NO
         Displacement       0.014958      0.001200      NO
         Energy change     -0.000286      0.000001      NO


 New Cartesian Coordinates Obtained by Inverse Iteration

 Displacement from previous Coordinates is:  0.076793
 ----------------------------------------------------------------
             Standard Nuclear Orientation (Angstroms)
    I     Atom           X                Y                Z
 ----------------------------------------------------------------
    1      H       6.2349955073    -0.2439280446     0.1988210988
    2      H       5.3207449474     2.2116530989    -0.1216920166
    3      C       5.2025997029     0.0612240242     0.0973113486
    4      C       4.6996561934     1.3248211052    -0.0687967769
    5      S       3.9413580429    -1.1287659147     0.1412210474
    6      C       3.2792855941     1.3446764586    -0.1764031465
    7      H       2.7013398283     2.2487387969    -0.3329403962
    8      C       2.7027251423     0.0935685393    -0.0894746492
    9      H       1.3288065261    -2.3804986812    -0.6753002489
   10      C       1.2997552245    -0.2719259004    -0.1631474537
   11      C       0.7375210437    -1.5007324844    -0.4460682331
   12      S       0.0457545716     0.9173571795     0.1272631155
   13      C      -0.6837258199    -1.4885561282    -0.4489642755
   14      H      -1.2965205365    -2.3531121281    -0.6778278465
   15      C      -1.2269491375    -0.2584148284    -0.1592220496
   16      C      -2.6400173611     0.1184684092    -0.0925248349
   17      H      -3.3297074753    -0.8907343703     1.6868618599
   18      C      -3.5748244867    -0.2495985974     0.8477199356
   19      S      -3.3647931688     1.1837365878    -1.2871468190
   20      C      -4.8683334126     0.3041503480     0.6116935145
   21      C      -4.9063489350     1.1032043952    -0.5013008199
   22      H      -5.7277133785     0.1237784680     1.2476370399
   23      H      -5.7485433326     1.6492744867    -0.9044566036
 ----------------------------------------------------------------
 Nuclear Repulsion Energy =  1173.9880891516 hartrees
 There are       64 alpha and       64 beta electrons
 Applying Cartesian multipole field
    Component          Value
    ---------          -----
     (2,0,0)        1.00000E-12
     (0,2,0)        2.00000E-11
     (0,0,2)       -3.00000E-11
 Nucleus-field energy     =     0.0000000102 hartrees
 Requested basis set is 6-31++G(d,p)
 There are 110 shells and 345 basis functions
 A cutoff of  1.0D-12 yielded   4676 shell pairs
 There are     47681 function pairs

 Q-Chem warning in module /project/projectdirs/jcesr/qchem/qc44/cnl_qc441/compile/cori/qc_src/libqints/qchem/aobasis.C, line 68:

 Using reconstructed effective core potential

 Smallest overlap matrix eigenvalue = 9.35E-08
 Linear dependence detected in AO basis
 Number of orthogonalized atomic orbitals = 343
 Maximum deviation from orthogonality = 4.062E-11
 Guess MOs from SCF MO coefficient file
 Reading MOs from coefficient file
 Reading MOs from coefficient file
 A restricted hybrid HF-DFT SCF calculation will be
 performed using Pulay DIIS extrapolation
 Exchange:     0.2000 Hartree-Fock + 0.0800 Slater + 0.7200 B88
 Correlation:  0.1900 VWN1RPA + 0.8100 LYP
 Using SG-1 standard quadrature grid
 SCF converges when DIIS error is below 1.0E-08
 Geometry optimization detected.  Setting ReadMinima to 0
 Setting SaveMinima to 0
 ---------------------------------------
  Cycle       Energy         DIIS Error
 ---------------------------------------
    1   -1656.6643634031      2.40E-04
    2   -1656.6610988743      4.39E-05
    3   -1656.6609764122      9.77E-05
    4   -1656.6611309433      1.04E-05
    5   -1656.6611326263      3.00E-06
    6   -1656.6611327394      1.57E-06
    7   -1656.6611327780      3.80E-07
    8   -1656.6611327779      1.44E-07
    9   -1656.6611327805      5.10E-08
   10   -1656.6611327798      1.42E-08
   11   -1656.6611327811      5.19E-09 Convergence criterion met
 ---------------------------------------
 SCF time:  CPU 12.17 s  wall 11.17 s
 SCF   energy in the final basis set = -1656.6611327811
 Total energy in the final basis set = -1656.6611327811
 
 --------------------------------------------------------------
 
                    Orbital Energies (a.u.)
 --------------------------------------------------------------
 
 Alpha MOs
 -- Occupied --
-88.921 -88.921 -88.920 -10.241 -10.240 -10.238 -10.237 -10.226
-10.226 -10.206 -10.206 -10.205 -10.205 -10.205 -10.204  -7.981
 -7.980  -7.980  -5.945  -5.944  -5.944  -5.941  -5.940  -5.940
 -5.938  -5.937  -5.937  -0.905  -0.891  -0.876  -0.785  -0.754
 -0.745  -0.743  -0.733  -0.697  -0.615  -0.593  -0.568  -0.564
 -0.537  -0.534  -0.527  -0.499  -0.463  -0.421  -0.419  -0.417
 -0.415  -0.407  -0.402  -0.400  -0.383  -0.375  -0.370  -0.358
 -0.352  -0.345  -0.282  -0.267  -0.262  -0.258  -0.246  -0.211
 -- Virtual --
 -0.063  -0.034  -0.009  -0.006  -0.004   0.001   0.009   0.010
  0.013   0.019   0.023   0.027   0.030   0.034   0.034   0.042
  0.045   0.048   0.052   0.053   0.060   0.064   0.072   0.075
  0.081   0.086   0.093   0.097   0.101   0.101   0.108   0.110
  0.111   0.113   0.120   0.123   0.126   0.128   0.131   0.133
  0.134   0.136   0.141   0.145   0.146   0.150   0.151   0.156
  0.160   0.167   0.169   0.173   0.175   0.179   0.184   0.193
  0.195   0.200   0.202   0.206   0.210   0.213   0.219   0.223
  0.228   0.232   0.236   0.246   0.249   0.254   0.259   0.262
  0.266   0.269   0.273   0.278   0.286   0.291   0.295   0.302
  0.311   0.318   0.323   0.335   0.342   0.346   0.354   0.357
  0.363   0.369   0.380   0.398   0.406   0.449   0.461   0.465
  0.485   0.507   0.522   0.528   0.540   0.557   0.576   0.581
  0.582   0.598   0.605   0.621   0.635   0.650   0.655   0.658
  0.660   0.670   0.675   0.687   0.693   0.700   0.713   0.722
  0.723   0.729   0.739   0.748   0.771   0.775   0.781   0.785
  0.789   0.809   0.816   0.824   0.832   0.839   0.847   0.878
  0.902   0.930   0.941   0.947   0.955   0.958   0.959   0.962
  0.970   0.974   0.979   0.988   0.993   0.997   1.002   1.020
  1.028   1.036   1.044   1.059   1.072   1.081   1.099   1.102
  1.110   1.130   1.140   1.153   1.172   1.189   1.207   1.215
  1.238   1.261   1.265   1.298   1.313   1.334   1.347   1.352
  1.356   1.363   1.366   1.389   1.449   1.458   1.469   1.500
  1.514   1.528   1.542   1.567   1.607   1.684   1.692   1.725
  1.793   1.804   1.830   1.864   1.874   1.881   1.889   1.904
  1.916   1.921   1.947   1.952   1.965   2.015   2.016   2.051
  2.062   2.078   2.110   2.132   2.154   2.171   2.181   2.198
  2.214   2.235   2.244   2.254   2.265   2.295   2.330   2.364
  2.368   2.416   2.440   2.445   2.454   2.466   2.474   2.479
  2.502   2.519   2.530   2.532   2.558   2.582   2.599   2.611
  2.626   2.652   2.676   2.698   2.713   2.743   2.787   2.850
  2.872   2.885   2.901   2.941   2.948   3.136   3.171   3.208
  3.270   3.272   3.325   3.413   3.415   3.674   3.731   3.737
  3.965   3.978   3.981   4.256   4.291   4.311   4.319   4.329
  4.356   4.401   4.482   4.548   4.648   4.694   4.724
 --------------------------------------------------------------
 
          Ground-State Mulliken Net Atomic Charges

     Atom                 Charge (a.u.)
  ----------------------------------------
      1 H                     0.196534
      2 H                     0.119231
      3 C                     0.030929
      4 C                    -0.410715
      5 S                    -0.131877
      6 C                     0.586030
      7 H                     0.129227
      8 C                    -0.438772
      9 H                     0.125528
     10 C                    -0.070607
     11 C                    -0.061734
     12 S                    -0.087471
     13 C                     0.109224
     14 H                     0.130457
     15 C                    -0.315811
     16 C                    -0.513987
     17 H                     0.152058
     18 C                     0.528719
     19 S                     0.005628
     20 C                    -0.469595
     21 C                     0.071461
     22 H                     0.118513
     23 H                     0.197032
  ----------------------------------------
  Sum of atomic charges =     0.000000

 -----------------------------------------------------------------
                    Cartesian Multipole Moments
 -----------------------------------------------------------------
    Charge (ESU x 10^10)
                 0.0000
    Dipole Moment (Debye)
         X      -0.1402      Y      -0.1890      Z       0.2100
       Tot       0.3153
    Quadrupole Moments (Debye-Ang)
        XX     -89.9089     XY       0.8849     YY    -104.0909
        XZ      -1.5307     YZ      -1.5262     ZZ    -112.7474
    Octopole Moments (Debye-Ang^2)
       XXX     -15.0099    XXY       9.5681    XYY       2.4932
       YYY     -49.8545    XXZ      26.2107    XYZ       8.5908
       YYZ       9.1131    XZZ     -24.7837    YZZ     -17.8175
       ZZZ      52.6887
    Hexadecapole Moments (Debye-Ang^3)
      XXXX   -6261.6753   XXXY     124.5329   XXYY   -1285.3451
      XYYY     264.0740   YYYY    -782.1035   XXXZ    -102.2407
      XXYZ     -47.2920   XYYZ     -25.7861   YYYZ      56.8613
      XXZZ   -1313.3851   XYZZ      72.0095   YYZZ    -199.4935
      XZZZ    -120.2711   YZZZ      46.3256   ZZZZ    -366.0670
 -----------------------------------------------------------------
 Calculating analytic gradient of the SCF energy
 Gradient of SCF Energy
            1           2           3           4           5           6
    1  -0.0000076  -0.0000068  -0.0000642  -0.0000775   0.0000609   0.0000479
    2  -0.0000087   0.0000073  -0.0000246   0.0000168  -0.0000749   0.0000093
    3  -0.0000039  -0.0000014  -0.0000009  -0.0000002  -0.0000382   0.0000840
            7           8           9          10          11          12
    1  -0.0000050  -0.0000913  -0.0000115   0.0000410  -0.0002530   0.0002013
    2  -0.0000069   0.0000837  -0.0000702   0.0000763  -0.0000497   0.0003182
    3  -0.0000284  -0.0000745  -0.0000414   0.0001800   0.0000542   0.0002081
           13          14          15          16          17          18
    1   0.0001844  -0.0000192   0.0006309  -0.0012646   0.0000103   0.0003499
    2   0.0006881  -0.0000048  -0.0007320  -0.0016464   0.0000172   0.0015158
    3  -0.0014443  -0.0000473   0.0019765  -0.0010721   0.0000320   0.0005929
           19          20          21          22          23
    1  -0.0001282   0.0001814   0.0001612  -0.0000038   0.0000636
    2   0.0001610  -0.0001718  -0.0000966  -0.0000304   0.0000236
    3  -0.0004150   0.0001129  -0.0001752   0.0000957   0.0000066
 Max gradient component =       1.976E-03
 RMS gradient           =       4.874E-04
 Gradient time:  CPU 4.56 s  wall 4.58 s
 Geometry Optimization Parameters
   NAtoms,    NIC,     NZ,  NCons,   NDum,   NFix, NCnnct, MaxDiis
       23     166       0       1       0       0       0       0

 Cartesian Hessian Update
 Hessian Updated using BFGS Update


** CONSTRAINED OPTIMIZATION IN DELOCALIZED INTERNAL COORDINATES **
   Searching for a Minimum

   Optimization Cycle:   3

                       Coordinates (Angstroms)
     ATOM                X               Y               Z
      1  H         6.2349955073   -0.2439280446    0.1988210988
      2  H         5.3207449474    2.2116530989   -0.1216920166
      3  C         5.2025997029    0.0612240242    0.0973113486
      4  C         4.6996561934    1.3248211052   -0.0687967769
      5  S         3.9413580429   -1.1287659147    0.1412210474
      6  C         3.2792855941    1.3446764586   -0.1764031465
      7  H         2.7013398283    2.2487387969   -0.3329403962
      8  C         2.7027251423    0.0935685393   -0.0894746492
      9  H         1.3288065261   -2.3804986812   -0.6753002489
     10  C         1.2997552245   -0.2719259004   -0.1631474537
     11  C         0.7375210437   -1.5007324844   -0.4460682331
     12  S         0.0457545716    0.9173571795    0.1272631155
     13  C        -0.6837258199   -1.4885561282   -0.4489642755
     14  H        -1.2965205365   -2.3531121281   -0.6778278465
     15  C        -1.2269491375   -0.2584148284   -0.1592220496
     16  C        -2.6400173611    0.1184684092   -0.0925248349
     17  H        -3.3297074753   -0.8907343703    1.6868618599
     18  C        -3.5748244867   -0.2495985974    0.8477199356
     19  S        -3.3647931688    1.1837365878   -1.2871468190
     20  C        -4.8683334126    0.3041503480    0.6116935145
     21  C        -4.9063489350    1.1032043952   -0.5013008199
     22  H        -5.7277133785    0.1237784680    1.2476370399
     23  H        -5.7485433326    1.6492744867   -0.9044566036
   Point Group: c1    Number of degrees of freedom:    63


   Energy is  -1656.661132781

              Constraints and their Current Values
                                        Value     Constraint
   Dihedral:       13  15  16  18       70.000       70.000
 Hessian Updated using BFGS Update

 56 Hessian modes will be used to form the next step
  Hessian Eigenvalues:
     0.027621    0.045000    0.045000    0.045001    0.045001    0.045003
     0.045003    0.045009    0.045010    0.045017    0.045018    0.045117
     0.046347    0.154916    0.159918    0.159957    0.159958    0.159993
     0.159999    0.160112    0.160590    0.210632    0.221294    0.222990
     0.227055    0.237881    0.241323    0.249996    0.249999    0.250002
     0.288271    0.293404    0.293984    0.295447    0.300868    0.312576
     0.314056    0.354732    0.354744    0.354748    0.354932    0.355164
     0.355261    0.358372    0.358648    0.383325    0.404570    0.406591
     0.409328    0.426105    0.459438    0.462232    0.476218    0.490315
     0.497164    0.497469

 Minimum Search - Taking Simple RFO Step
 Searching for Lamda that Minimizes Along All modes
 Value Taken    Lamda =  -0.00001448
 Step Taken.  Stepsize is  0.019744

                             Maximum     Tolerance    Cnvgd?
         Gradient           0.000501      0.000300      NO
         Displacement       0.012834      0.001200      NO
         Energy change     -0.000036      0.000001      NO


 New Cartesian Coordinates Obtained by Inverse Iteration

 Displacement from previous Coordinates is:  0.046071
 ----------------------------------------------------------------
             Standard Nuclear Orientation (Angstroms)
    I     Atom           X                Y                Z
 ----------------------------------------------------------------
    1      H       6.2354300030    -0.2445097000     0.1995849537
    2      H       5.3225514913     2.2106677870    -0.1273259642
    3      C       5.2031834809     0.0609532142     0.0974072424
    4      C       4.7009416004     1.3243542083    -0.0720159852
    5      S       3.9410235012    -1.1280089053     0.1448269776
    6      C       3.2803958528     1.3447058133    -0.1793317781
    7      H       2.7029682270     2.2487636941    -0.3378233721
    8      C       2.7030967081     0.0941967315    -0.0890406594
    9      H       1.3290351928    -2.3796215379    -0.6716076551
   10      C       1.2995857304    -0.2708062747    -0.1618823933
   11      C       0.7375957830    -1.4999154609    -0.4430349674
   12      S       0.0458302557     0.9187727420     0.1279294399
   13      C      -0.6841386111    -1.4873939347    -0.4453199970
   14      H      -1.2977715901    -2.3515131476    -0.6733866265
   15      C      -1.2268125377    -0.2569454726    -0.1550160777
   16      C      -2.6403269534     0.1184759027    -0.0932327958
   17      H      -3.3319232712    -0.8995982588     1.6800796272
   18      C      -3.5764519261    -0.2539888513     0.8442385436
   19      S      -3.3627044439     1.1907279233    -1.2820636610
   20      C      -4.8701180406     0.3010302416     0.6088542758
   21      C      -4.9057552934     1.1064371678    -0.4993838671
   22      H      -5.7309287471     0.1172671065     1.2417008002
   23      H      -5.7476411319     1.6543338315    -0.9008932704
 ----------------------------------------------------------------
 Nuclear Repulsion Energy =  1174.0070421862 hartrees
 There are       64 alpha and       64 beta electrons
 Applying Cartesian multipole field
    Component          Value
    ---------          -----
     (2,0,0)        1.00000E-12
     (0,2,0)        2.00000E-11
     (0,0,2)       -3.00000E-11
 Nucleus-field energy     =     0.0000000102 hartrees
 Requested basis set is 6-31++G(d,p)
 There are 110 shells and 345 basis functions
 A cutoff of  1.0D-12 yielded   4675 shell pairs
 There are     47677 function pairs

 Q-Chem warning in module /project/projectdirs/jcesr/qchem/qc44/cnl_qc441/compile/cori/qc_src/libqints/qchem/aobasis.C, line 68:

 Using reconstructed effective core potential

 Smallest overlap matrix eigenvalue = 9.37E-08
 Linear dependence detected in AO basis
 Number of orthogonalized atomic orbitals = 343
 Maximum deviation from orthogonality = 8.158E-11
 Guess MOs from SCF MO coefficient file
 Reading MOs from coefficient file
 Reading MOs from coefficient file
 A restricted hybrid HF-DFT SCF calculation will be
 performed using Pulay DIIS extrapolation
 Exchange:     0.2000 Hartree-Fock + 0.0800 Slater + 0.7200 B88
 Correlation:  0.1900 VWN1RPA + 0.8100 LYP
 Using SG-1 standard quadrature grid
 SCF converges when DIIS error is below 1.0E-08
 Geometry optimization detected.  Setting ReadMinima to 0
 Setting SaveMinima to 0
 ---------------------------------------
  Cycle       Energy         DIIS Error
 ---------------------------------------
    1   -1656.6613063592      1.40E-04
    2   -1656.6611407669      9.94E-06
    3   -1656.6611375164      1.83E-05
    4   -1656.6611429703      3.20E-06
    5   -1656.6611430761      2.03E-06
    6   -1656.6611431360      5.96E-07
    7   -1656.6611431424      2.56E-07
    8   -1656.6611431418      5.74E-08
    9   -1656.6611431428      2.29E-08
   10   -1656.6611431422      6.50E-09 Convergence criterion met
 ---------------------------------------
 SCF time:  CPU 11.08 s  wall 10.15 s
 SCF   energy in the final basis set = -1656.6611431422
 Total energy in the final basis set = -1656.6611431422
 
 --------------------------------------------------------------
 
                    Orbital Energies (a.u.)
 --------------------------------------------------------------
 
 Alpha MOs
 -- Occupied --
-88.921 -88.921 -88.920 -10.241 -10.240 -10.238 -10.237 -10.226
-10.226 -10.206 -10.206 -10.205 -10.205 -10.205 -10.204  -7.981
 -7.980  -7.980  -5.945  -5.944  -5.944  -5.941  -5.940  -5.940
 -5.938  -5.937  -5.937  -0.905  -0.891  -0.876  -0.785  -0.754
 -0.745  -0.743  -0.733  -0.697  -0.615  -0.593  -0.568  -0.564
 -0.537  -0.534  -0.527  -0.499  -0.463  -0.421  -0.419  -0.417
 -0.415  -0.407  -0.402  -0.400  -0.383  -0.375  -0.370  -0.358
 -0.352  -0.345  -0.282  -0.267  -0.262  -0.258  -0.247  -0.211
 -- Virtual --
 -0.063  -0.034  -0.009  -0.006  -0.004   0.001   0.009   0.010
  0.013   0.019   0.023   0.027   0.030   0.034   0.034   0.042
  0.045   0.048   0.052   0.053   0.060   0.064   0.072   0.075
  0.081   0.086   0.093   0.097   0.101   0.101   0.108   0.110
  0.111   0.113   0.120   0.122   0.126   0.128   0.131   0.133
  0.134   0.136   0.141   0.145   0.146   0.150   0.151   0.156
  0.160   0.167   0.169   0.173   0.175   0.179   0.184   0.193
  0.195   0.200   0.202   0.206   0.210   0.213   0.219   0.222
  0.228   0.232   0.236   0.246   0.249   0.254   0.259   0.262
  0.266   0.269   0.273   0.278   0.286   0.291   0.295   0.302
  0.311   0.318   0.323   0.335   0.342   0.346   0.354   0.357
  0.363   0.369   0.380   0.398   0.406   0.449   0.460   0.465
  0.485   0.507   0.522   0.528   0.539   0.557   0.576   0.581
  0.582   0.598   0.605   0.621   0.635   0.649   0.655   0.658
  0.660   0.670   0.674   0.687   0.693   0.700   0.713   0.722
  0.723   0.729   0.739   0.748   0.771   0.774   0.781   0.785
  0.789   0.809   0.816   0.824   0.832   0.839   0.847   0.878
  0.902   0.930   0.941   0.947   0.956   0.958   0.959   0.962
  0.971   0.974   0.980   0.988   0.993   0.997   1.002   1.020
  1.028   1.036   1.044   1.059   1.072   1.081   1.099   1.102
  1.110   1.130   1.140   1.153   1.172   1.189   1.207   1.214
  1.238   1.261   1.265   1.298   1.313   1.334   1.348   1.352
  1.356   1.363   1.366   1.390   1.448   1.456   1.469   1.500
  1.514   1.528   1.542   1.568   1.607   1.684   1.692   1.725
  1.793   1.802   1.830   1.865   1.874   1.881   1.888   1.904
  1.917   1.921   1.947   1.952   1.965   2.015   2.016   2.051
  2.062   2.078   2.109   2.132   2.154   2.172   2.181   2.198
  2.215   2.235   2.244   2.254   2.266   2.295   2.330   2.364
  2.368   2.416   2.441   2.444   2.454   2.466   2.474   2.479
  2.501   2.519   2.530   2.532   2.558   2.582   2.599   2.611
  2.626   2.652   2.676   2.698   2.713   2.743   2.787   2.850
  2.872   2.885   2.901   2.940   2.948   3.136   3.171   3.208
  3.270   3.272   3.325   3.412   3.415   3.674   3.731   3.737
  3.965   3.978   3.981   4.256   4.291   4.311   4.319   4.329
  4.356   4.401   4.482   4.548   4.648   4.694   4.724
 --------------------------------------------------------------
 
          Ground-State Mulliken Net Atomic Charges

     Atom                 Charge (a.u.)
  ----------------------------------------
      1 H                     0.196524
      2 H                     0.119219
      3 C                     0.031225
      4 C                    -0.411383
      5 S                    -0.131591
      6 C                     0.584846
      7 H                     0.129197
      8 C                    -0.437984
      9 H                     0.125397
     10 C                    -0.067988
     11 C                    -0.067072
     12 S                    -0.086404
     13 C                     0.106898
     14 H                     0.130572
     15 C                    -0.313718
     16 C                    -0.503829
     17 H                     0.152062
     18 C                     0.519543
     19 S                     0.005258
     20 C                    -0.466196
     21 C                     0.069784
     22 H                     0.118583
     23 H                     0.197056
  ----------------------------------------
  Sum of atomic charges =     0.000000

 -----------------------------------------------------------------
                    Cartesian Multipole Moments
 -----------------------------------------------------------------
    Charge (ESU x 10^10)
                 0.0000
    Dipole Moment (Debye)
         X      -0.1406      Y      -0.1893      Z       0.2051
       Tot       0.3125
    Quadrupole Moments (Debye-Ang)
        XX     -89.8911     XY       0.8923     YY    -104.0746
        XZ      -1.5318     YZ      -1.5554     ZZ    -112.7800
    Octopole Moments (Debye-Ang^2)
       XXX     -15.1446    XXY       9.4069    XYY       2.3500
       YYY     -50.1449    XXZ      26.0748    XYZ       8.5719
       YYZ       8.9826    XZZ     -24.6510    YZZ     -17.9330
       ZZZ      52.2810
    Hexadecapole Moments (Debye-Ang^3)
      XXXX   -6261.0030   XXXY     125.2075   XXYY   -1285.1656
      XYYY     264.1105   YYYY    -783.4970   XXXZ    -102.1676
      XXYZ     -47.5392   XYYZ     -25.7545   YYYZ      57.3916
      XXZZ   -1313.9062   XYZZ      72.2470   YYZZ    -199.4169
      XZZZ    -119.6906   YZZZ      47.2008   ZZZZ    -364.5545
 -----------------------------------------------------------------
 Calculating analytic gradient of the SCF energy
 Gradient of SCF Energy
            1           2           3           4           5           6
    1   0.0000043   0.0000014  -0.0000113   0.0000311   0.0000114  -0.0000259
    2   0.0000024  -0.0000023  -0.0000114   0.0000032   0.0000221  -0.0000353
    3  -0.0000016   0.0000036   0.0000017  -0.0000074  -0.0000437   0.0000725
            7           8           9          10          11          12
    1  -0.0000044   0.0000786  -0.0000098  -0.0002861   0.0002538   0.0001014
    2  -0.0000048   0.0000083   0.0000011   0.0000184  -0.0000489   0.0000871
    3  -0.0000127  -0.0000710  -0.0000209   0.0001463   0.0000627   0.0000735
           13          14          15          16          17          18
    1  -0.0001777  -0.0000568   0.0006830  -0.0011730   0.0000719   0.0006751
    2   0.0006460   0.0000349  -0.0003434  -0.0017707  -0.0000086   0.0014733
    3  -0.0016495  -0.0000126   0.0027110  -0.0018840  -0.0000188   0.0008296
           19          20          21          22          23
    1  -0.0001109  -0.0002576   0.0002130   0.0000166  -0.0000281
    2  -0.0000103   0.0000238  -0.0001067   0.0000017   0.0000201
    3  -0.0001311  -0.0000298  -0.0000787   0.0000124   0.0000484
 Max gradient component =       2.711E-03
 RMS gradient           =       5.758E-04
 Gradient time:  CPU 4.62 s  wall 4.58 s
 Geometry Optimization Parameters
   NAtoms,    NIC,     NZ,  NCons,   NDum,   NFix, NCnnct, MaxDiis
       23     166       0       1       0       0       0       0

 Cartesian Hessian Update
 Hessian Updated using BFGS Update


** CONSTRAINED OPTIMIZATION IN DELOCALIZED INTERNAL COORDINATES **
   Searching for a Minimum

   Optimization Cycle:   4

                       Coordinates (Angstroms)
     ATOM                X               Y               Z
      1  H         6.2354300030   -0.2445097000    0.1995849537
      2  H         5.3225514913    2.2106677870   -0.1273259642
      3  C         5.2031834809    0.0609532142    0.0974072424
      4  C         4.7009416004    1.3243542083   -0.0720159852
      5  S         3.9410235012   -1.1280089053    0.1448269776
      6  C         3.2803958528    1.3447058133   -0.1793317781
      7  H         2.7029682270    2.2487636941   -0.3378233721
      8  C         2.7030967081    0.0941967315   -0.0890406594
      9  H         1.3290351928   -2.3796215379   -0.6716076551
     10  C         1.2995857304   -0.2708062747   -0.1618823933
     11  C         0.7375957830   -1.4999154609   -0.4430349674
     12  S         0.0458302557    0.9187727420    0.1279294399
     13  C        -0.6841386111   -1.4873939347   -0.4453199970
     14  H        -1.2977715901   -2.3515131476   -0.6733866265
     15  C        -1.2268125377   -0.2569454726   -0.1550160777
     16  C        -2.6403269534    0.1184759027   -0.0932327958
     17  H        -3.3319232712   -0.8995982588    1.6800796272
     18  C        -3.5764519261   -0.2539888513    0.8442385436
     19  S        -3.3627044439    1.1907279233   -1.2820636610
     20  C        -4.8701180406    0.3010302416    0.6088542758
     21  C        -4.9057552934    1.1064371678   -0.4993838671
     22  H        -5.7309287471    0.1172671065    1.2417008002
     23  H        -5.7476411319    1.6543338315   -0.9008932704
   Point Group: c1    Number of degrees of freedom:    63


   Energy is  -1656.661143142

              Constraints and their Current Values
                                        Value     Constraint
   Dihedral:       13  15  16  18       70.000       70.000
 Hessian Updated using BFGS Update

 61 Hessian modes will be used to form the next step
  Hessian Eigenvalues:
     0.013966    0.044829    0.045000    0.045000    0.045000    0.045000
     0.045000    0.045001    0.045001    0.045002    0.045003    0.045003
     0.045009    0.045009    0.045016    0.045017    0.045020    0.045459
     0.159484    0.159919    0.159946    0.159957    0.159982    0.159999
     0.160122    0.161781    0.221289    0.222492    0.226886    0.233837
     0.238969    0.244569    0.249996    0.249999    0.251696    0.283246
     0.293622    0.293938    0.294785    0.295783    0.312566    0.313887
     0.354741    0.354747    0.354818    0.354840    0.355164    0.355484
     0.358372    0.358660    0.384696    0.392000    0.405987    0.410119
     0.447694    0.459162    0.461031    0.463059    0.487653    0.497283
     0.507087

 Minimum Search - Taking Simple RFO Step
 Searching for Lamda that Minimizes Along All modes
 Value Taken    Lamda =  -0.00001053
 Step Taken.  Stepsize is  0.025126

                             Maximum     Tolerance    Cnvgd?
         Gradient           0.000366      0.000300      NO
         Displacement       0.016202      0.001200      NO
         Energy change     -0.000010      0.000001      NO


 New Cartesian Coordinates Obtained by Inverse Iteration

 Displacement from previous Coordinates is:  0.062820
 ----------------------------------------------------------------
             Standard Nuclear Orientation (Angstroms)
    I     Atom           X                Y                Z
 ----------------------------------------------------------------
    1      H       6.2354090822    -0.2422985283     0.1999739143
    2      H       5.3218241151     2.2116317051    -0.1343798591
    3      C       5.2030652867     0.0625835683     0.0971076014
    4      C       4.7004670188     1.3253273734    -0.0761488530
    5      S       3.9411862865    -1.1265710268     0.1487648371
    6      C       3.2798829345     1.3450004620    -0.1831610184
    7      H       2.7022041665     2.2484888584    -0.3439979878
    8      C       2.7030413047     0.0945628212    -0.0888068561
    9      H       1.3296289393    -2.3801188571    -0.6684325694
   10      C       1.2996101362    -0.2710993305    -0.1605371148
   11      C       0.7378506260    -1.5006818490    -0.4398686707
   12      S       0.0454152155     0.9177950061     0.1303412746
   13      C      -0.6838847303    -1.4889093659    -0.4405078709
   14      H      -1.2972334180    -2.3533054017    -0.6681270840
   15      C      -1.2268556914    -0.2583669096    -0.1489825061
   16      C      -2.6401109402     0.1162782777    -0.0929047715
   17      H      -3.3387805276    -0.9118883825     1.6724733322
   18      C      -3.5795852934    -0.2602858103     0.8402432027
   19      S      -3.3564843216     1.1993323605    -1.2747608212
   20      C      -4.8712713282     0.2994265729     0.6052334345
   21      C      -4.9020957820     1.1131493085    -0.4969970623
   22      H      -5.7344564451     0.1130242510     1.2340266903
   23      H      -5.7417613543     1.6653097168    -0.8972884518
 ----------------------------------------------------------------
 Nuclear Repulsion Energy =  1174.1399933606 hartrees
 There are       64 alpha and       64 beta electrons
 Applying Cartesian multipole field
    Component          Value
    ---------          -----
     (2,0,0)        1.00000E-12
     (0,2,0)        2.00000E-11
     (0,0,2)       -3.00000E-11
 Nucleus-field energy     =     0.0000000103 hartrees
 Requested basis set is 6-31++G(d,p)
 There are 110 shells and 345 basis functions
 A cutoff of  1.0D-12 yielded   4674 shell pairs
 There are     47673 function pairs

 Q-Chem warning in module /project/projectdirs/jcesr/qchem/qc44/cnl_qc441/compile/cori/qc_src/libqints/qchem/aobasis.C, line 68:

 Using reconstructed effective core potential

 Smallest overlap matrix eigenvalue = 9.43E-08
 Linear dependence detected in AO basis
 Number of orthogonalized atomic orbitals = 343
 Maximum deviation from orthogonality = 1.904E-10
 Guess MOs from SCF MO coefficient file
 Reading MOs from coefficient file
 Reading MOs from coefficient file
 A restricted hybrid HF-DFT SCF calculation will be
 performed using Pulay DIIS extrapolation
 Exchange:     0.2000 Hartree-Fock + 0.0800 Slater + 0.7200 B88
 Correlation:  0.1900 VWN1RPA + 0.8100 LYP
 Using SG-1 standard quadrature grid
 SCF converges when DIIS error is below 1.0E-08
 Geometry optimization detected.  Setting ReadMinima to 0
 Setting SaveMinima to 0
 ---------------------------------------
  Cycle       Energy         DIIS Error
 ---------------------------------------
    1   -1656.6607560577      1.85E-04
    2   -1656.6611428271      1.78E-05
    3   -1656.6611326192      3.20E-05
    4   -1656.6611492694      5.06E-06
    5   -1656.6611495627      2.95E-06
    6   -1656.6611496911      9.85E-07
    7   -1656.6611497053      2.75E-07
    8   -1656.6611497059      9.39E-08
    9   -1656.6611497067      2.92E-08
   10   -1656.6611497090      9.17E-09 Convergence criterion met
 ---------------------------------------
 SCF time:  CPU 11.16 s  wall 10.23 s
 SCF   energy in the final basis set = -1656.6611497090
 Total energy in the final basis set = -1656.6611497090
 
 --------------------------------------------------------------
 
                    Orbital Energies (a.u.)
 --------------------------------------------------------------
 
 Alpha MOs
 -- Occupied --
-88.921 -88.921 -88.920 -10.241 -10.240 -10.238 -10.237 -10.226
-10.226 -10.206 -10.206 -10.205 -10.205 -10.205 -10.204  -7.981
 -7.980  -7.980  -5.945  -5.944  -5.944  -5.941  -5.940  -5.940
 -5.938  -5.937  -5.937  -0.906  -0.891  -0.876  -0.785  -0.754
 -0.745  -0.743  -0.733  -0.697  -0.615  -0.593  -0.568  -0.564
 -0.537  -0.534  -0.527  -0.499  -0.463  -0.421  -0.419  -0.417
 -0.415  -0.407  -0.402  -0.400  -0.383  -0.376  -0.370  -0.358
 -0.352  -0.345  -0.282  -0.267  -0.262  -0.259  -0.247  -0.211
 -- Virtual --
 -0.063  -0.034  -0.009  -0.006  -0.004   0.001   0.009   0.010
  0.013   0.019   0.023   0.027   0.030   0.034   0.034   0.042
  0.045   0.048   0.052   0.053   0.060   0.064   0.072   0.075
  0.081   0.086   0.093   0.097   0.101   0.101   0.107   0.110
  0.111   0.113   0.120   0.122   0.126   0.129   0.131   0.133
  0.134   0.136   0.141   0.145   0.146   0.150   0.151   0.155
  0.160   0.167   0.169   0.173   0.175   0.179   0.184   0.193
  0.195   0.200   0.202   0.206   0.210   0.213   0.219   0.222
  0.228   0.232   0.236   0.246   0.249   0.254   0.259   0.262
  0.265   0.269   0.273   0.278   0.285   0.292   0.296   0.302
  0.311   0.318   0.323   0.335   0.342   0.346   0.354   0.357
  0.363   0.369   0.380   0.398   0.406   0.449   0.460   0.465
  0.485   0.507   0.522   0.527   0.539   0.557   0.576   0.581
  0.582   0.598   0.605   0.621   0.634   0.649   0.655   0.658
  0.661   0.670   0.674   0.687   0.694   0.700   0.713   0.722
  0.723   0.729   0.739   0.748   0.771   0.774   0.780   0.785
  0.789   0.809   0.816   0.824   0.832   0.839   0.847   0.878
  0.902   0.930   0.941   0.947   0.956   0.958   0.959   0.962
  0.971   0.973   0.980   0.988   0.993   0.997   1.002   1.020
  1.028   1.035   1.044   1.059   1.072   1.082   1.099   1.102
  1.110   1.129   1.140   1.153   1.172   1.189   1.207   1.214
  1.238   1.261   1.266   1.298   1.313   1.334   1.348   1.352
  1.356   1.363   1.366   1.390   1.447   1.455   1.469   1.500
  1.514   1.528   1.542   1.569   1.606   1.684   1.692   1.726
  1.793   1.800   1.830   1.866   1.874   1.881   1.888   1.904
  1.917   1.921   1.947   1.952   1.965   2.015   2.016   2.051
  2.061   2.078   2.109   2.132   2.154   2.172   2.181   2.198
  2.215   2.236   2.243   2.254   2.266   2.295   2.330   2.364
  2.368   2.416   2.441   2.444   2.454   2.466   2.474   2.479
  2.501   2.519   2.529   2.532   2.559   2.582   2.599   2.610
  2.626   2.652   2.676   2.698   2.713   2.743   2.788   2.850
  2.872   2.885   2.901   2.940   2.947   3.136   3.171   3.208
  3.270   3.272   3.325   3.412   3.415   3.674   3.731   3.736
  3.965   3.979   3.981   4.256   4.291   4.311   4.319   4.329
  4.356   4.401   4.482   4.548   4.648   4.694   4.724
 --------------------------------------------------------------
 
          Ground-State Mulliken Net Atomic Charges

     Atom                 Charge (a.u.)
  ----------------------------------------
      1 H                     0.196462
      2 H                     0.119195
      3 C                     0.031176
      4 C                    -0.412067
      5 S                    -0.130648
      6 C                     0.582913
      7 H                     0.129228
      8 C                    -0.437280
      9 H                     0.125241
     10 C                    -0.064571
     11 C                    -0.072684
     12 S                    -0.086713
     13 C                     0.104999
     14 H                     0.130635
     15 C                    -0.311616
     16 C                    -0.492016
     17 H                     0.152048
     18 C                     0.510486
     19 S                     0.003996
     20 C                    -0.462276
     21 C                     0.067743
     22 H                     0.118641
     23 H                     0.197109
  ----------------------------------------
  Sum of atomic charges =     0.000000

 -----------------------------------------------------------------
                    Cartesian Multipole Moments
 -----------------------------------------------------------------
    Charge (ESU x 10^10)
                 0.0000
    Dipole Moment (Debye)
         X      -0.1410      Y      -0.1876      Z       0.1984
       Tot       0.3073
    Quadrupole Moments (Debye-Ang)
        XX     -89.8917     XY       0.8933     YY    -104.0348
        XZ      -1.5384     YZ      -1.5918     ZZ    -112.8138
    Octopole Moments (Debye-Ang^2)
       XXX     -15.3119    XXY       9.3191    XYY       2.0749
       YYY     -50.3552    XXZ      25.9144    XYZ       8.5703
       YYZ       8.7642    XZZ     -24.5449    YZZ     -18.0220
       ZZZ      51.6907
    Hexadecapole Moments (Debye-Ang^3)
      XXXX   -6258.3308   XXXY     125.8007   XXYY   -1284.0561
      XYYY     263.8919   YYYY    -785.6808   XXXZ    -101.8203
      XXYZ     -47.8863   XYYZ     -25.4456   YYYZ      57.8592
      XXZZ   -1313.6779   XYZZ      72.4421   YYZZ    -199.3703
      XZZZ    -118.3633   YZZZ      48.0973   ZZZZ    -362.5196
 -----------------------------------------------------------------
 Calculating analytic gradient of the SCF energy
 Gradient of SCF Energy
            1           2           3           4           5           6
    1  -0.0000003  -0.0000025  -0.0000098   0.0000357  -0.0000272  -0.0000487
    2   0.0000014  -0.0000005   0.0000048   0.0000064   0.0000041  -0.0000217
    3  -0.0000009   0.0000054  -0.0000032  -0.0000137  -0.0000303   0.0000442
            7           8           9          10          11          12
    1   0.0000023   0.0001690  -0.0000083  -0.0002715   0.0003078  -0.0000093
    2   0.0000087  -0.0000218   0.0000329  -0.0000088  -0.0000082  -0.0001015
    3   0.0000057  -0.0000456  -0.0000037   0.0000701   0.0000486  -0.0000199
           13          14          15          16          17          18
    1  -0.0002116  -0.0000301   0.0003645  -0.0007699   0.0000408   0.0006312
    2   0.0004255   0.0000267   0.0002486  -0.0019162  -0.0000237   0.0014143
    3  -0.0018701   0.0000115   0.0034764  -0.0028063  -0.0000274   0.0011558
           19          20          21          22          23
    1  -0.0000143  -0.0002384   0.0001166   0.0000165  -0.0000426
    2  -0.0001044   0.0000828  -0.0000705   0.0000127   0.0000085
    3   0.0000521  -0.0000611  -0.0000126  -0.0000229   0.0000481
 Max gradient component =       3.476E-03
 RMS gradient           =       6.833E-04
 Gradient time:  CPU 4.57 s  wall 4.58 s
 Geometry Optimization Parameters
   NAtoms,    NIC,     NZ,  NCons,   NDum,   NFix, NCnnct, MaxDiis
       23     166       0       1       0       0       0       0

 Cartesian Hessian Update
 Hessian Updated using BFGS Update


** CONSTRAINED OPTIMIZATION IN DELOCALIZED INTERNAL COORDINATES **
   Searching for a Minimum

   Optimization Cycle:   5

                       Coordinates (Angstroms)
     ATOM                X               Y               Z
      1  H         6.2354090822   -0.2422985283    0.1999739143
      2  H         5.3218241151    2.2116317051   -0.1343798591
      3  C         5.2030652867    0.0625835683    0.0971076014
      4  C         4.7004670188    1.3253273734   -0.0761488530
      5  S         3.9411862865   -1.1265710268    0.1487648371
      6  C         3.2798829345    1.3450004620   -0.1831610184
      7  H         2.7022041665    2.2484888584   -0.3439979878
      8  C         2.7030413047    0.0945628212   -0.0888068561
      9  H         1.3296289393   -2.3801188571   -0.6684325694
     10  C         1.2996101362   -0.2710993305   -0.1605371148
     11  C         0.7378506260   -1.5006818490   -0.4398686707
     12  S         0.0454152155    0.9177950061    0.1303412746
     13  C        -0.6838847303   -1.4889093659   -0.4405078709
     14  H        -1.2972334180   -2.3533054017   -0.6681270840
     15  C        -1.2268556914   -0.2583669096   -0.1489825061
     16  C        -2.6401109402    0.1162782777   -0.0929047715
     17  H        -3.3387805276   -0.9118883825    1.6724733322
     18  C        -3.5795852934   -0.2602858103    0.8402432027
     19  S        -3.3564843216    1.1993323605   -1.2747608212
     20  C        -4.8712713282    0.2994265729    0.6052334345
     21  C        -4.9020957820    1.1131493085   -0.4969970623
     22  H        -5.7344564451    0.1130242510    1.2340266903
     23  H        -5.7417613543    1.6653097168   -0.8972884518
   Point Group: c1    Number of degrees of freedom:    63


   Energy is  -1656.661149709

              Constraints and their Current Values
                                        Value     Constraint
   Dihedral:       13  15  16  18       70.000       70.000
 Hessian Updated using BFGS Update

 56 Hessian modes will be used to form the next step
  Hessian Eigenvalues:
     0.010295    0.044054    0.045001    0.045001    0.045001    0.045003
     0.045004    0.045009    0.045009    0.045017    0.045019    0.045184
     0.045662    0.157239    0.159918    0.159956    0.159966    0.159997
     0.160029    0.160121    0.161215    0.221290    0.222476    0.227151
     0.235055    0.238546    0.243191    0.249949    0.250010    0.250127
     0.279325    0.293579    0.294242    0.295602    0.299767    0.312610
     0.313875    0.354741    0.354744    0.354775    0.354887    0.355164
     0.355532    0.358375    0.358697    0.384474    0.401787    0.405984
     0.410148    0.443121    0.459850    0.462471    0.474094    0.486492
     0.497284    0.504919

 Minimum Search - Taking Simple RFO Step
 Searching for Lamda that Minimizes Along All modes
 Value Taken    Lamda =  -0.00000267
 Step Taken.  Stepsize is  0.012247

                             Maximum     Tolerance    Cnvgd?
         Gradient           0.000207      0.000300     YES
         Displacement       0.007839      0.001200      NO
         Energy change     -0.000007      0.000001      NO


 New Cartesian Coordinates Obtained by Inverse Iteration

 Displacement from previous Coordinates is:  0.036576
 ----------------------------------------------------------------
             Standard Nuclear Orientation (Angstroms)
    I     Atom           X                Y                Z
 ----------------------------------------------------------------
    1      H       6.2354093204    -0.2397961937     0.2010334925
    2      H       5.3204690662     2.2130097894    -0.1377488374
    3      C       5.2029082237     0.0643295509     0.0974888318
    4      C       4.6995834253     1.3264695368    -0.0780420514
    5      S       3.9416491776    -1.1254010577     0.1510157584
    6      C       3.2790177209     1.3451867869    -0.1854138839
    7      H       2.7008645502     2.2480677944    -0.3478877476
    8      C       2.7028006153     0.0945897855    -0.0889424635
[...]
    6   -1656.6611520588      3.56E-07
    7   -1656.6611520599      1.05E-07
    8   -1656.6611520598      4.09E-08
    9   -1656.6611520609      1.24E-08
   10   -1656.6611520604      3.83E-09 Convergence criterion met
 ---------------------------------------
 SCF time:  CPU 10.92 s  wall 9.99 s
 SCF   energy in the final basis set = -1656.6611520604
 Total energy in the final basis set = -1656.6611520604
 
 --------------------------------------------------------------
 
                    Orbital Energies (a.u.)
 --------------------------------------------------------------
 
 Alpha MOs
 -- Occupied --
-88.921 -88.921 -88.920 -10.241 -10.240 -10.238 -10.237 -10.226
-10.226 -10.206 -10.206 -10.205 -10.205 -10.205 -10.204  -7.981
 -7.980  -7.980  -5.945  -5.944  -5.944  -5.941  -5.940  -5.940
 -5.938  -5.937  -5.937  -0.906  -0.891  -0.876  -0.785  -0.754
 -0.745  -0.743  -0.733  -0.697  -0.615  -0.593  -0.568  -0.564
 -0.537  -0.534  -0.527  -0.499  -0.463  -0.421  -0.419  -0.417
 -0.415  -0.407  -0.402  -0.400  -0.383  -0.375  -0.370  -0.358
 -0.352  -0.345  -0.282  -0.267  -0.262  -0.259  -0.247  -0.211
 -- Virtual --
 -0.063  -0.034  -0.009  -0.006  -0.004   0.001   0.009   0.010
  0.013   0.019   0.023   0.027   0.030   0.034   0.034   0.042
  0.045   0.048   0.052   0.053   0.060   0.064   0.072   0.075
  0.080   0.086   0.093   0.097   0.101   0.101   0.107   0.110
  0.111   0.113   0.121   0.122   0.126   0.129   0.131   0.133
  0.134   0.136   0.141   0.145   0.146   0.150   0.151   0.155
  0.160   0.167   0.169   0.173   0.175   0.179   0.184   0.193
  0.195   0.200   0.202   0.206   0.210   0.213   0.219   0.222
  0.228   0.232   0.236   0.247   0.249   0.254   0.259   0.262
  0.265   0.269   0.273   0.278   0.285   0.292   0.296   0.302
  0.311   0.318   0.323   0.335   0.342   0.346   0.354   0.357
  0.363   0.369   0.380   0.398   0.406   0.448   0.460   0.465
  0.485   0.507   0.522   0.527   0.539   0.557   0.576   0.581
  0.582   0.598   0.605   0.621   0.634   0.649   0.655   0.658
  0.661   0.670   0.674   0.687   0.694   0.700   0.713   0.722
  0.723   0.729   0.739   0.748   0.771   0.774   0.780   0.785
  0.789   0.809   0.816   0.824   0.832   0.839   0.847   0.878
  0.902   0.930   0.941   0.947   0.956   0.958   0.959   0.962
  0.971   0.973   0.980   0.988   0.992   0.997   1.002   1.020
  1.027   1.035   1.044   1.059   1.073   1.082   1.099   1.102
  1.110   1.129   1.140   1.152   1.173   1.189   1.206   1.214
  1.238   1.260   1.266   1.298   1.313   1.334   1.348   1.352
  1.356   1.364   1.366   1.389   1.446   1.455   1.469   1.500
  1.514   1.528   1.543   1.570   1.606   1.685   1.692   1.726
  1.793   1.798   1.830   1.867   1.874   1.881   1.889   1.904
  1.916   1.921   1.947   1.952   1.965   2.015   2.016   2.051
  2.061   2.078   2.109   2.132   2.153   2.172   2.181   2.198
  2.215   2.236   2.242   2.254   2.266   2.295   2.330   2.364
  2.368   2.416   2.441   2.444   2.454   2.466   2.474   2.478
  2.502   2.519   2.529   2.532   2.559   2.582   2.599   2.610
  2.626   2.652   2.676   2.698   2.713   2.743   2.788   2.850
  2.872   2.885   2.901   2.941   2.947   3.136   3.171   3.208
  3.270   3.272   3.325   3.413   3.415   3.674   3.731   3.737
  3.965   3.979   3.981   4.257   4.291   4.311   4.319   4.329
  4.356   4.401   4.482   4.548   4.648   4.694   4.724
 --------------------------------------------------------------
 
          Ground-State Mulliken Net Atomic Charges

     Atom                 Charge (a.u.)
  ----------------------------------------
      1 H                     0.196409
      2 H                     0.119164
      3 C                     0.031263
      4 C                    -0.412908
      5 S                    -0.129466
      6 C                     0.581062
      7 H                     0.129352
      8 C                    -0.437570
      9 H                     0.125221
     10 C                    -0.061881
     11 C                    -0.075525
     12 S                    -0.088398
     13 C                     0.105336
     14 H                     0.130622
     15 C                    -0.310067
     16 C                    -0.486567
     17 H                     0.151995
     18 C                     0.507546
     19 S                     0.001970
     20 C                    -0.460197
     21 C                     0.066763
     22 H                     0.118676
     23 H                     0.197197
  ----------------------------------------
  Sum of atomic charges =     0.000000

 -----------------------------------------------------------------
                    Cartesian Multipole Moments
 -----------------------------------------------------------------
    Charge (ESU x 10^10)
                 0.0000
    Dipole Moment (Debye)
         X      -0.1406      Y      -0.1854      Z       0.1940
       Tot       0.3029
    Quadrupole Moments (Debye-Ang)
        XX     -89.8988     XY       0.8862     YY    -103.9971
        XZ      -1.5497     YZ      -1.6167     ZZ    -112.8315
    Octopole Moments (Debye-Ang^2)
       XXX     -15.3712    XXY       9.4056    XYY       1.8077
       YYY     -50.3615    XXZ      25.8834    XYZ       8.5547
       YYZ       8.5421    XZZ     -24.4872    YZZ     -18.0418
       ZZZ      51.1973
    Hexadecapole Moments (Debye-Ang^3)
      XXXX   -6255.6289   XXXY     125.8783   XXYY   -1282.8216
      XYYY     263.4487   YYYY    -787.4736   XXXZ    -101.3737
      XXYZ     -48.1924   XYYZ     -25.1278   YYYZ      58.0256
      XXZZ   -1313.0427   XYZZ      72.5000   YYZZ    -199.3766
      XZZZ    -117.2711   YZZZ      48.5802   ZZZZ    -361.1628
 -----------------------------------------------------------------
 Calculating analytic gradient of the SCF energy
 Gradient of SCF Energy
            1           2           3           4           5           6
    1  -0.0000020  -0.0000001   0.0000054  -0.0000024  -0.0000064  -0.0000038
    2  -0.0000029   0.0000010   0.0000108  -0.0000031  -0.0000088   0.0000090
    3  -0.0000027   0.0000021  -0.0000008   0.0000001  -0.0000252   0.0000179
            7           8           9          10          11          12
    1   0.0000031  -0.0000027   0.0000015   0.0000338  -0.0000402  -0.0000252
    2   0.0000031  -0.0000101   0.0000001   0.0000080  -0.0000031  -0.0000402
    3   0.0000096  -0.0000052  -0.0000017  -0.0000018   0.0000179  -0.0000360
           13          14          15          16          17          18
    1   0.0000778   0.0000058   0.0001506  -0.0006304  -0.0000075   0.0004173
    2   0.0004290  -0.0000011   0.0002467  -0.0021291  -0.0000062   0.0015315
    3  -0.0019209   0.0000029   0.0036999  -0.0029380  -0.0000049   0.0011308
           19          20          21          22          23
    1   0.0000178   0.0000413  -0.0000351  -0.0000038   0.0000049
    2  -0.0000330  -0.0000165   0.0000093   0.0000013   0.0000043
    3   0.0000462   0.0000075  -0.0000011  -0.0000001   0.0000036
 Max gradient component =       3.700E-03
 RMS gradient           =       7.125E-04
 Gradient time:  CPU 4.58 s  wall 4.57 s
 Geometry Optimization Parameters
   NAtoms,    NIC,     NZ,  NCons,   NDum,   NFix, NCnnct, MaxDiis
       23     166       0       1       0       0       0       0

 Cartesian Hessian Update
 Hessian Updated using BFGS Update


** CONSTRAINED OPTIMIZATION IN DELOCALIZED INTERNAL COORDINATES **
   Searching for a Minimum

   Optimization Cycle:   7

                       Coordinates (Angstroms)
     ATOM                X               Y               Z
      1  H         6.2351633924   -0.2380727077    0.2027732396
      2  H         5.3194408120    2.2139471402   -0.1395485428
      3  C         5.2025862565    0.0655095776    0.0984345762
      4  C         4.6988604497    1.3272509433   -0.0789142561
      5  S         3.9418233603   -1.1246703144    0.1529631251
      6  C         3.2783858052    1.3452940123   -0.1869733379
      7  H         2.6999362777    2.2477170532   -0.3509369751
      8  C         2.7025865751    0.0945860900   -0.0891122710
      9  H         1.3310035134   -2.3817017405   -0.6686754931
     10  C         1.2998196736   -0.2726753153   -0.1606200950
     11  C         0.7386343591   -1.5027893976   -0.4393487135
     12  S         0.0444028361    0.9146856558    0.1323435879
     13  C        -0.6827414311   -1.4926759813   -0.4382121574
     14  H        -1.2948634501   -2.3578658383   -0.6661974839
     15  C        -1.2271479375   -0.2629768653   -0.1451795746
     16  C        -2.6400707209    0.1122773107   -0.0913981703
     17  H        -3.3466629058   -0.9209367103    1.6682547543
     18  C        -3.5830075769   -0.2651085185    0.8380642011
     19  S        -3.3501673285    1.2047996136   -1.2686844917
     20  C        -4.8718286070    0.3004859854    0.6034421554
     21  C        -4.8977804481    1.1202647577   -0.4945184044
     22  H        -5.7368825765    0.1138249771    1.2296824318
     23  H        -5.7344250488    1.6772150922   -0.8943753146
   Point Group: c1    Number of degrees of freedom:    63


   Energy is  -1656.661152060

              Constraints and their Current Values
                                        Value     Constraint
   Dihedral:       13  15  16  18       70.000       70.000
 Hessian Updated using BFGS Update

 62 Hessian modes will be used to form the next step
  Hessian Eigenvalues:
     0.008901    0.033670    0.044999    0.045000    0.045000    0.045000
     0.045000    0.045000    0.045001    0.045002    0.045002    0.045004
     0.045004    0.045009    0.045011    0.045016    0.045019    0.045199
     0.045575    0.154903    0.159896    0.159930    0.159971    0.159983
     0.160005    0.160174    0.160821    0.184094    0.221483    0.223051
     0.227469    0.239094    0.243384    0.249984    0.249998    0.251326
     0.284538    0.289494    0.293709    0.294650    0.295743    0.312592
     0.313919    0.354743    0.354756    0.354833    0.354892    0.355169
     0.355494    0.358389    0.358663    0.384541    0.396852    0.406629
     0.410242    0.447400    0.459204    0.461580    0.462673    0.488380
     0.497394    0.508431

 Minimum Search - Taking Simple RFO Step
 Searching for Lamda that Minimizes Along All modes
 Value Taken    Lamda =   0.00000000
 Step Taken.  Stepsize is  0.002854

                             Maximum     Tolerance    Cnvgd?
         Gradient           0.000051      0.000300     YES
         Displacement       0.001546      0.001200      NO
         Energy change     -0.000001      0.000001     YES

 Final energy is   -1656.66115206044     


 ******************************
 **  OPTIMIZATION CONVERGED  **
 ******************************

                       Coordinates (Angstroms)
     ATOM                X               Y               Z
      1  H         6.2351633924   -0.2380727077    0.2027732396
      2  H         5.3194408120    2.2139471402   -0.1395485428
      3  C         5.2025862565    0.0655095776    0.0984345762
      4  C         4.6988604497    1.3272509433   -0.0789142561
      5  S         3.9418233603   -1.1246703144    0.1529631251
      6  C         3.2783858052    1.3452940123   -0.1869733379
      7  H         2.6999362777    2.2477170532   -0.3509369751
      8  C         2.7025865751    0.0945860900   -0.0891122710
      9  H         1.3310035134   -2.3817017405   -0.6686754931
     10  C         1.2998196736   -0.2726753153   -0.1606200950
     11  C         0.7386343591   -1.5027893976   -0.4393487135
     12  S         0.0444028361    0.9146856558    0.1323435879
     13  C        -0.6827414311   -1.4926759813   -0.4382121574
     14  H        -1.2948634501   -2.3578658383   -0.6661974839
     15  C        -1.2271479375   -0.2629768653   -0.1451795746
     16  C        -2.6400707209    0.1122773107   -0.0913981703
     17  H        -3.3466629058   -0.9209367103    1.6682547543
     18  C        -3.5830075769   -0.2651085185    0.8380642011
     19  S        -3.3501673285    1.2047996136   -1.2686844917
     20  C        -4.8718286070    0.3004859854    0.6034421554
     21  C        -4.8977804481    1.1202647577   -0.4945184044
     22  H        -5.7368825765    0.1138249771    1.2296824318
     23  H        -5.7344250488    1.6772150922   -0.8943753146

Z-matrix Print:
$molecule
0 1
S 
C  1 1.752634
C  2 1.380507 1 110.257248
H  3 1.084426 2 122.876774 1 178.961234 0
C  3 1.421412 2 113.577861 1 0.862574 0
H  5 1.084078 3 123.971934 2 178.024933 0
C  5 1.376374 3 113.706620 2 -0.678184 0
C  2 1.451809 1 120.830111 3 -179.788114 0
C  8 1.380359 2 128.958867 1 -20.500187 0
H  9 1.084369 8 122.836609 2 -0.784185 0
C  9 1.424693 8 113.518793 2 -179.589638 0
H  11 1.083986 9 123.793473 8 179.552076 0
C  11 1.370103 9 112.833056 8 0.104894 0
H  13 1.081325 11 128.470844 9 179.571932 0
C  7 1.462894 5 128.245449 3 178.325313 0
C  15 1.376754 7 128.025258 5 70.000000 0
H  16 1.084060 15 122.243751 7 -0.171564 0
C  16 1.426886 15 113.513559 7 179.164027 0
H  18 1.084130 16 123.882282 15 179.841557 0
C  18 1.370485 16 112.702104 15 -0.816300 0
H  20 1.081690 18 128.227672 16 -179.644985 0
S  20 1.732508 18 111.731750 16 0.474984 0
S  13 1.734654 11 111.635934 9 -0.593553 0
$end

 
 --------------------------------------------------------------
 
                    Orbital Energies (a.u.)
 --------------------------------------------------------------
 
 Alpha MOs
 -- Occupied --
-88.921 -88.921 -88.920 -10.241 -10.240 -10.238 -10.237 -10.226
-10.226 -10.206 -10.206 -10.205 -10.205 -10.205 -10.204  -7.981
 -7.980  -7.980  -5.945  -5.944  -5.944  -5.941  -5.940  -5.940
 -5.938  -5.937  -5.937  -0.906  -0.891  -0.876  -0.785  -0.754
 -0.745  -0.743  -0.733  -0.697  -0.615  -0.593  -0.568  -0.564
 -0.537  -0.534  -0.527  -0.499  -0.463  -0.421  -0.419  -0.417
 -0.415  -0.407  -0.402  -0.400  -0.383  -0.375  -0.370  -0.358
 -0.352  -0.345  -0.282  -0.267  -0.262  -0.259  -0.247  -0.211
 -- Virtual --
 -0.063  -0.034  -0.009  -0.006  -0.004   0.001   0.009   0.010
  0.013   0.019   0.023   0.027   0.030   0.034   0.034   0.042
  0.045   0.048   0.052   0.053   0.060   0.064   0.072   0.075
  0.080   0.086   0.093   0.097   0.101   0.101   0.107   0.110
  0.111   0.113   0.121   0.122   0.126   0.129   0.131   0.133
  0.134   0.136   0.141   0.145   0.146   0.150   0.151   0.155
  0.160   0.167   0.169   0.173   0.175   0.179   0.184   0.193
  0.195   0.200   0.202   0.206   0.210   0.213   0.219   0.222
  0.228   0.232   0.236   0.247   0.249   0.254   0.259   0.262
  0.265   0.269   0.273   0.278   0.285   0.292   0.296   0.302
  0.311   0.318   0.323   0.335   0.342   0.346   0.354   0.357
  0.363   0.369   0.380   0.398   0.406   0.448   0.460   0.465
  0.485   0.507   0.522   0.527   0.539   0.557   0.576   0.581
  0.582   0.598   0.605   0.621   0.634   0.649   0.655   0.658
  0.661   0.670   0.674   0.687   0.694   0.700   0.713   0.722
  0.723   0.729   0.739   0.748   0.771   0.774   0.780   0.785
  0.789   0.809   0.816   0.824   0.832   0.839   0.847   0.878
  0.902   0.930   0.941   0.947   0.956   0.958   0.959   0.962
  0.971   0.973   0.980   0.988   0.992   0.997   1.002   1.020
  1.027   1.035   1.044   1.059   1.073   1.082   1.099   1.102
  1.110   1.129   1.140   1.152   1.173   1.189   1.206   1.214
  1.238   1.260   1.266   1.298   1.313   1.334   1.348   1.352
  1.356   1.364   1.366   1.389   1.446   1.455   1.469   1.500
  1.514   1.528   1.543   1.570   1.606   1.685   1.692   1.726
  1.793   1.798   1.830   1.867   1.874   1.881   1.889   1.904
  1.916   1.921   1.947   1.952   1.965   2.015   2.016   2.051
  2.061   2.078   2.109   2.132   2.153   2.172   2.181   2.198
  2.215   2.236   2.242   2.254   2.266   2.295   2.330   2.364
  2.368   2.416   2.441   2.444   2.454   2.466   2.474   2.478
  2.502   2.519   2.529   2.532   2.559   2.582   2.599   2.610
  2.626   2.652   2.676   2.698   2.713   2.743   2.788   2.850
  2.872   2.885   2.901   2.941   2.947   3.136   3.171   3.208
  3.270   3.272   3.325   3.413   3.415   3.674   3.731   3.737
  3.965   3.979   3.981   4.257   4.291   4.311   4.319   4.329
  4.356   4.401   4.482   4.548   4.648   4.694   4.724
 --------------------------------------------------------------
 
          Ground-State Mulliken Net Atomic Charges

     Atom                 Charge (a.u.)
  ----------------------------------------
      1 H                     0.196409
      2 H                     0.119164
      3 C                     0.031263
      4 C                    -0.412908
      5 S                    -0.129466
      6 C                     0.581062
      7 H                     0.129352
      8 C                    -0.437570
      9 H                     0.125221
     10 C                    -0.061881
     11 C                    -0.075525
     12 S                    -0.088398
     13 C                     0.105336
     14 H                     0.130622
     15 C                    -0.310067
     16 C                    -0.486567
     17 H                     0.151995
     18 C                     0.507546
     19 S                     0.001970
     20 C                    -0.460197
     21 C                     0.066763
     22 H                     0.118676
     23 H                     0.197197
  ----------------------------------------
  Sum of atomic charges =     0.000000

 -----------------------------------------------------------------
                    Cartesian Multipole Moments
 -----------------------------------------------------------------
    Charge (ESU x 10^10)
                 0.0000
    Dipole Moment (Debye)
         X      -0.1406      Y      -0.1854      Z       0.1940
       Tot       0.3029
    Quadrupole Moments (Debye-Ang)
        XX     -89.8988     XY       0.8862     YY    -103.9971
        XZ      -1.5497     YZ      -1.6167     ZZ    -112.8315
    Octopole Moments (Debye-Ang^2)
       XXX     -15.3712    XXY       9.4056    XYY       1.8077
       YYY     -50.3615    XXZ      25.8834    XYZ       8.5547
       YYZ       8.5421    XZZ     -24.4872    YZZ     -18.0418
       ZZZ      51.1973
    Hexadecapole Moments (Debye-Ang^3)
      XXXX   -6255.6289   XXXY     125.8783   XXYY   -1282.8216
      XYYY     263.4487   YYYY    -787.4736   XXXZ    -101.3737
      XXYZ     -48.1924   XYYZ     -25.1278   YYYZ      58.0256
      XXZZ   -1313.0427   XYZZ      72.5000   YYZZ    -199.3766
      XZZZ    -117.2711   YZZZ      48.5802   ZZZZ    -361.1628
 -----------------------------------------------------------------
Archival summary:
1\1\nid00558\OPT\ProcedureUnspecified\BasisUnspecified\3128\bwood\TueMay3010:54:352017TueMay3010:54:352017\0\\#,OPT,ProcedureUnspecified,BasisUnspecified,\\0,1\S\C,1,1.75263\C,2,1.38051,1,110.257\H,3,1.08443,2,122.877,1,178.961,0\C,3,1.42141,2,113.578,1,0.862574,0\H,5,1.08408,3,123.972,2,178.025,0\C,5,1.37637,3,113.707,2,-0.678184,0\C,2,1.45181,1,120.83,3,-179.788,0\C,8,1.38036,2,128.959,1,-20.5002,0\H,9,1.08437,8,122.837,2,-0.784185,0\C,9,1.42469,8,113.519,2,-179.59,0\H,11,1.08399,9,123.793,8,179.552,0\C,11,1.3701,9,112.833,8,0.104894,0\H,13,1.08133,11,128.471,9,179.572,0\C,7,1.46289,5,128.245,3,178.325,0\C,15,1.37675,7,128.025,5,70,0\H,16,1.08406,15,122.244,7,-0.171564,0\C,16,1.42689,15,113.514,7,179.164,0\H,18,1.08413,16,123.882,15,179.842,0\C,18,1.37048,16,112.702,15,-0.8163,0\H,20,1.08169,18,128.228,16,-179.645,0\S,20,1.73251,18,111.732,16,0.474984,0\S,13,1.73465,11,111.636,9,-0.593553,0\\\@

 Total job time:  113.73s(wall), 120.39s(cpu) 
 Tue May 30 10:54:35 2017

        *************************************************************
        *                                                           *
        *  Thank you very much for using Q-Chem.  Have a nice day.  *
        *                                                           *
        *************************************************************


0 sent ACK to 0 
now end server 0 ... 
