srun -N 1 --ntasks-per-node 22 --cpus-per-task 2 --cpu_bind=cores --nodelist nid00630 /global/project/projectdirs/jcesr/qchem/qc44/cnl_qc441/dist/exe/qcprog.cori.haswell.exe .pt_nn_neutral_120.0.in.37314.qcin.1 /dev/shm/eg_qchem/qchem37314/
Process 1 of 22 is on nid00630 - thread support 0
Process 6 of 22 is on nid00630 - thread support 0
Process 2 of 22 is on nid00630 - thread support 0
Process 3 of 22 is on nid00630 - thread support 0
Process 4 of 22 is on nid00630 - thread support 0
Process 5 of 22 is on nid00630 - thread support 0
Process 21 of 22 is on nid00630 - thread support 0
Process 0 of 22 is on nid00630 - thread support 0
initial socket setup ...start
initial socket setup ...done 
now start server 0 ... 
nid00630 10.128.2
Q-Chem Developer Version! Running on 10.128.2.*
                  Welcome to Q-Chem
     A Quantum Leap Into The Future Of Chemistry


 Q-Chem 4.4, Q-Chem, Inc., Pleasanton, CA (2016)

 Y. Shao,  Z. Gan,  E. Epifanovsky,  A. T. B. Gilbert,  M. Wormit,  
 J. Kussmann,  A. W. Lange,  A. Behn,  J. Deng,  X. Feng,  D. Ghosh,  
 M. Goldey,  P. R. Horn,  L. D. Jacobson,  I. Kaliman,  F. Rob,  
 R. Z. Khaliullin,  T. Kus,  A. Landau,  J. Liu,  E. I. Proynov,  Y. M. Rhee,  
 R. M. Richard,  M. A. Rohrdanz,  R. P. Steele,  E. J. Sundstrom,  
 H. L. Woodcock III,  P. M. Zimmerman,  D. Zuev,  B. Albrecht,  E. Alguire,  
 B. Austin,  S. A. Baeppler,  G. J. O. Beran,  Y. A. Bernard,  
 E. J. Berquist,  K. Brandhorst,  K. B. Bravaya,  S. T. Brown,  D. Casanova,  
 C.-M. Chang,  Y. Chen,  S. H. Chien,  K. D. Closser,  M. P. Coons,  
 D. L. Crittenden,  S. Dasgupta,  M. Diedenhofen,  R. A. DiStasio Jr.,  
 H. Do,  A. D. Dutoi,  R. G. Edgar,  P.-T. Fang,  S. Fatehi,  Q. Feng,  
 L. Fusti-Molnar,  A. Ghysels,  A. Golubeva-Zadorozhnaya,  J. Gomes,  
 A. Gunina,  M. W. D. Hanson-Heine,  P. H. P. Harbach,  A. W. Hauser,  
 J. E. Herr,  E. G. Hohenstein,  Z. C. Holden,  K. Hui,  T.-C. Jagau,  H. Ji,  
 B. Kaduk,  K. Khistyaev,  Jaehoon Kim,  Jihan Kim,  R. A. King,  
 P. Klunzinger,  K. Koh,  D. Kosenkov,  T. Kowalczyk,  C. M. Krauter,  
 A. Kunitsa,  K. U. Lao,  A. Laurent,  K. V. Lawler,  J. Lee,  D. Lefrancois,  
 S. Lehtola,  S. V. Levchenko,  C. Y. Lin,  Y.-S. Lin,  F. Liu,  E. Livshits,  
 R. C. Lochan,  A. Luenser,  P. Manohar,  S. F. Manzer,  S.-P. Mao,  Y. Mao,  
 N. Mardirossian,  A. V. Marenich,  L. A. Martinez-Martinez,  S. A. Maurer,  
 N. J. Mayhall,  J.-M. Mewes,  A. F. Morrison,  K. Nanda,  T. S. Nguyen-Beck,  
 C. M. Oana,  R. Olivares-Amaya,  D. P. O'Neill,  J. A. Parkhill,  
 T. M. Perrine,  R. Peverati,  P. A. Pieniazek,  F. Plasser,  A. Prociuk,  
 D. R. Rehn,  E. Rosta,  N. J. Russ,  N. Sergueev,  S. M. Sharada,  
 S. Sharma,  D. W. Small,  A. Sodt,  T. Stauch,  T. Stein,  D. Stuck,  
 Y.-C. Su,  A. J. W. Thom,  T. Tsuchimochi,  L. Vogt,  O. Vydrov,  T. Wang,  
 M. A. Watson,  J. Wenzel,  A. White,  C. F. Williams,  V. Vanovschi,  
 K. Yao,  S. Yeganeh,  S. R. Yost,  Z.-Q. You,  I. Y. Zhang,  X. Zhang,  
 Y. Zhao,  B. R. Brooks,  G. K. L. Chan,  D. M. Chipman,  C. J. Cramer,  
 W. A. Goddard III,  M. S. Gordon,  W. J. Hehre,  A. Klamt,  
 H. F. Schaefer III,  M. W. Schmidt,  C. D. Sherrill,  D. G. Truhlar,  
 A. Warshel,  X. Xu,  A. Aspuru-Guzik,  R. Baer,  A. T. Bell,  N. A. Besley,  
 J.-D. Chai,  A. Dreuw,  B. D. Dunietz,  T. R. Furlani,  S. R. Gwaltney,  
 C.-P. Hsu,  Y. Jung,  J. Kong,  D. S. Lambrecht,  W. Liang,  C. Ochsenfeld,  
 V. A. Rassolov,  L. V. Slipchenko,  J. E. Subotnik,  T. Van Voorhis,  
 J. M. Herbert,  A. I. Krylov,  P. M. W. Gill,  M. Head-Gordon

 Contributors to earlier versions of Q-Chem not listed above: 
 R. D. Adamson,  J. Baker,  E. F. C. Byrd,  A. K. Chakraborty,  C.-L. Cheng,  
 H. Dachsel,  R. J. Doerksen,  G. Hawkins,  A. Heyden,  S. Hirata,  
 G. Kedziora,  F. J. Keil,  C. Kelley,  P. P. Korambath,  W. Kurlancheek,  
 A. M. Lee,  M. S. Lee,  D. Liotard,  I. Lotan,  P. E. Maslen,  N. Nair,  
 D. Neuhauser,  R. Olson,  B. Peters,  J. Ritchie,  N. E. Schultz,  
 N. Shenvi,  A. C. Simmonett,  K. S. Thanthiriwatte,  Q. Wu,  W. Zhang

 Please cite Q-Chem as follows:
 Y. Shao et al., Mol. Phys. 113, 184-215 (2015)
 DOI: 10.1080/00268976.2014.952696

 Q-Chem 4.4.2 for Intel X86 EM64T Linux

 Parts of Q-Chem use Armadillo 5.200.1 (Boston Tea Smuggler).
 http://arma.sourceforge.net/

 Q-Chem begins on Tue May 30 10:52:44 2017  

Host: nid00478
0

     Scratch files written to /dev/shm/eg_qchem/qchem37314.0//
 Parallel job on  22  processors

Checking the input file for inconsistencies... 	...done.

--------------------------------------------------------------
User input:
--------------------------------------------------------------
$molecule
 0  1
 H           6.23254100       -0.22338900        0.17638100
 H           5.29752400        2.22850500       -0.10953100
 C           5.19733500        0.07486000        0.08356300
 C           4.68347900        1.33634400       -0.06443600
 S           3.94559900       -1.12581000        0.11905200
 C           3.26267300        1.34659400       -0.16511200
 H           2.67740100        2.24810800       -0.30841700
 C           2.69562400        0.08941900       -0.09094600
 H           1.33241900       -2.39005500       -0.68762600
 C           1.29739300       -0.28590200       -0.16150800
 C           0.73808300       -1.51455700       -0.45078400
 S           0.03601800        0.89451200        0.14982500
 C          -0.68041100       -1.51067300       -0.44936800
 H          -1.28012400       -2.38277100       -0.68510300
 C          -1.23220500       -0.27900200       -0.15852500
 C          -2.62830100        0.10383400       -0.08465000
 H          -2.87725981        0.81309372        1.95065291
 C          -3.33322465        0.61657367        0.98665711
 S          -3.68219935       -0.05806267       -1.47971576
 C          -4.70023453        0.88647593        0.69093677
 C          -5.03501830        0.58190828       -0.60229630
 H          -5.40210200        1.29822835        1.40709577
 H          -5.99231172        0.69146344       -1.09301436
$end


$rem
         jobtype = opt
        exchange = b3lyp
           basis = 6-31++g**
  max_scf_cycles = 150
      mem_static = 281
       mem_total = 2818
      sym_ignore = true
        symmetry = false
          thresh = 12
$end


$opt
CONSTRAINT
tors 13 15 16 18 120.0
ENDCONSTRAINT
$end

--------------------------------------------------------------
 ----------------------------------------------------------------
             Standard Nuclear Orientation (Angstroms)
    I     Atom           X                Y                Z
 ----------------------------------------------------------------
    1      H       6.2325410000    -0.2233890000     0.1763810000
    2      H       5.2975240000     2.2285050000    -0.1095310000
    3      C       5.1973350000     0.0748600000     0.0835630000
    4      C       4.6834790000     1.3363440000    -0.0644360000
    5      S       3.9455990000    -1.1258100000     0.1190520000
    6      C       3.2626730000     1.3465940000    -0.1651120000
    7      H       2.6774010000     2.2481080000    -0.3084170000
    8      C       2.6956240000     0.0894190000    -0.0909460000
    9      H       1.3324190000    -2.3900550000    -0.6876260000
   10      C       1.2973930000    -0.2859020000    -0.1615080000
   11      C       0.7380830000    -1.5145570000    -0.4507840000
   12      S       0.0360180000     0.8945120000     0.1498250000
   13      C      -0.6804110000    -1.5106730000    -0.4493680000
   14      H      -1.2801240000    -2.3827710000    -0.6851030000
   15      C      -1.2322050000    -0.2790020000    -0.1585250000
   16      C      -2.6283010000     0.1038340000    -0.0846500000
   17      H      -2.8772598100     0.8130937200     1.9506529100
   18      C      -3.3332246500     0.6165736700     0.9866571100
   19      S      -3.6821993500    -0.0580626700    -1.4797157600
   20      C      -4.7002345300     0.8864759300     0.6909367700
   21      C      -5.0350183000     0.5819082800    -0.6022963000
   22      H      -5.4021020000     1.2982283500     1.4070957700
   23      H      -5.9923117200     0.6914634400    -1.0930143600
 ----------------------------------------------------------------
 Nuclear Repulsion Energy =  1172.8062974249 hartrees
 There are       64 alpha and       64 beta electrons
 Requested basis set is 6-31++G(d,p)
 There are 110 shells and 345 basis functions

 Total QAlloc Memory Limit   2818 MB
 Mega-Array Size       275 MB
 MEM_STATIC part       281 MB
 A cutoff of  1.0D-12 yielded   4684 shell pairs
 There are     47679 function pairs

 Q-Chem warning in module /project/projectdirs/jcesr/qchem/qc44/cnl_qc441/compile/cori/qc_src/libqints/qchem/aobasis.C, line 68:

 Using reconstructed effective core potential

 
 -------------------------------------------------------
 OpenMP Integral Computing Module                       
 Release: version 1.0, May 2013, Q-Chem Inc. Pittsburgh 
 -------------------------------------------------------
 Integral Job Info:
 Integral job number is                      11
 Integral operator is                         1
 short-range coefficients                     0
 long-range coefficients              100000000
 Omega coefficients                           0
 if combine SR and LR in K                    0
 Integral screening is                        0
 Integral computing path is                   2
 max size of driver memory is            800000
 size of driver memory is                593474
 size of scratch memory is             15166112
 max col of scratch BK array               1296
 max len of scratch array in speh3          155
 max len of scratch index in speh4           18
 max int batch size is                      520
 min int batch size is                       52
 fixed nKL is                                52
 max L of basis functions is                  2
 order of int derivative is                   0
 number of shells is                        110
 number of basis is                         345
 number of cartesian basis is               345
 number of contracted shell pairs          4684
 number of primitive shell pairs          14627
 maxK2 (contraction) of shell pair           36
 max number of K2 of shell pair               1
 max number of CS2 of shell pair            518
 max number of PS2 of shell pair           3036
 mem total for path MDJ                  101704
 -------------------------------------------------------
 Smallest overlap matrix eigenvalue = 8.39E-08
 Linear dependence detected in AO basis
 Number of orthogonalized atomic orbitals = 343
 Maximum deviation from orthogonality = 6.709E-11

 Scale SEOQF with 1.000000e-02/1.000000e-01/1.000000e-01

 Standard Electronic Orientation quadrupole field applied
 Nucleus-field energy     =     0.0000000073 hartrees
 Guess from superposition of atomic densities
 Warning:  Energy on first SCF cycle will be non-variational
 A restricted hybrid HF-DFT SCF calculation will be
 performed using Pulay DIIS extrapolation
 Exchange:     0.2000 Hartree-Fock + 0.0800 Slater + 0.7200 B88
 Correlation:  0.1900 VWN1RPA + 0.8100 LYP
 Using SG-1 standard quadrature grid
 SCF converges when DIIS error is below 1.0E-08
 ---------------------------------------
  Cycle       Energy         DIIS Error
 ---------------------------------------
    1   -1660.2798687740      3.67E-02
    2   -1656.4146518910      3.84E-03
    3   -1656.0770934732      5.80E-03
    4   -1656.6425554257      1.06E-03
    5   -1656.6560582805      5.92E-04
    6   -1656.6611986174      1.80E-04
    7   -1656.6616882857      6.84E-05
    8   -1656.6617585201      1.26E-05
    9   -1656.6617607950      4.12E-06
   10   -1656.6617610231      2.07E-06
   11   -1656.6617611008      3.42E-07
   12   -1656.6617611004      2.32E-07
   13   -1656.6617611018      6.29E-08
   14   -1656.6617611019      2.27E-08
   15   -1656.6617611012      8.78E-09 Convergence criterion met
 ---------------------------------------
 SCF time:  CPU 16.28 s  wall 15.03 s
 SCF   energy in the final basis set = -1656.6617611012
 Total energy in the final basis set = -1656.6617611012
 
 --------------------------------------------------------------
 
                    Orbital Energies (a.u.)
 --------------------------------------------------------------
 
 Alpha MOs
 -- Occupied --
-88.921 -88.921 -88.921 -10.241 -10.240 -10.238 -10.238 -10.226
-10.226 -10.206 -10.206 -10.205 -10.205 -10.205 -10.205  -7.980
 -7.980  -7.980  -5.945  -5.944  -5.944  -5.941  -5.941  -5.941
 -5.938  -5.937  -5.937  -0.906  -0.892  -0.876  -0.786  -0.755
 -0.745  -0.744  -0.733  -0.697  -0.617  -0.595  -0.569  -0.561
 -0.537  -0.534  -0.528  -0.501  -0.462  -0.421  -0.420  -0.416
 -0.416  -0.407  -0.402  -0.401  -0.384  -0.376  -0.370  -0.359
 -0.351  -0.345  -0.286  -0.266  -0.262  -0.260  -0.245  -0.209
 -- Virtual --
 -0.065  -0.034  -0.009  -0.007  -0.003   0.002   0.007   0.010
  0.012   0.018   0.023   0.026   0.030   0.032   0.037   0.042
  0.046   0.050   0.051   0.055   0.058   0.064   0.068   0.077
  0.084   0.087   0.090   0.096   0.101   0.104   0.107   0.110
  0.112   0.116   0.120   0.122   0.125   0.128   0.129   0.131
  0.134   0.141   0.142   0.145   0.148   0.150   0.153   0.158
  0.160   0.161   0.170   0.171   0.177   0.182   0.186   0.189
  0.194   0.199   0.205   0.208   0.213   0.216   0.220   0.223
  0.228   0.231   0.236   0.246   0.248   0.257   0.258   0.261
  0.266   0.268   0.270   0.278   0.284   0.292   0.293   0.297
  0.313   0.320   0.326   0.331   0.337   0.350   0.353   0.362
  0.364   0.375   0.380   0.394   0.402   0.451   0.456   0.462
  0.495   0.505   0.520   0.528   0.534   0.555   0.574   0.576
  0.583   0.600   0.613   0.624   0.629   0.648   0.656   0.660
  0.663   0.667   0.677   0.689   0.704   0.713   0.714   0.721
  0.727   0.731   0.735   0.751   0.752   0.773   0.782   0.787
  0.795   0.801   0.815   0.823   0.832   0.835   0.846   0.873
  0.897   0.930   0.934   0.935   0.954   0.958   0.961   0.963
  0.966   0.972   0.982   0.984   0.993   0.994   1.006   1.022
  1.029   1.040   1.048   1.059   1.079   1.087   1.096   1.106
  1.110   1.130   1.153   1.160   1.171   1.186   1.198   1.219
  1.252   1.261   1.266   1.289   1.307   1.331   1.349   1.350
  1.356   1.361   1.366   1.382   1.443   1.455   1.479   1.499
  1.514   1.536   1.547   1.555   1.605   1.683   1.693   1.720
  1.768   1.798   1.839   1.851   1.875   1.883   1.893   1.905
  1.919   1.924   1.952   1.962   1.993   2.003   2.025   2.058
  2.075   2.081   2.100   2.119   2.146   2.175   2.178   2.190
  2.202   2.233   2.242   2.260   2.283   2.298   2.337   2.364
  2.367   2.420   2.431   2.443   2.455   2.458   2.472   2.485
  2.502   2.517   2.530   2.534   2.555   2.583   2.590   2.597
  2.624   2.661   2.680   2.700   2.711   2.737   2.809   2.860
  2.872   2.889   2.915   2.939   2.944   3.136   3.173   3.209
  3.271   3.272   3.327   3.414   3.416   3.674   3.731   3.736
  3.973   3.977   3.982   4.255   4.284   4.305   4.320   4.330
  4.355   4.401   4.481   4.547   4.647   4.694   4.726
 --------------------------------------------------------------
 
          Ground-State Mulliken Net Atomic Charges

     Atom                 Charge (a.u.)
  ----------------------------------------
      1 H                     0.196275
      2 H                     0.119334
      3 C                     0.033366
      4 C                    -0.410837
      5 S                    -0.119026
      6 C                     0.553106
      7 H                     0.127806
      8 C                    -0.467058
      9 H                     0.121360
     10 C                    -0.003320
     11 C                    -0.198448
     12 S                    -0.090092
     13 C                     0.155370
     14 H                     0.130164
     15 C                    -0.168434
     16 C                    -0.535281
     17 H                     0.143522
     18 C                     0.405929
     19 S                     0.021381
     20 C                    -0.374561
     21 C                     0.045991
     22 H                     0.119148
     23 H                     0.194304
  ----------------------------------------
  Sum of atomic charges =     0.000000

 -----------------------------------------------------------------
                    Cartesian Multipole Moments
 -----------------------------------------------------------------
    Charge (ESU x 10^10)
                 0.0000
    Dipole Moment (Debye)
         X      -0.0481      Y       0.2616      Z       0.2436
       Tot       0.3607
    Quadrupole Moments (Debye-Ang)
        XX     -90.4912     XY      -0.3568     YY    -105.1920
        XZ      -0.5299     YZ       2.2547     ZZ    -111.5834
    Octopole Moments (Debye-Ang^2)
       XXX      -8.0979    XXY      21.7810    XYY      11.7779
       YYY     -21.0974    XXZ      17.0348    XYZ      -7.3754
       YYZ      14.7536    XZZ     -27.1220    YZZ      -3.5815
       ZZZ      58.9225
    Hexadecapole Moments (Debye-Ang^3)
      XXXX   -6324.0861   XXXY      30.0995   XXYY   -1320.6657
      XYYY     177.2415   YYYY    -679.2119   XXXZ     -65.4659
      XXYZ      -2.1664   XYYZ     -63.3969   YYYZ     -37.3071
      XXZZ   -1313.9057   XYZZ      24.1191   YYZZ    -195.9441
      XZZZ    -161.0815   YZZZ     -40.7389   ZZZZ    -420.9761
 -----------------------------------------------------------------
 Calculating analytic gradient of the SCF energy
 Gradient of SCF Energy
            1           2           3           4           5           6
    1  -0.0000327   0.0000068   0.0001065  -0.0001521  -0.0001353   0.0003012
    2  -0.0000164  -0.0000047   0.0001064   0.0000185  -0.0002262   0.0005167
    3   0.0000655   0.0000006  -0.0000239  -0.0000964  -0.0000089   0.0001539
            7           8           9          10          11          12
    1   0.0000148  -0.0014121  -0.0000887   0.0016645  -0.0014375  -0.0005160
    2   0.0000015  -0.0001467   0.0000934  -0.0008447  -0.0004723   0.0007062
    3   0.0000030  -0.0007139  -0.0001520  -0.0017279   0.0014612   0.0009624
           13          14          15          16          17          18
    1   0.0016954   0.0007191  -0.0076168   0.0086834  -0.0004924  -0.0025603
    2  -0.0026962  -0.0002442   0.0049503  -0.0004492   0.0014643  -0.0026326
    3   0.0031204  -0.0012258  -0.0016372  -0.0032249  -0.0000125   0.0026013
           19          20          21          22          23
    1   0.0005052   0.0006775  -0.0005892   0.0001307   0.0005280
    2  -0.0012514  -0.0015900   0.0020689   0.0001346   0.0005136
    3  -0.0006805   0.0005699   0.0010447  -0.0001147  -0.0003643
 Max gradient component =       8.683E-03
 RMS gradient           =       1.879E-03
 Gradient time:  CPU 4.68 s  wall 4.58 s
 Geometry Optimization Parameters
   NAtoms,    NIC,     NZ,  NCons,   NDum,   NFix, NCnnct, MaxDiis
       23     166       0       1       0       0       0       0


** CONSTRAINED OPTIMIZATION IN DELOCALIZED INTERNAL COORDINATES **
   Searching for a Minimum

   Optimization Cycle:   1

                       Coordinates (Angstroms)
     ATOM                X               Y               Z
      1  H         6.2325410000   -0.2233890000    0.1763810000
      2  H         5.2975240000    2.2285050000   -0.1095310000
      3  C         5.1973350000    0.0748600000    0.0835630000
      4  C         4.6834790000    1.3363440000   -0.0644360000
      5  S         3.9455990000   -1.1258100000    0.1190520000
      6  C         3.2626730000    1.3465940000   -0.1651120000
      7  H         2.6774010000    2.2481080000   -0.3084170000
      8  C         2.6956240000    0.0894190000   -0.0909460000
      9  H         1.3324190000   -2.3900550000   -0.6876260000
     10  C         1.2973930000   -0.2859020000   -0.1615080000
     11  C         0.7380830000   -1.5145570000   -0.4507840000
     12  S         0.0360180000    0.8945120000    0.1498250000
     13  C        -0.6804110000   -1.5106730000   -0.4493680000
     14  H        -1.2801240000   -2.3827710000   -0.6851030000
     15  C        -1.2322050000   -0.2790020000   -0.1585250000
     16  C        -2.6283010000    0.1038340000   -0.0846500000
     17  H        -2.8772598100    0.8130937200    1.9506529100
     18  C        -3.3332246500    0.6165736700    0.9866571100
     19  S        -3.6821993500   -0.0580626700   -1.4797157600
     20  C        -4.7002345300    0.8864759300    0.6909367700
     21  C        -5.0350183000    0.5819082800   -0.6022963000
     22  H        -5.4021020000    1.2982283500    1.4070957700
     23  H        -5.9923117200    0.6914634400   -1.0930143600
   Point Group: c1    Number of degrees of freedom:    63


   Energy is  -1656.661761101

              Constraints and their Current Values
                                        Value     Constraint
   Dihedral:       13  15  16  18      120.000      120.000

 Attempting to Generate Delocalized Internal Coordinates

 62 Hessian modes will be used to form the next step
  Hessian Eigenvalues:
     0.045000    0.045000    0.045000    0.045000    0.045000    0.045000
     0.045000    0.045000    0.045000    0.045001    0.045002    0.045002
     0.045003    0.045003    0.045009    0.045010    0.045011    0.045018
     0.045019    0.159886    0.159939    0.159955    0.159957    0.159992
     0.159993    0.160000    0.160000    0.221281    0.221281    0.226855
     0.237826    0.237826    0.245311    0.249998    0.249998    0.250000
     0.250000    0.293636    0.293684    0.294746    0.294936    0.312571
     0.312615    0.354732    0.354740    0.354742    0.354756    0.355161
     0.355164    0.358372    0.358373    0.383080    0.383176    0.405793
     0.405832    0.413732    0.458107    0.461989    0.461995    0.485493
     0.497291    0.497294

 Minimum Search - Taking Simple RFO Step
 Searching for Lamda that Minimizes Along All modes
 Value Taken    Lamda =  -0.00055103
 Step Taken.  Stepsize is  0.089590

                             Maximum     Tolerance    Cnvgd?
         Gradient           0.003435      0.000300      NO
         Displacement       0.036632      0.001200      NO
         Energy change     *********      0.000001      NO


 New Cartesian Coordinates Obtained by Inverse Iteration

 Displacement from previous Coordinates is:  0.332681
 ----------------------------------------------------------------
             Standard Nuclear Orientation (Angstroms)
    I     Atom           X                Y                Z
 ----------------------------------------------------------------
    1      H       6.2323247364    -0.2410322196     0.2215714368
    2      H       5.3162636015     2.2149019985    -0.0898436737
    3      C       5.2002151951     0.0630449310     0.1139942829
    4      C       4.6962166383     1.3267575796    -0.0476743415
    5      S       3.9405369915    -1.1291981026     0.1395234663
    6      C       3.2768471031     1.3449620024    -0.1679886235
    7      H       2.6991824663     2.2491419072    -0.3248124107
    8      C       2.7009936701     0.0923773488    -0.0941138394
    9      H       1.3308291871    -2.3807960447    -0.7008687097
   10      C       1.2997417014    -0.2741895197    -0.1830075901
   11      C       0.7378486965    -1.5008207115    -0.4769561690
   12      S       0.0404060341     0.9125834754     0.1020246073
   13      C      -0.6825859779    -1.4935790064    -0.4763023125
   14      H      -1.2895194728    -2.3655157303    -0.6929331993
   15      C      -1.2304091206    -0.2624730769    -0.1900145095
   16      C      -2.6353409875     0.1216679774    -0.0995033538
   17      H      -2.8497619536     0.8450183418     1.9281175332
   18      C      -3.3241654072     0.6424205708     0.9744106971
   19      S      -3.7115086053    -0.0681182684    -1.4737526367
   20      C      -4.7025628004     0.8867719100     0.7021690825
   21      C      -5.0608456574     0.5453473167    -0.5760083149
   22      H      -5.3984212395     1.2914431502     1.4284043283
   23      H      -6.0335871591     0.6189818904    -1.0433046102
 ----------------------------------------------------------------
 Nuclear Repulsion Energy =  1171.9560733169 hartrees
 There are       64 alpha and       64 beta electrons
 Applying Cartesian multipole field
    Component          Value
    ---------          -----
     (2,0,0)        1.00000E-12
     (0,2,0)        2.00000E-11
     (0,0,2)       -3.00000E-11
 Nucleus-field energy     =     0.0000000073 hartrees
 Requested basis set is 6-31++G(d,p)
 There are 110 shells and 345 basis functions
 A cutoff of  1.0D-12 yielded   4684 shell pairs
 There are     47679 function pairs

 Q-Chem warning in module /project/projectdirs/jcesr/qchem/qc44/cnl_qc441/compile/cori/qc_src/libqints/qchem/aobasis.C, line 68:

 Using reconstructed effective core potential

 Smallest overlap matrix eigenvalue = 8.76E-08
 Linear dependence detected in AO basis
 Number of orthogonalized atomic orbitals = 343
 Maximum deviation from orthogonality = 2.812E-10
 Guess MOs from SCF MO coefficient file
 Reading MOs from coefficient file
 Reading MOs from coefficient file
 A restricted hybrid HF-DFT SCF calculation will be
 performed using Pulay DIIS extrapolation
 Exchange:     0.2000 Hartree-Fock + 0.0800 Slater + 0.7200 B88
 Correlation:  0.1900 VWN1RPA + 0.8100 LYP
 Using SG-1 standard quadrature grid
 SCF converges when DIIS error is below 1.0E-08
 Geometry optimization detected.  Setting ReadMinima to 0
 Setting SaveMinima to 0
 ---------------------------------------
  Cycle       Energy         DIIS Error
 ---------------------------------------
    1   -1656.6653327354      7.68E-04
    2   -1656.6618381778      1.19E-04
    3   -1656.6610001965      2.59E-04
    4   -1656.6620868489      3.01E-05
    5   -1656.6620987802      1.35E-05
    6   -1656.6621015892      3.73E-06
    7   -1656.6621017912      1.30E-06
    8   -1656.6621018159      5.54E-07
    9   -1656.6621018208      1.39E-07
   10   -1656.6621018212      5.65E-08
   11   -1656.6621018209      2.15E-08
   12   -1656.6621018220      5.83E-09 Convergence criterion met
 ---------------------------------------
 SCF time:  CPU 13.27 s  wall 12.21 s
 SCF   energy in the final basis set = -1656.6621018220
 Total energy in the final basis set = -1656.6621018220
 
 --------------------------------------------------------------
 
                    Orbital Energies (a.u.)
 --------------------------------------------------------------
 
 Alpha MOs
 -- Occupied --
-88.921 -88.921 -88.921 -10.241 -10.240 -10.239 -10.238 -10.226
-10.226 -10.206 -10.206 -10.205 -10.205 -10.205 -10.205  -7.981
 -7.980  -7.980  -5.945  -5.944  -5.944  -5.941  -5.941  -5.941
 -5.938  -5.937  -5.937  -0.906  -0.892  -0.876  -0.786  -0.754
 -0.745  -0.743  -0.733  -0.697  -0.616  -0.595  -0.569  -0.561
 -0.537  -0.535  -0.528  -0.501  -0.462  -0.421  -0.420  -0.416
 -0.415  -0.407  -0.402  -0.401  -0.384  -0.376  -0.370  -0.359
 -0.350  -0.345  -0.286  -0.266  -0.262  -0.260  -0.246  -0.209
 -- Virtual --
 -0.064  -0.034  -0.008  -0.007  -0.003   0.002   0.007   0.009
  0.012   0.018   0.023   0.026   0.030   0.033   0.037   0.042
  0.045   0.050   0.051   0.055   0.058   0.064   0.068   0.077
  0.084   0.087   0.090   0.096   0.101   0.104   0.107   0.110
  0.112   0.116   0.120   0.122   0.126   0.127   0.129   0.131
  0.134   0.141   0.142   0.144   0.148   0.150   0.152   0.158
  0.160   0.161   0.170   0.171   0.177   0.182   0.185   0.189
  0.193   0.198   0.206   0.208   0.213   0.215   0.220   0.222
  0.228   0.230   0.235   0.245   0.248   0.256   0.259   0.260
  0.266   0.268   0.270   0.278   0.283   0.291   0.293   0.297
  0.312   0.319   0.326   0.332   0.337   0.350   0.353   0.361
  0.365   0.375   0.380   0.394   0.402   0.453   0.456   0.463
  0.495   0.505   0.520   0.528   0.534   0.554   0.572   0.576
  0.583   0.600   0.613   0.624   0.629   0.648   0.656   0.659
  0.663   0.666   0.678   0.688   0.704   0.714   0.714   0.721
  0.727   0.731   0.736   0.750   0.754   0.773   0.782   0.787
  0.794   0.801   0.814   0.823   0.832   0.834   0.846   0.873
  0.896   0.931   0.935   0.936   0.954   0.959   0.961   0.963
  0.966   0.971   0.982   0.984   0.993   0.994   1.006   1.023
  1.029   1.040   1.048   1.059   1.079   1.087   1.097   1.106
  1.110   1.128   1.153   1.161   1.171   1.186   1.199   1.216
  1.251   1.260   1.265   1.290   1.310   1.330   1.347   1.349
  1.355   1.361   1.366   1.383   1.444   1.453   1.480   1.499
  1.512   1.533   1.546   1.555   1.604   1.683   1.693   1.720
  1.766   1.794   1.836   1.856   1.873   1.882   1.893   1.904
  1.918   1.923   1.952   1.961   1.992   2.003   2.024   2.058
  2.075   2.082   2.101   2.120   2.147   2.175   2.179   2.189
  2.201   2.233   2.241   2.259   2.282   2.296   2.334   2.364
  2.367   2.419   2.433   2.444   2.454   2.459   2.470   2.484
  2.502   2.518   2.530   2.534   2.552   2.582   2.590   2.598
  2.623   2.661   2.678   2.700   2.711   2.735   2.806   2.859
  2.871   2.888   2.913   2.938   2.943   3.136   3.172   3.208
  3.270   3.272   3.326   3.413   3.415   3.674   3.730   3.736
  3.973   3.976   3.982   4.255   4.281   4.305   4.319   4.329
  4.355   4.400   4.481   4.547   4.646   4.693   4.725
 --------------------------------------------------------------
 
          Ground-State Mulliken Net Atomic Charges

     Atom                 Charge (a.u.)
  ----------------------------------------
      1 H                     0.196269
      2 H                     0.119323
      3 C                     0.034668
      4 C                    -0.412843
      5 S                    -0.116073
      6 C                     0.545506
      7 H                     0.127499
      8 C                    -0.468008
      9 H                     0.121151
     10 C                    -0.012739
     11 C                    -0.184755
     12 S                    -0.096383
     13 C                     0.161981
     14 H                     0.131331
     15 C                    -0.162230
     16 C                    -0.529195
     17 H                     0.143483
     18 C                     0.395993
     19 S                     0.020339
     20 C                    -0.370722
     21 C                     0.041959
     22 H                     0.119032
     23 H                     0.194415
  ----------------------------------------
  Sum of atomic charges =     0.000000

 -----------------------------------------------------------------
                    Cartesian Multipole Moments
 -----------------------------------------------------------------
    Charge (ESU x 10^10)
                 0.0000
    Dipole Moment (Debye)
         X      -0.0454      Y       0.2234      Z       0.2866
       Tot       0.3662
    Quadrupole Moments (Debye-Ang)
        XX     -90.2794     XY      -0.1073     YY    -105.2756
        XZ      -0.5247     YZ       2.2520     ZZ    -111.6867
    Octopole Moments (Debye-Ang^2)
       XXX      -8.8809    XXY      19.6423    XYY      12.5555
       YYY     -21.9031    XXZ      18.9792    XYZ      -7.9810
       YYZ      15.4560    XZZ     -26.1630    YZZ      -3.9210
       ZZZ      60.6331
    Hexadecapole Moments (Debye-Ang^3)
      XXXX   -6336.2854   XXXY      39.2448   XXYY   -1328.3999
      XYYY     175.7538   YYYY    -677.5420   XXXZ     -67.4170
      XXYZ      -0.1259   XYYZ     -66.0610   YYYZ     -38.7909
      XXZZ   -1321.6299   XYZZ      24.2026   YYZZ    -195.2923
      XZZZ    -168.9545   YZZZ     -41.6210   ZZZZ    -420.8806
 -----------------------------------------------------------------
 Calculating analytic gradient of the SCF energy
 Gradient of SCF Energy
            1           2           3           4           5           6
    1   0.0000050   0.0000104   0.0001088  -0.0000876   0.0001159   0.0001505
    2  -0.0000070  -0.0000063   0.0000356  -0.0000576  -0.0000180   0.0001416
    3   0.0000045  -0.0000132  -0.0000239   0.0000242   0.0000086   0.0000883
            7           8           9          10          11          12
    1   0.0000028  -0.0005194   0.0000265   0.0010650  -0.0005522   0.0000905
    2  -0.0000291   0.0000817   0.0000148  -0.0002133   0.0000509  -0.0000290
    3  -0.0000335  -0.0002149  -0.0000543  -0.0003869   0.0003056  -0.0003804
           13          14          15          16          17          18
    1   0.0004987   0.0001329  -0.0016262   0.0019116   0.0000202  -0.0010335
    2  -0.0007653   0.0000869   0.0003889   0.0014043   0.0007286  -0.0027466
    3   0.0028545  -0.0006597  -0.0019061  -0.0000961  -0.0001784   0.0009188
           19          20          21          22          23
    1  -0.0000370   0.0003375  -0.0006796  -0.0000164   0.0000757
    2   0.0006223  -0.0001388   0.0002771   0.0000870   0.0000912
    3  -0.0001281  -0.0001678   0.0002884  -0.0000343  -0.0002153
 Max gradient component =       2.854E-03
 RMS gradient           =       7.131E-04
 Gradient time:  CPU 4.56 s  wall 4.59 s
 Geometry Optimization Parameters
   NAtoms,    NIC,     NZ,  NCons,   NDum,   NFix, NCnnct, MaxDiis
       23     166       0       1       0       0       0       0

 Cartesian Hessian Update
 Hessian Updated using BFGS Update


** CONSTRAINED OPTIMIZATION IN DELOCALIZED INTERNAL COORDINATES **
   Searching for a Minimum

   Optimization Cycle:   2

                       Coordinates (Angstroms)
     ATOM                X               Y               Z
      1  H         6.2323247364   -0.2410322196    0.2215714368
      2  H         5.3162636015    2.2149019985   -0.0898436737
      3  C         5.2002151951    0.0630449310    0.1139942829
      4  C         4.6962166383    1.3267575796   -0.0476743415
      5  S         3.9405369915   -1.1291981026    0.1395234663
      6  C         3.2768471031    1.3449620024   -0.1679886235
      7  H         2.6991824663    2.2491419072   -0.3248124107
      8  C         2.7009936701    0.0923773488   -0.0941138394
      9  H         1.3308291871   -2.3807960447   -0.7008687097
     10  C         1.2997417014   -0.2741895197   -0.1830075901
     11  C         0.7378486965   -1.5008207115   -0.4769561690
     12  S         0.0404060341    0.9125834754    0.1020246073
     13  C        -0.6825859779   -1.4935790064   -0.4763023125
     14  H        -1.2895194728   -2.3655157303   -0.6929331993
     15  C        -1.2304091206   -0.2624730769   -0.1900145095
     16  C        -2.6353409875    0.1216679774   -0.0995033538
     17  H        -2.8497619536    0.8450183418    1.9281175332
     18  C        -3.3241654072    0.6424205708    0.9744106971
     19  S        -3.7115086053   -0.0681182684   -1.4737526367
     20  C        -4.7025628004    0.8867719100    0.7021690825
     21  C        -5.0608456574    0.5453473167   -0.5760083149
     22  H        -5.3984212395    1.2914431502    1.4284043283
     23  H        -6.0335871591    0.6189818904   -1.0433046102
   Point Group: c1    Number of degrees of freedom:    63


   Energy is  -1656.662101822

              Constraints and their Current Values
                                        Value     Constraint
   Dihedral:       13  15  16  18      120.000      120.000
 Hessian Updated using BFGS Update

 53 Hessian modes will be used to form the next step
  Hessian Eigenvalues:
     0.029628    0.045000    0.045000    0.045002    0.045007    0.045009
     0.045009    0.045015    0.045018    0.049621    0.158599    0.159902
     0.159947    0.159958    0.159991    0.159993    0.160000    0.160306
     0.221278    0.221533    0.226837    0.237791    0.238912    0.246538
     0.249832    0.249998    0.250000    0.250470    0.293050    0.293649
     0.294574    0.295109    0.312571    0.312943    0.354735    0.354741
     0.354742    0.354760    0.355164    0.355169    0.358372    0.358407
     0.383053    0.397468    0.405831    0.408693    0.417689    0.458135
     0.461142    0.462336    0.485066    0.497277    0.497876

 Minimum Search - Taking Simple RFO Step
 Searching for Lamda that Minimizes Along All modes
 Value Taken    Lamda =  -0.00011890
 Step Taken.  Stepsize is  0.059695

                             Maximum     Tolerance    Cnvgd?
         Gradient           0.001055      0.000300      NO
         Displacement       0.024823      0.001200      NO
         Energy change     -0.000341      0.000001      NO


 New Cartesian Coordinates Obtained by Inverse Iteration

 Displacement from previous Coordinates is:  0.222718
 ----------------------------------------------------------------
             Standard Nuclear Orientation (Angstroms)
    I     Atom           X                Y                Z
 ----------------------------------------------------------------
    1      H       6.2259135964    -0.2540602491     0.2510201663
    2      H       5.3245019358     2.2054306459    -0.0752403825
    3      C       5.1962377114     0.0545634142     0.1336146373
    4      C       4.6999606166     1.3203048041    -0.0361098449
    5      S       3.9309492600    -1.1317539003     0.1512342888
    6      C       3.2817526176     1.3446673674    -0.1689417091
    7      H       2.7096079122     2.2510951951    -0.3331434031
    8      C       2.6998649699     0.0951121700    -0.0964105814
    9      H       1.3282675128    -2.3740810201    -0.7084418634
   10      C       1.2972377352    -0.2653386314    -0.1969861356
   11      C       0.7357541196    -1.4914991128    -0.4937808344
   12      S       0.0409695044     0.9263807694     0.0754188623
   13      C      -0.6850375652    -1.4817999727    -0.4966148171
   14      H      -1.2955811815    -2.3544985740    -0.6996623435
   15      C      -1.2290110533    -0.2493142565    -0.2140183934
   16      C      -2.6355547418     0.1344861784    -0.1125767668
   17      H      -2.8262866606     0.8690597429     1.9114908377
   18      C      -3.3122100213     0.6618116420     0.9645925967
   19      S      -3.7271957811    -0.0866552148    -1.4688864067
   20      C      -4.6975487704     0.8861318307     0.7100195337
   21      C      -5.0694319116     0.5210610429    -0.5580057068
   22      H      -5.3888268633     1.2868130752     1.4427869179
   23      H      -6.0516353019     0.5717807736    -1.0082275122
 ----------------------------------------------------------------
 Nuclear Repulsion Energy =  1172.0769897116 hartrees
 There are       64 alpha and       64 beta electrons
 Applying Cartesian multipole field
    Component          Value
    ---------          -----
     (2,0,0)        1.00000E-12
     (0,2,0)        2.00000E-11
     (0,0,2)       -3.00000E-11
 Nucleus-field energy     =     0.0000000073 hartrees
 Requested basis set is 6-31++G(d,p)
 There are 110 shells and 345 basis functions
 A cutoff of  1.0D-12 yielded   4684 shell pairs
 There are     47679 function pairs

 Q-Chem warning in module /project/projectdirs/jcesr/qchem/qc44/cnl_qc441/compile/cori/qc_src/libqints/qchem/aobasis.C, line 68:

 Using reconstructed effective core potential

 Smallest overlap matrix eigenvalue = 8.81E-08
 Linear dependence detected in AO basis
 Number of orthogonalized atomic orbitals = 343
 Maximum deviation from orthogonality = 2.566E-10
 Guess MOs from SCF MO coefficient file
 Reading MOs from coefficient file
 Reading MOs from coefficient file
 A restricted hybrid HF-DFT SCF calculation will be
 performed using Pulay DIIS extrapolation
 Exchange:     0.2000 Hartree-Fock + 0.0800 Slater + 0.7200 B88
 Correlation:  0.1900 VWN1RPA + 0.8100 LYP
 Using SG-1 standard quadrature grid
 SCF converges when DIIS error is below 1.0E-08
 Geometry optimization detected.  Setting ReadMinima to 0
 Setting SaveMinima to 0
 ---------------------------------------
  Cycle       Energy         DIIS Error
 ---------------------------------------
    1   -1656.6663281531      5.42E-04
    2   -1656.6620535624      8.18E-05
    3   -1656.6617048497      1.69E-04
    4   -1656.6621686803      2.31E-05
    5   -1656.6621760952      9.31E-06
    6   -1656.6621773983      2.85E-06
    7   -1656.6621775150      9.43E-07
    8   -1656.6621775271      4.02E-07
    9   -1656.6621775299      1.09E-07
   10   -1656.6621775297      3.77E-08
   11   -1656.6621775288      1.61E-08
   12   -1656.6621775309      4.03E-09 Convergence criterion met
 ---------------------------------------
 SCF time:  CPU 12.75 s  wall 12.13 s
 SCF   energy in the final basis set = -1656.6621775309
 Total energy in the final basis set = -1656.6621775309
 
 --------------------------------------------------------------
 
                    Orbital Energies (a.u.)
 --------------------------------------------------------------
 
 Alpha MOs
 -- Occupied --
-88.921 -88.921 -88.921 -10.241 -10.240 -10.239 -10.238 -10.226
-10.226 -10.206 -10.206 -10.205 -10.205 -10.205 -10.205  -7.981
 -7.980  -7.980  -5.945  -5.944  -5.944  -5.941  -5.941  -5.941
 -5.938  -5.937  -5.937  -0.906  -0.892  -0.876  -0.786  -0.754
 -0.745  -0.744  -0.733  -0.697  -0.616  -0.594  -0.569  -0.561
 -0.537  -0.535  -0.528  -0.501  -0.462  -0.421  -0.420  -0.416
 -0.415  -0.407  -0.402  -0.401  -0.384  -0.376  -0.370  -0.359
 -0.351  -0.345  -0.286  -0.266  -0.262  -0.260  -0.246  -0.209
 -- Virtual --
 -0.064  -0.033  -0.008  -0.007  -0.003   0.002   0.007   0.009
  0.012   0.018   0.023   0.026   0.030   0.033   0.037   0.042
  0.045   0.050   0.051   0.055   0.058   0.063   0.068   0.077
  0.084   0.087   0.089   0.096   0.101   0.104   0.107   0.110
  0.112   0.116   0.120   0.122   0.126   0.127   0.129   0.132
  0.134   0.141   0.142   0.145   0.147   0.150   0.152   0.157
  0.160   0.161   0.170   0.171   0.177   0.182   0.185   0.189
  0.193   0.198   0.206   0.209   0.213   0.215   0.220   0.222
  0.227   0.230   0.235   0.245   0.248   0.256   0.259   0.260
  0.266   0.268   0.270   0.278   0.282   0.291   0.293   0.297
  0.312   0.320   0.326   0.332   0.338   0.350   0.354   0.361
  0.365   0.374   0.379   0.394   0.402   0.454   0.457   0.463
  0.495   0.505   0.520   0.528   0.534   0.554   0.572   0.576
  0.583   0.600   0.613   0.625   0.628   0.648   0.656   0.659
  0.663   0.666   0.678   0.687   0.704   0.714   0.714   0.721
  0.726   0.731   0.736   0.750   0.755   0.773   0.782   0.787
  0.794   0.801   0.814   0.823   0.832   0.834   0.846   0.872
  0.896   0.931   0.935   0.936   0.954   0.960   0.960   0.963
  0.966   0.971   0.982   0.984   0.994   0.994   1.006   1.023
  1.029   1.040   1.048   1.058   1.079   1.087   1.097   1.107
  1.110   1.127   1.154   1.161   1.172   1.187   1.201   1.215
  1.252   1.260   1.266   1.292   1.311   1.329   1.346   1.350
  1.354   1.361   1.367   1.385   1.444   1.453   1.480   1.499
  1.512   1.532   1.546   1.555   1.603   1.682   1.693   1.720
  1.764   1.793   1.835   1.859   1.872   1.882   1.893   1.904
  1.918   1.923   1.953   1.961   1.993   2.003   2.024   2.059
  2.076   2.084   2.101   2.120   2.148   2.175   2.180   2.189
  2.201   2.233   2.241   2.259   2.281   2.295   2.333   2.364
  2.368   2.420   2.434   2.444   2.453   2.460   2.468   2.484
  2.502   2.519   2.530   2.534   2.551   2.581   2.591   2.599
  2.623   2.662   2.678   2.701   2.710   2.735   2.805   2.859
  2.870   2.888   2.913   2.937   2.942   3.135   3.172   3.208
  3.270   3.272   3.326   3.413   3.415   3.674   3.730   3.736
  3.973   3.976   3.982   4.256   4.281   4.305   4.319   4.329
  4.355   4.400   4.481   4.547   4.646   4.693   4.725
 --------------------------------------------------------------
 
          Ground-State Mulliken Net Atomic Charges

     Atom                 Charge (a.u.)
  ----------------------------------------
      1 H                     0.196155
      2 H                     0.119270
      3 C                     0.034681
      4 C                    -0.413310
      5 S                    -0.115117
      6 C                     0.541026
      7 H                     0.127206
      8 C                    -0.467293
      9 H                     0.120792
     10 C                    -0.017284
     11 C                    -0.181376
     12 S                    -0.098953
     13 C                     0.169189
     14 H                     0.132290
     15 C                    -0.163298
     16 C                    -0.519076
     17 H                     0.143393
     18 C                     0.387255
     19 S                     0.020188
     20 C                    -0.366596
     21 C                     0.038011
     22 H                     0.118912
     23 H                     0.193936
  ----------------------------------------
  Sum of atomic charges =     0.000000

 -----------------------------------------------------------------
                    Cartesian Multipole Moments
 -----------------------------------------------------------------
    Charge (ESU x 10^10)
                 0.0000
    Dipole Moment (Debye)
         X      -0.0536      Y       0.1921      Z       0.3217
       Tot       0.3785
    Quadrupole Moments (Debye-Ang)
        XX     -90.2930     XY       0.0796     YY    -105.2908
        XZ      -0.5273     YZ       2.2799     ZZ    -111.7332
    Octopole Moments (Debye-Ang^2)
       XXX      -9.0999    XXY      18.0647    XYY      13.0584
       YYY     -22.1797    XXZ      20.4141    XYZ      -8.4227
       YYZ      15.9175    XZZ     -25.5089    YZZ      -4.0806
       ZZZ      61.7379
    Hexadecapole Moments (Debye-Ang^3)
      XXXX   -6335.2082   XXXY      44.3999   XXYY   -1330.0836
      XYYY     172.7329   YYYY    -676.9256   XXXZ     -69.8626
      XXYZ       1.2956   XYYZ     -67.5583   YYYZ     -40.6375
      XXZZ   -1323.3121   XYZZ      23.7713   YYZZ    -194.9148
      XZZZ    -173.9206   YZZZ     -43.0314   ZZZZ    -420.9749
 -----------------------------------------------------------------
 Calculating analytic gradient of the SCF energy
 Gradient of SCF Energy
            1           2           3           4           5           6
    1  -0.0000063  -0.0000053  -0.0000827  -0.0000614   0.0000707   0.0000308
    2  -0.0000073   0.0000090  -0.0000243   0.0000202  -0.0000668  -0.0000226
    3  -0.0000119  -0.0000165  -0.0000052   0.0000122  -0.0000031   0.0000402
            7           8           9          10          11          12
    1   0.0000013   0.0000026  -0.0000070  -0.0001236  -0.0000796   0.0001624
    2  -0.0000010   0.0000815  -0.0000680   0.0000638   0.0000136   0.0003655
    3  -0.0000305   0.0000613   0.0000551   0.0000465  -0.0002528  -0.0005431
           13          14          15          16          17          18
    1  -0.0000104  -0.0000642   0.0007058  -0.0004647   0.0001070  -0.0004551
    2  -0.0002209   0.0000651  -0.0010897   0.0024621   0.0002088  -0.0023719
    3   0.0024388  -0.0002170  -0.0022612   0.0007471  -0.0000760   0.0004411
           19          20          21          22          23
    1  -0.0000489   0.0000652   0.0002492  -0.0000084   0.0000226
    2   0.0005064   0.0003260  -0.0001033  -0.0000577  -0.0000888
    3  -0.0004092  -0.0000267  -0.0000595   0.0000821  -0.0000117
 Max gradient component =       2.462E-03
 RMS gradient           =       6.255E-04
 Gradient time:  CPU 4.56 s  wall 4.57 s
 Geometry Optimization Parameters
   NAtoms,    NIC,     NZ,  NCons,   NDum,   NFix, NCnnct, MaxDiis
       23     166       0       1       0       0       0       0

 Cartesian Hessian Update
 Hessian Updated using BFGS Update


** CONSTRAINED OPTIMIZATION IN DELOCALIZED INTERNAL COORDINATES **
   Searching for a Minimum

   Optimization Cycle:   3

                       Coordinates (Angstroms)
     ATOM                X               Y               Z
      1  H         6.2259135964   -0.2540602491    0.2510201663
      2  H         5.3245019358    2.2054306459   -0.0752403825
      3  C         5.1962377114    0.0545634142    0.1336146373
      4  C         4.6999606166    1.3203048041   -0.0361098449
      5  S         3.9309492600   -1.1317539003    0.1512342888
      6  C         3.2817526176    1.3446673674   -0.1689417091
      7  H         2.7096079122    2.2510951951   -0.3331434031
      8  C         2.6998649699    0.0951121700   -0.0964105814
      9  H         1.3282675128   -2.3740810201   -0.7084418634
     10  C         1.2972377352   -0.2653386314   -0.1969861356
     11  C         0.7357541196   -1.4914991128   -0.4937808344
     12  S         0.0409695044    0.9263807694    0.0754188623
     13  C        -0.6850375652   -1.4817999727   -0.4966148171
     14  H        -1.2955811815   -2.3544985740   -0.6996623435
     15  C        -1.2290110533   -0.2493142565   -0.2140183934
     16  C        -2.6355547418    0.1344861784   -0.1125767668
     17  H        -2.8262866606    0.8690597429    1.9114908377
     18  C        -3.3122100213    0.6618116420    0.9645925967
     19  S        -3.7271957811   -0.0866552148   -1.4688864067
     20  C        -4.6975487704    0.8861318307    0.7100195337
     21  C        -5.0694319116    0.5210610429   -0.5580057068
     22  H        -5.3888268633    1.2868130752    1.4427869179
     23  H        -6.0516353019    0.5717807736   -1.0082275122
   Point Group: c1    Number of degrees of freedom:    63


   Energy is  -1656.662177531

              Constraints and their Current Values
                                        Value     Constraint
   Dihedral:       13  15  16  18      120.000      120.000
 Hessian Updated using BFGS Update

 55 Hessian modes will be used to form the next step
  Hessian Eigenvalues:
     0.016804    0.045000    0.045001    0.045001    0.045003    0.045004
     0.045009    0.045009    0.045014    0.045018    0.046030    0.051827
     0.159424    0.159918    0.159952    0.159958    0.159992    0.159999
     0.160145    0.160983    0.221282    0.222092    0.226842    0.237794
     0.240814    0.249255    0.249962    0.249998    0.250088    0.272520
     0.292669    0.293670    0.294556    0.295057    0.312570    0.312976
     0.354733    0.354741    0.354748    0.354808    0.355164    0.355164
     0.358372    0.358493    0.382963    0.405273    0.406933    0.409631
     0.417634    0.459400    0.462030    0.473322    0.490330    0.497271
     0.499091

 Minimum Search - Taking Simple RFO Step
 Searching for Lamda that Minimizes Along All modes
 Value Taken    Lamda =  -0.00004636
 Step Taken.  Stepsize is  0.048280

                             Maximum     Tolerance    Cnvgd?
         Gradient           0.000549      0.000300      NO
         Displacement       0.017118      0.001200      NO
         Energy change     -0.000076      0.000001      NO


 New Cartesian Coordinates Obtained by Inverse Iteration

 Displacement from previous Coordinates is:  0.159108
 ----------------------------------------------------------------
             Standard Nuclear Orientation (Angstroms)
    I     Atom           X                Y                Z
 ----------------------------------------------------------------
    1      H       6.2234955070    -0.2624082545     0.2687028163
    2      H       5.3307349655     2.1993045598    -0.0639693727
    3      C       5.1953262023     0.0490069668     0.1455095759
    4      C       4.7034997754     1.3159758408    -0.0277595707
    5      S       3.9263460038    -1.1335108478     0.1571866799
    6      C       3.2858780273     1.3441926749    -0.1679643263
    7      H       2.7171145361     2.2521833668    -0.3352848193
    8      C       2.7000722816     0.0964048274    -0.0975586044
    9      H       1.3264007112    -2.3693766590    -0.7140959385
   10      C       1.2966091887    -0.2603532890    -0.2049528714
   11      C       0.7343504265    -1.4854583727    -0.5040853843
   12      S       0.0413171711     0.9331512971     0.0626606358
   13      C      -0.6868987626    -1.4734681629    -0.5116633257
   14      H      -1.2987720671    -2.3468122553    -0.7075161212
   15      C      -1.2294467267    -0.2395483215    -0.2321688863
   16      C      -2.6354217812     0.1439305527    -0.1233366552
   17      H      -2.8109006126     0.8905551121     1.8974020098
   18      C      -3.3044788898     0.6768224693     0.9559746001
   19      S      -3.7408755792    -0.1047803468    -1.4628534555
   20      C      -4.6949858667     0.8857388696     0.7147964377
   21      C      -5.0780857261     0.5028357761    -0.5445548666
   22      H      -5.3820698904     1.2866682416     1.4512534536
   23      H      -6.0665112539     0.5386436747    -0.9825908708
 ----------------------------------------------------------------
 Nuclear Repulsion Energy =  1171.9978297521 hartrees
 There are       64 alpha and       64 beta electrons
 Applying Cartesian multipole field
    Component          Value
    ---------          -----
     (2,0,0)        1.00000E-12
     (0,2,0)        2.00000E-11
     (0,0,2)       -3.00000E-11
 Nucleus-field energy     =     0.0000000073 hartrees
 Requested basis set is 6-31++G(d,p)
 There are 110 shells and 345 basis functions
 A cutoff of  1.0D-12 yielded   4684 shell pairs
 There are     47679 function pairs

 Q-Chem warning in module /project/projectdirs/jcesr/qchem/qc44/cnl_qc441/compile/cori/qc_src/libqints/qchem/aobasis.C, line 68:

 Using reconstructed effective core potential

 Smallest overlap matrix eigenvalue = 8.82E-08
 Linear dependence detected in AO basis
 Number of orthogonalized atomic orbitals = 343
 Maximum deviation from orthogonality = 1.215E-10
 Guess MOs from SCF MO coefficient file
 Reading MOs from coefficient file
 Reading MOs from coefficient file
 A restricted hybrid HF-DFT SCF calculation will be
 performed using Pulay DIIS extrapolation
 Exchange:     0.2000 Hartree-Fock + 0.0800 Slater + 0.7200 B88
 Correlation:  0.1900 VWN1RPA + 0.8100 LYP
 Using SG-1 standard quadrature grid
 SCF converges when DIIS error is below 1.0E-08
 Geometry optimization detected.  Setting ReadMinima to 0
 Setting SaveMinima to 0
 ---------------------------------------
  Cycle       Energy         DIIS Error
 ---------------------------------------
    1   -1656.6631650582      4.08E-04
    2   -1656.6621519892      5.54E-05
    3   -1656.6619897728      1.16E-04
    4   -1656.6622060356      1.54E-05
    5   -1656.6622091972      6.69E-06
    6   -1656.6622098682      1.91E-06
    7   -1656.6622099218      6.69E-07
    8   -1656.6622099297      2.37E-07
    9   -1656.6622099301      6.61E-08
   10   -1656.6622099292      2.44E-08
   11   -1656.6622099281      1.10E-08
   12   -1656.6622099295      3.12E-09 Convergence criterion met
 ---------------------------------------
 SCF time:  CPU 13.10 s  wall 12.06 s
 SCF   energy in the final basis set = -1656.6622099295
 Total energy in the final basis set = -1656.6622099295
 
 --------------------------------------------------------------
 
                    Orbital Energies (a.u.)
 --------------------------------------------------------------
 
 Alpha MOs
 -- Occupied --
-88.921 -88.921 -88.921 -10.241 -10.240 -10.239 -10.238 -10.226
-10.226 -10.206 -10.206 -10.205 -10.205 -10.205 -10.205  -7.980
 -7.980  -7.980  -5.945  -5.944  -5.944  -5.941  -5.941  -5.941
 -5.938  -5.938  -5.937  -0.906  -0.892  -0.876  -0.786  -0.754
 -0.745  -0.744  -0.733  -0.697  -0.616  -0.595  -0.569  -0.561
 -0.537  -0.534  -0.528  -0.501  -0.462  -0.422  -0.420  -0.416
 -0.415  -0.407  -0.402  -0.401  -0.384  -0.376  -0.370  -0.359
 -0.351  -0.345  -0.286  -0.266  -0.262  -0.260  -0.246  -0.209
 -- Virtual --
 -0.064  -0.033  -0.008  -0.007  -0.003   0.002   0.007   0.009
  0.012   0.018   0.023   0.026   0.030   0.033   0.037   0.042
  0.045   0.050   0.051   0.055   0.058   0.063   0.068   0.077
  0.084   0.087   0.089   0.095   0.101   0.105   0.107   0.110
  0.112   0.116   0.120   0.122   0.126   0.127   0.129   0.132
  0.134   0.141   0.142   0.145   0.147   0.150   0.152   0.157
  0.160   0.161   0.170   0.171   0.177   0.183   0.186   0.189
  0.193   0.198   0.206   0.209   0.213   0.215   0.220   0.222
  0.227   0.230   0.235   0.245   0.249   0.255   0.259   0.260
  0.266   0.268   0.270   0.278   0.281   0.291   0.293   0.298
  0.312   0.320   0.327   0.332   0.338   0.350   0.354   0.361
  0.366   0.374   0.379   0.394   0.401   0.455   0.457   0.464
  0.495   0.505   0.520   0.529   0.534   0.555   0.572   0.576
  0.583   0.599   0.613   0.625   0.628   0.648   0.656   0.659
  0.663   0.666   0.678   0.687   0.703   0.714   0.714   0.721
  0.726   0.731   0.736   0.750   0.756   0.773   0.782   0.787
  0.794   0.801   0.814   0.823   0.832   0.834   0.846   0.872
  0.896   0.931   0.935   0.936   0.954   0.960   0.960   0.963
  0.966   0.971   0.982   0.984   0.994   0.995   1.006   1.024
  1.028   1.041   1.048   1.058   1.079   1.087   1.097   1.107
  1.110   1.126   1.154   1.161   1.172   1.187   1.202   1.214
  1.252   1.260   1.265   1.293   1.311   1.329   1.346   1.350
  1.354   1.361   1.367   1.387   1.443   1.453   1.480   1.499
  1.511   1.532   1.546   1.555   1.601   1.682   1.693   1.720
  1.762   1.792   1.834   1.860   1.872   1.882   1.893   1.904
  1.919   1.923   1.953   1.960   1.993   2.003   2.024   2.059
  2.076   2.086   2.101   2.120   2.148   2.175   2.181   2.188
  2.201   2.233   2.240   2.259   2.281   2.295   2.333   2.364
  2.368   2.420   2.435   2.444   2.453   2.460   2.467   2.484
  2.502   2.520   2.530   2.534   2.551   2.581   2.591   2.599
  2.622   2.662   2.677   2.701   2.710   2.735   2.804   2.858
  2.870   2.887   2.913   2.937   2.942   3.135   3.172   3.208
  3.270   3.272   3.326   3.413   3.415   3.674   3.730   3.736
  3.973   3.976   3.982   4.256   4.281   4.305   4.319   4.328
  4.355   4.399   4.481   4.547   4.646   4.693   4.724
 --------------------------------------------------------------
 
          Ground-State Mulliken Net Atomic Charges

     Atom                 Charge (a.u.)
  ----------------------------------------
      1 H                     0.196175
      2 H                     0.119276
      3 C                     0.035184
      4 C                    -0.413261
      5 S                    -0.114801
      6 C                     0.538582
      7 H                     0.127192
      8 C                    -0.464019
      9 H                     0.120535
     10 C                    -0.024635
     11 C                    -0.177679
     12 S                    -0.101443
     13 C                     0.170216
     14 H                     0.132907
     15 C                    -0.160641
     16 C                    -0.509510
     17 H                     0.143248
     18 C                     0.380596
     19 S                     0.018259
     20 C                    -0.366455
     21 C                     0.037704
     22 H                     0.118759
     23 H                     0.193811
  ----------------------------------------
  Sum of atomic charges =     0.000000

 -----------------------------------------------------------------
                    Cartesian Multipole Moments
 -----------------------------------------------------------------
    Charge (ESU x 10^10)
                 0.0000
    Dipole Moment (Debye)
         X      -0.0550      Y       0.1740      Z       0.3484
       Tot       0.3933
    Quadrupole Moments (Debye-Ang)
        XX     -90.2384     XY       0.1944     YY    -105.3069
        XZ      -0.5318     YZ       2.3208     ZZ    -111.7942
    Octopole Moments (Debye-Ang^2)
       XXX      -9.2333    XXY      17.2135    XYY      13.3543
       YYY     -22.0347    XXZ      21.2955    XYZ      -8.7145
       YYZ      16.1897    XZZ     -24.9491    YZZ      -4.0908
       ZZZ      62.3253
    Hexadecapole Moments (Debye-Ang^3)
      XXXX   -6336.3682   XXXY      46.9072   XXYY   -1331.9225
      XYYY     169.9013   YYYY    -676.5416   XXXZ     -71.2004
      XXYZ       2.2940   XYYZ     -68.4500   YYYZ     -42.4453
      XXZZ   -1325.8078   XYZZ      23.2653   YYZZ    -194.4724
      XZZZ    -177.1385   YZZZ     -44.6441   ZZZZ    -420.6156
 -----------------------------------------------------------------
 Calculating analytic gradient of the SCF energy
 Gradient of SCF Energy
            1           2           3           4           5           6
    1   0.0000092   0.0000022  -0.0000224   0.0000587   0.0000115  -0.0000561
    2   0.0000050  -0.0000053  -0.0000299   0.0000104   0.0000643  -0.0000987
    3  -0.0000065  -0.0000068   0.0000107  -0.0000003  -0.0000236   0.0000090
            7           8           9          10          11          12
    1   0.0000011   0.0002078   0.0000043  -0.0004020   0.0003895   0.0000503
    2   0.0000032  -0.0000199  -0.0000192   0.0001379   0.0000681   0.0000178
    3  -0.0000121   0.0001420   0.0001346   0.0000377  -0.0003272  -0.0004027
           13          14          15          16          17          18
    1  -0.0003403  -0.0001046   0.0007622  -0.0003582   0.0000892  -0.0001277
    2  -0.0001671   0.0000556  -0.0010681   0.0029136  -0.0001240  -0.0021425
    3   0.0021953   0.0001020  -0.0026512   0.0006029  -0.0000242   0.0004251
           19          20          21          22          23
    1  -0.0000463  -0.0002977   0.0002768  -0.0000247  -0.0000828
    2   0.0003056   0.0003411   0.0000039  -0.0001450  -0.0001066
    3   0.0000139  -0.0001272  -0.0002291   0.0000368   0.0001010
 Max gradient component =       2.914E-03
 RMS gradient           =       6.454E-04
 Gradient time:  CPU 4.56 s  wall 4.57 s
 Geometry Optimization Parameters
   NAtoms,    NIC,     NZ,  NCons,   NDum,   NFix, NCnnct, MaxDiis
       23     166       0       1       0       0       0       0

 Cartesian Hessian Update
 Hessian Updated using BFGS Update


** CONSTRAINED OPTIMIZATION IN DELOCALIZED INTERNAL COORDINATES **
   Searching for a Minimum

   Optimization Cycle:   4

                       Coordinates (Angstroms)
     ATOM                X               Y               Z
      1  H         6.2234955070   -0.2624082545    0.2687028163
      2  H         5.3307349655    2.1993045598   -0.0639693727
      3  C         5.1953262023    0.0490069668    0.1455095759
      4  C         4.7034997754    1.3159758408   -0.0277595707
      5  S         3.9263460038   -1.1335108478    0.1571866799
      6  C         3.2858780273    1.3441926749   -0.1679643263
      7  H         2.7171145361    2.2521833668   -0.3352848193
      8  C         2.7000722816    0.0964048274   -0.0975586044
      9  H         1.3264007112   -2.3693766590   -0.7140959385
     10  C         1.2966091887   -0.2603532890   -0.2049528714
     11  C         0.7343504265   -1.4854583727   -0.5040853843
     12  S         0.0413171711    0.9331512971    0.0626606358
     13  C        -0.6868987626   -1.4734681629   -0.5116633257
     14  H        -1.2987720671   -2.3468122553   -0.7075161212
     15  C        -1.2294467267   -0.2395483215   -0.2321688863
     16  C        -2.6354217812    0.1439305527   -0.1233366552
     17  H        -2.8109006126    0.8905551121    1.8974020098
     18  C        -3.3044788898    0.6768224693    0.9559746001
     19  S        -3.7408755792   -0.1047803468   -1.4628534555
     20  C        -4.6949858667    0.8857388696    0.7147964377
     21  C        -5.0780857261    0.5028357761   -0.5445548666
     22  H        -5.3820698904    1.2866682416    1.4512534536
     23  H        -6.0665112539    0.5386436747   -0.9825908708
   Point Group: c1    Number of degrees of freedom:    63


   Energy is  -1656.662209930

              Constraints and their Current Values
                                        Value     Constraint
   Dihedral:       13  15  16  18      120.000      120.000
 Hessian Updated using BFGS Update

 60 Hessian modes will be used to form the next step
  Hessian Eigenvalues:
     0.010133    0.045000    0.045000    0.045000    0.045000    0.045001
     0.045001    0.045001    0.045002    0.045003    0.045004    0.045009
     0.045014    0.045018    0.045109    0.047689    0.049973    0.159916
     0.159950    0.159958    0.159992    0.159999    0.160117    0.160289
     0.161554    0.221283    0.221992    0.226841    0.238008    0.241261
     0.249939    0.249984    0.250039    0.251476    0.270038    0.293636
     0.293994    0.294894    0.295510    0.312570    0.313116    0.354741
     0.354747    0.354763    0.354828    0.355164    0.355251    0.358372
     0.358527    0.384003    0.397192    0.405891    0.409252    0.429741
     0.459005    0.462038    0.465272    0.487607    0.497272    0.499288

 Minimum Search - Taking Simple RFO Step
 Searching for Lamda that Minimizes Along All modes
 Value Taken    Lamda =  -0.00003018
 Step Taken.  Stepsize is  0.046805

                             Maximum     Tolerance    Cnvgd?
         Gradient           0.000543      0.000300      NO
         Displacement       0.018769      0.001200      NO
         Energy change     -0.000032      0.000001      NO


 New Cartesian Coordinates Obtained by Inverse Iteration

 Displacement from previous Coordinates is:  0.140604
 ----------------------------------------------------------------
             Standard Nuclear Orientation (Angstroms)
    I     Atom           X                Y                Z
 ----------------------------------------------------------------
    1      H       6.2208062650    -0.2681875156     0.2815993081
    2      H       5.3334198628     2.1950976128    -0.0539822884
    3      C       5.1936525684     0.0449657807     0.1544964071
    4      C       4.7045953604     1.3127958329    -0.0204078573
    5      S       3.9226500911    -1.1355278926     0.1614389775
    6      C       3.2875619324     1.3434632377    -0.1657444227
    7      H       2.7208346814     2.2524447506    -0.3345656506
    8      C       2.6995525223     0.0965549475    -0.0975822402
    9      H       1.3234900007    -2.3663432094    -0.7204952762
   10      C       1.2959672673    -0.2577715065    -0.2095030869
   11      C       0.7323754394    -1.4815427490    -0.5115866351
   12      S       0.0419208675     0.9376041623     0.0560587185
   13      C      -0.6885568537    -1.4668521723    -0.5249448472
   14      H      -1.3008510085    -2.3403114476    -0.7188857769
   15      C      -1.2298991534    -0.2311657597    -0.2482555613
   16      C      -2.6341082217     0.1522325283    -0.1332820532
   17      H      -2.7966753375     0.9142401425     1.8836823200
   18      C      -3.2967381394     0.6904727024     0.9480385623
   19      S      -3.7516530241    -0.1229837879    -1.4571258762
   20      C      -4.6909448234     0.8854403378     0.7189402488
   21      C      -5.0841781850     0.4851995540    -0.5318919472
   22      H      -5.3734437439     1.2902659096     1.4575365096
   23      H      -6.0770807283     0.5096062615    -0.9604063925
 ----------------------------------------------------------------
 Nuclear Repulsion Energy =  1172.0348066522 hartrees
 There are       64 alpha and       64 beta electrons
 Applying Cartesian multipole field
    Component          Value
    ---------          -----
     (2,0,0)        1.00000E-12
     (0,2,0)        2.00000E-11
     (0,0,2)       -3.00000E-11
 Nucleus-field energy     =     0.0000000074 hartrees
 Requested basis set is 6-31++G(d,p)
 There are 110 shells and 345 basis functions
 A cutoff of  1.0D-12 yielded   4685 shell pairs
 There are     47703 function pairs

 Q-Chem warning in module /project/projectdirs/jcesr/qchem/qc44/cnl_qc441/compile/cori/qc_src/libqints/qchem/aobasis.C, line 68:

 Using reconstructed effective core potential

 Smallest overlap matrix eigenvalue = 8.81E-08
 Linear dependence detected in AO basis
 Number of orthogonalized atomic orbitals = 343
 Maximum deviation from orthogonality = 1.576E-10
 Guess MOs from SCF MO coefficient file
 Reading MOs from coefficient file
 Reading MOs from coefficient file
 A restricted hybrid HF-DFT SCF calculation will be
 performed using Pulay DIIS extrapolation
 Exchange:     0.2000 Hartree-Fock + 0.0800 Slater + 0.7200 B88
 Correlation:  0.1900 VWN1RPA + 0.8100 LYP
 Using SG-1 standard quadrature grid
 SCF converges when DIIS error is below 1.0E-08
 Geometry optimization detected.  Setting ReadMinima to 0
 Setting SaveMinima to 0
 ---------------------------------------
  Cycle       Energy         DIIS Error
 ---------------------------------------
    1   -1656.6627932645      3.72E-04
    2   -1656.6621892202      4.56E-05
    3   -1656.6620762515      9.63E-05
    4   -1656.6622269596      1.28E-05
    5   -1656.6622291050      5.65E-06
    6   -1656.6622295752      1.80E-06
    7   -1656.6622296238      6.07E-07
    8   -1656.6622296295      2.14E-07
    9   -1656.6622296310      6.33E-08
   10   -1656.6622296288      2.23E-08
   11   -1656.6622296287      9.83E-09 Convergence criterion met
 ---------------------------------------
 SCF time:  CPU 12.13 s  wall 11.17 s
 SCF   energy in the final basis set = -1656.6622296287
 Total energy in the final basis set = -1656.6622296287
 
 --------------------------------------------------------------
 
                    Orbital Energies (a.u.)
 --------------------------------------------------------------
 
 Alpha MOs
 -- Occupied --
-88.921 -88.921 -88.921 -10.241 -10.240 -10.239 -10.238 -10.226
-10.226 -10.206 -10.206 -10.205 -10.205 -10.205 -10.205  -7.980
 -7.980  -7.980  -5.945  -5.945  -5.944  -5.941  -5.941  -5.941
 -5.938  -5.938  -5.937  -0.906  -0.892  -0.876  -0.786  -0.754
 -0.745  -0.744  -0.733  -0.697  -0.616  -0.595  -0.569  -0.561
 -0.537  -0.535  -0.528  -0.501  -0.462  -0.422  -0.420  -0.416
 -0.415  -0.407  -0.402  -0.401  -0.384  -0.376  -0.370  -0.359
 -0.351  -0.345  -0.287  -0.266  -0.262  -0.260  -0.246  -0.209
 -- Virtual --
 -0.065  -0.033  -0.008  -0.007  -0.003   0.002   0.007   0.009
  0.012   0.018   0.023   0.026   0.030   0.033   0.037   0.042
  0.045   0.050   0.051   0.055   0.058   0.063   0.068   0.077
  0.085   0.087   0.089   0.095   0.101   0.105   0.107   0.110
  0.112   0.116   0.120   0.122   0.126   0.127   0.129   0.132
  0.134   0.141   0.142   0.145   0.147   0.150   0.152   0.157
  0.160   0.161   0.170   0.171   0.176   0.183   0.186   0.188
  0.193   0.198   0.205   0.210   0.213   0.215   0.220   0.222
  0.227   0.230   0.235   0.245   0.249   0.255   0.259   0.260
  0.266   0.268   0.270   0.278   0.281   0.291   0.293   0.298
  0.312   0.320   0.327   0.332   0.339   0.350   0.354   0.361
  0.366   0.374   0.379   0.394   0.401   0.455   0.457   0.464
  0.496   0.505   0.521   0.530   0.534   0.555   0.572   0.576
  0.583   0.598   0.613   0.625   0.628   0.649   0.656   0.659
  0.663   0.667   0.678   0.686   0.702   0.713   0.714   0.721
  0.726   0.731   0.736   0.750   0.757   0.773   0.782   0.787
  0.794   0.801   0.815   0.823   0.833   0.834   0.846   0.872
  0.896   0.931   0.935   0.936   0.954   0.959   0.960   0.963
  0.966   0.971   0.982   0.984   0.993   0.995   1.006   1.024
  1.028   1.041   1.048   1.058   1.079   1.086   1.097   1.107
  1.109   1.125   1.153   1.161   1.172   1.187   1.203   1.214
  1.253   1.260   1.265   1.293   1.312   1.329   1.346   1.350
  1.353   1.361   1.366   1.387   1.442   1.453   1.479   1.499
  1.511   1.533   1.546   1.556   1.600   1.682   1.692   1.719
  1.760   1.792   1.834   1.860   1.871   1.882   1.893   1.904
  1.919   1.924   1.953   1.960   1.992   2.004   2.025   2.059
  2.076   2.087   2.101   2.119   2.149   2.175   2.181   2.188
  2.201   2.233   2.240   2.259   2.280   2.296   2.333   2.364
  2.368   2.420   2.436   2.444   2.453   2.460   2.467   2.484
  2.501   2.520   2.530   2.534   2.551   2.581   2.592   2.600
  2.622   2.662   2.677   2.701   2.710   2.736   2.804   2.858
  2.870   2.886   2.913   2.936   2.942   3.135   3.172   3.208
  3.270   3.272   3.326   3.413   3.415   3.674   3.730   3.736
  3.973   3.977   3.982   4.256   4.281   4.305   4.319   4.328
  4.354   4.399   4.481   4.547   4.646   4.693   4.724
 --------------------------------------------------------------
 
          Ground-State Mulliken Net Atomic Charges

     Atom                 Charge (a.u.)
  ----------------------------------------
      1 H                     0.196140
      2 H                     0.119296
      3 C                     0.035264
      4 C                    -0.412487
      5 S                    -0.114506
      6 C                     0.538128
      7 H                     0.127236
      8 C                    -0.460270
      9 H                     0.120441
     10 C                    -0.035297
     11 C                    -0.171651
     12 S                    -0.104384
     13 C                     0.169085
     14 H                     0.133366
     15 C                    -0.156453
     16 C                    -0.500903
     17 H                     0.143062
     18 C                     0.374241
     19 S                     0.016926
     20 C                    -0.366536
     21 C                     0.037048
     22 H                     0.118594
     23 H                     0.193660
  ----------------------------------------
  Sum of atomic charges =     0.000000

 -----------------------------------------------------------------
                    Cartesian Multipole Moments
 -----------------------------------------------------------------
    Charge (ESU x 10^10)
                 0.0000
    Dipole Moment (Debye)
         X      -0.0550      Y       0.1653      Z       0.3652
       Tot       0.4046
    Quadrupole Moments (Debye-Ang)
        XX     -90.2350     XY       0.2651     YY    -105.3004
        XZ      -0.5279     YZ       2.3864     ZZ    -111.8416
    Octopole Moments (Debye-Ang^2)
       XXX      -9.2245    XXY      16.6630    XYY      13.5160
       YYY     -21.6359    XXZ      21.8867    XYZ      -8.9864
       YYZ      16.3563    XZZ     -24.4712    YZZ      -4.0205
       ZZZ      62.5788
    Hexadecapole Moments (Debye-Ang^3)
      XXXX   -6336.5697   XXXY      48.2274   XXYY   -1332.5866
      XYYY     166.8795   YYYY    -676.4685   XXXZ     -72.3637
      XXYZ       3.2509   XYYZ     -69.1996   YYYZ     -44.2525
      XXZZ   -1327.4261   XYZZ      22.6472   YYZZ    -194.0084
      XZZZ    -179.6540   YZZZ     -46.4190   ZZZZ    -420.1470
 -----------------------------------------------------------------
 Calculating analytic gradient of the SCF energy
 Gradient of SCF Energy
            1           2           3           4           5           6
    1  -0.0000007  -0.0000043  -0.0000332   0.0000403  -0.0000348  -0.0000641
    2   0.0000026  -0.0000017  -0.0000202   0.0000197   0.0000151  -0.0000586
    3   0.0000027   0.0000007   0.0000034  -0.0000176  -0.0000112  -0.0000224
            7           8           9          10          11          12
    1   0.0000033   0.0002329  -0.0000049  -0.0003496   0.0003073  -0.0000262
    2   0.0000132  -0.0000582  -0.0000115   0.0001394   0.0000331  -0.0000658
    3   0.0000092   0.0001312   0.0001195  -0.0000693  -0.0001860  -0.0000884
           13          14          15          16          17          18
    1  -0.0002028  -0.0000455   0.0000838   0.0004190  -0.0000023  -0.0003098
    2  -0.0004187  -0.0000175  -0.0006183   0.0032214  -0.0002404  -0.0020358
    3   0.0021528   0.0002528  -0.0031529   0.0001697   0.0000566   0.0006996
           19          20          21          22          23
    1   0.0000210  -0.0001803   0.0002335  -0.0000156  -0.0000666
    2   0.0000363   0.0001955   0.0000544  -0.0001002  -0.0000838
    3   0.0000529  -0.0000571  -0.0001846   0.0000203   0.0001185
 Max gradient component =       3.221E-03
 RMS gradient           =       6.726E-04
 Gradient time:  CPU 4.68 s  wall 4.60 s
 Geometry Optimization Parameters
   NAtoms,    NIC,     NZ,  NCons,   NDum,   NFix, NCnnct, MaxDiis
       23     166       0       1       0       0       0       0

 Cartesian Hessian Update
 Hessian Updated using BFGS Update


** CONSTRAINED OPTIMIZATION IN DELOCALIZED INTERNAL COORDINATES **
   Searching for a Minimum

   Optimization Cycle:   5

                       Coordinates (Angstroms)
     ATOM                X               Y               Z
      1  H         6.2208062650   -0.2681875156    0.2815993081
      2  H         5.3334198628    2.1950976128   -0.0539822884
      3  C         5.1936525684    0.0449657807    0.1544964071
      4  C         4.7045953604    1.3127958329   -0.0204078573
      5  S         3.9226500911   -1.1355278926    0.1614389775
      6  C         3.2875619324    1.3434632377   -0.1657444227
      7  H         2.7208346814    2.2524447506   -0.3345656506
      8  C         2.6995525223    0.0965549475   -0.0975822402
      9  H         1.3234900007   -2.3663432094   -0.7204952762
     10  C         1.2959672673   -0.2577715065   -0.2095030869
     11  C         0.7323754394   -1.4815427490   -0.5115866351
     12  S         0.0419208675    0.9376041623    0.0560587185
     13  C        -0.6885568537   -1.4668521723   -0.5249448472
     14  H        -1.3008510085   -2.3403114476   -0.7188857769
     15  C        -1.2298991534   -0.2311657597   -0.2482555613
     16  C        -2.6341082217    0.1522325283   -0.1332820532
     17  H        -2.7966753375    0.9142401425    1.8836823200
     18  C        -3.2967381394    0.6904727024    0.9480385623
     19  S        -3.7516530241   -0.1229837879   -1.4571258762
     20  C        -4.6909448234    0.8854403378    0.7189402488
     21  C        -5.0841781850    0.4851995540   -0.5318919472
     22  H        -5.3734437439    1.2902659096    1.4575365096
     23  H        -6.0770807283    0.5096062615   -0.9604063925
   Point Group: c1    Number of degrees of freedom:    63


   Energy is  -1656.662229629

              Constraints and their Current Values
                                        Value     Constraint
   Dihedral:       13  15  16  18      120.000      120.000
 Hessian Updated using BFGS Update

 59 Hessian modes will be used to form the next step
  Hessian Eigenvalues:
     0.008398    0.041462    0.045000    0.045000    0.045000    0.045000
     0.045001    0.045001    0.045002    0.045003    0.045003    0.045005
     0.045014    0.045019    0.045549    0.050653    0.159202    0.159922
     0.159950    0.159959    0.159996    0.160002    0.160338    0.160670
     0.221285    0.221950    0.226855    0.238055    0.241455    0.249691
     0.249975    0.250077    0.250435    0.267699    0.293637    0.293801
     0.294726    0.295519    0.312575    0.312930    0.354741    0.354743
     0.354756    0.354831    0.355164    0.355241    0.358373    0.358526
     0.383875    0.395097    0.405833    0.409391    0.425487    0.458997
     0.462010    0.463526    0.485154    0.497279    0.498321

 Minimum Search - Taking Simple RFO Step
 Searching for Lamda that Minimizes Along All modes
 Value Taken    Lamda =  -0.00001054
 Step Taken.  Stepsize is  0.025518

                             Maximum     Tolerance    Cnvgd?
         Gradient           0.000275      0.000300     YES
         Displacement       0.011076      0.001200      NO
         Energy change     -0.000020      0.000001      NO


 New Cartesian Coordinates Obtained by Inverse Iteration

 Displacement from previous Coordinates is:  0.064230
 ----------------------------------------------------------------
             Standard Nuclear Orientation (Angstroms)
    I     Atom           X                Y                Z
 ----------------------------------------------------------------
    1      H       6.2204645338    -0.2696388259     0.2858874527
    2      H       5.3339155396     2.1938713987    -0.0500942997
    3      C       5.1935134455     0.0437870987     0.1578040359
    4      C       4.7048325391     1.3117193633    -0.0173124668
    5      S       3.9221567987    -1.1363972262     0.1632461112
[...]
    3   -1656.6622386831      1.16E-06
    4   -1656.6622387042      2.92E-07
    5   -1656.6622387048      1.50E-07
    6   -1656.6622387034      5.42E-08
    7   -1656.6622387039      2.24E-08
    8   -1656.6622387047      6.44E-09 Convergence criterion met
 ---------------------------------------
 SCF time:  CPU 8.68 s  wall 7.96 s
 SCF   energy in the final basis set = -1656.6622387047
 Total energy in the final basis set = -1656.6622387047
 
 --------------------------------------------------------------
 
                    Orbital Energies (a.u.)
 --------------------------------------------------------------
 
 Alpha MOs
 -- Occupied --
-88.921 -88.921 -88.921 -10.241 -10.240 -10.239 -10.238 -10.226
-10.226 -10.206 -10.206 -10.205 -10.205 -10.205 -10.205  -7.980
 -7.980  -7.980  -5.945  -5.944  -5.944  -5.941  -5.941  -5.941
 -5.938  -5.938  -5.937  -0.906  -0.892  -0.876  -0.786  -0.755
 -0.745  -0.744  -0.733  -0.697  -0.616  -0.595  -0.569  -0.561
 -0.537  -0.535  -0.528  -0.501  -0.462  -0.422  -0.420  -0.417
 -0.415  -0.407  -0.402  -0.401  -0.384  -0.376  -0.370  -0.359
 -0.351  -0.345  -0.287  -0.266  -0.262  -0.260  -0.246  -0.209
 -- Virtual --
 -0.065  -0.033  -0.008  -0.006  -0.002   0.002   0.007   0.009
  0.011   0.018   0.023   0.026   0.030   0.033   0.037   0.042
  0.046   0.050   0.051   0.055   0.058   0.063   0.068   0.077
  0.085   0.087   0.089   0.095   0.101   0.105   0.107   0.110
  0.112   0.116   0.120   0.122   0.126   0.127   0.129   0.132
  0.134   0.141   0.142   0.145   0.147   0.150   0.152   0.157
  0.160   0.161   0.170   0.171   0.176   0.183   0.186   0.188
  0.193   0.198   0.205   0.210   0.213   0.215   0.220   0.222
  0.227   0.230   0.235   0.245   0.249   0.255   0.259   0.260
  0.267   0.268   0.271   0.277   0.280   0.291   0.293   0.298
  0.312   0.320   0.327   0.332   0.339   0.350   0.354   0.361
  0.366   0.374   0.379   0.394   0.401   0.456   0.457   0.464
  0.496   0.506   0.521   0.530   0.534   0.555   0.572   0.576
  0.583   0.597   0.612   0.626   0.628   0.649   0.656   0.659
  0.663   0.667   0.678   0.686   0.701   0.713   0.714   0.721
  0.726   0.731   0.736   0.750   0.757   0.773   0.782   0.787
  0.794   0.801   0.815   0.823   0.833   0.834   0.846   0.872
  0.896   0.931   0.935   0.936   0.955   0.960   0.960   0.963
  0.966   0.971   0.982   0.984   0.993   0.995   1.006   1.024
  1.028   1.041   1.048   1.058   1.079   1.086   1.097   1.106
  1.109   1.124   1.153   1.161   1.171   1.187   1.203   1.213
  1.253   1.260   1.265   1.293   1.312   1.330   1.347   1.349
  1.354   1.361   1.366   1.387   1.442   1.453   1.479   1.500
  1.512   1.533   1.544   1.557   1.600   1.682   1.692   1.719
  1.759   1.793   1.834   1.859   1.871   1.882   1.893   1.904
  1.919   1.923   1.953   1.960   1.992   2.004   2.026   2.060
  2.075   2.089   2.101   2.118   2.149   2.175   2.182   2.188
  2.200   2.233   2.239   2.258   2.280   2.296   2.334   2.364
  2.367   2.420   2.435   2.444   2.453   2.460   2.467   2.484
  2.502   2.520   2.530   2.534   2.551   2.581   2.592   2.600
  2.622   2.662   2.677   2.700   2.710   2.736   2.804   2.858
  2.869   2.886   2.913   2.937   2.943   3.135   3.172   3.208
  3.270   3.272   3.326   3.413   3.415   3.674   3.730   3.736
  3.973   3.976   3.982   4.256   4.281   4.306   4.319   4.328
  4.354   4.399   4.481   4.547   4.646   4.693   4.724
 --------------------------------------------------------------
 
          Ground-State Mulliken Net Atomic Charges

     Atom                 Charge (a.u.)
  ----------------------------------------
      1 H                     0.196127
      2 H                     0.119328
      3 C                     0.035829
      4 C                    -0.412377
      5 S                    -0.114474
      6 C                     0.540941
      7 H                     0.127338
      8 C                    -0.458345
      9 H                     0.120727
     10 C                    -0.047237
     11 C                    -0.161685
     12 S                    -0.107056
     13 C                     0.164378
     14 H                     0.133408
     15 C                    -0.151013
     16 C                    -0.497339
     17 H                     0.142749
     18 C                     0.370786
     19 S                     0.016014
     20 C                    -0.367394
     21 C                     0.037109
     22 H                     0.118485
     23 H                     0.193701
  ----------------------------------------
  Sum of atomic charges =     0.000000

 -----------------------------------------------------------------
                    Cartesian Multipole Moments
 -----------------------------------------------------------------
    Charge (ESU x 10^10)
                 0.0000
    Dipole Moment (Debye)
         X      -0.0524      Y       0.1732      Z       0.3596
       Tot       0.4026
    Quadrupole Moments (Debye-Ang)
        XX     -90.2382     XY       0.2546     YY    -105.2874
        XZ      -0.5156     YZ       2.4565     ZZ    -111.8664
    Octopole Moments (Debye-Ang^2)
       XXX      -9.0897    XXY      16.7042    XYY      13.4870
       YYY     -21.0633    XXZ      21.8864    XYZ      -9.1736
       YYZ      16.2814    XZZ     -24.1948    YZZ      -3.8961
       ZZZ      62.2582
    Hexadecapole Moments (Debye-Ang^3)
      XXXX   -6338.4561   XXXY      47.5226   XXYY   -1332.9207
      XYYY     164.5966   YYYY    -676.4935   XXXZ     -72.7813
      XXYZ       3.7449   XYYZ     -69.6891   YYYZ     -45.3158
      XXZZ   -1328.6860   XYZZ      22.0923   YYZZ    -193.5320
      XZZZ    -180.8338   YZZZ     -47.6035   ZZZZ    -419.5944
 -----------------------------------------------------------------
 Calculating analytic gradient of the SCF energy
 Gradient of SCF Energy
            1           2           3           4           5           6
    1  -0.0000001   0.0000017   0.0000069  -0.0000036   0.0000019   0.0000062
    2  -0.0000030  -0.0000031   0.0000022  -0.0000055   0.0000003   0.0000052
    3   0.0000043  -0.0000048   0.0000010  -0.0000007  -0.0000027  -0.0000023
            7           8           9          10          11          12
    1   0.0000002  -0.0000259  -0.0000006   0.0000375  -0.0000406   0.0000024
    2  -0.0000032  -0.0000045   0.0000013  -0.0000041  -0.0000165   0.0000050
    3  -0.0000013   0.0000058  -0.0000147  -0.0000147   0.0000546  -0.0000009
           13          14          15          16          17          18
    1   0.0001049   0.0000028  -0.0005273   0.0010564  -0.0000091  -0.0006222
    2  -0.0005593  -0.0000099  -0.0005429   0.0035786  -0.0000117  -0.0024221
    3   0.0026006   0.0000262  -0.0036741   0.0001600   0.0000067   0.0008580
           19          20          21          22          23
    1  -0.0000007   0.0000202  -0.0000210   0.0000044   0.0000056
    2  -0.0000032  -0.0000461   0.0000053   0.0000372  -0.0000001
    3  -0.0000015   0.0000204   0.0000070  -0.0000162  -0.0000107
 Max gradient component =       3.674E-03
 RMS gradient           =       7.812E-04
 Gradient time:  CPU 4.58 s  wall 4.63 s
 Geometry Optimization Parameters
   NAtoms,    NIC,     NZ,  NCons,   NDum,   NFix, NCnnct, MaxDiis
       23     166       0       1       0       0       0       0

 Cartesian Hessian Update
 Hessian Updated using BFGS Update


** CONSTRAINED OPTIMIZATION IN DELOCALIZED INTERNAL COORDINATES **
   Searching for a Minimum

   Optimization Cycle:   8

                       Coordinates (Angstroms)
     ATOM                X               Y               Z
      1  H         6.2205074731   -0.2696361905    0.2867268264
      2  H         5.3336629792    2.1936833478   -0.0499410361
      3  C         5.1935002589    0.0436526737    0.1587708169
      4  C         4.7046576621    1.3114901949   -0.0166607367
      5  S         3.9223288582   -1.1367003418    0.1646833943
      6  C         3.2878284259    1.3424043101   -0.1633373583
      7  H         2.7213651666    2.2513514465   -0.3330986796
      8  C         2.6994374081    0.0955352920   -0.0957300384
      9  H         1.3213979624   -2.3653253008   -0.7267596971
     10  C         1.2961941741   -0.2585769300   -0.2082479976
     11  C         0.7311412526   -1.4808303021   -0.5139651536
     12  S         0.0427651300    0.9382175560    0.0561754339
     13  C        -0.6893171998   -1.4639239805   -0.5319286710
     14  H        -1.3015278179   -2.3357137375   -0.7335970626
     15  C        -1.2302865268   -0.2274588642   -0.2565282408
     16  C        -2.6333366020    0.1564190931   -0.1378868295
     17  H        -2.7884876765    0.9346412451    1.8740055354
     18  C        -3.2930369158    0.6976630478    0.9440308197
     19  S        -3.7579621310   -0.1347788370   -1.4525851969
     20  C        -4.6891352964    0.8845043654    0.7217558736
     21  C        -5.0882933776    0.4734106054   -0.5236590614
     22  H        -5.3682164670    1.2954344299    1.4601730632
     23  H        -6.0824891005    0.4942345967   -0.9492648639
   Point Group: c1    Number of degrees of freedom:    63


   Energy is  -1656.662238705

              Constraints and their Current Values
                                        Value     Constraint
   Dihedral:       13  15  16  18      120.000      120.000
 Hessian Updated using BFGS Update

 61 Hessian modes will be used to form the next step
  Hessian Eigenvalues:
     0.008628    0.018509    0.042119    0.045000    0.045000    0.045000
     0.045000    0.045001    0.045001    0.045002    0.045003    0.045005
     0.045009    0.045012    0.045014    0.045036    0.045745    0.049599
     0.158836    0.159904    0.159945    0.159962    0.159993    0.160018
     0.160324    0.160701    0.221393    0.222018    0.226865    0.238759
     0.242099    0.249022    0.249315    0.249993    0.250234    0.268085
     0.293376    0.293643    0.294698    0.295234    0.312588    0.312998
     0.354742    0.354747    0.354757    0.354837    0.355166    0.355239
     0.358383    0.358538    0.383797    0.392114    0.405967    0.409641
     0.424250    0.459090    0.461624    0.462873    0.483917    0.497142
     0.497842

 Minimum Search - Taking Simple RFO Step
 Searching for Lamda that Minimizes Along All modes
 Value Taken    Lamda =   0.00000000
 Step Taken.  Stepsize is  0.001809

                             Maximum     Tolerance    Cnvgd?
         Gradient           0.000035      0.000300     YES
         Displacement       0.000646      0.001200     YES
         Energy change     -0.000000      0.000001     YES

 Final energy is   -1656.66223870466     


 ******************************
 **  OPTIMIZATION CONVERGED  **
 ******************************

                       Coordinates (Angstroms)
     ATOM                X               Y               Z
      1  H         6.2205074731   -0.2696361905    0.2867268264
      2  H         5.3336629792    2.1936833478   -0.0499410361
      3  C         5.1935002589    0.0436526737    0.1587708169
      4  C         4.7046576621    1.3114901949   -0.0166607367
      5  S         3.9223288582   -1.1367003418    0.1646833943
      6  C         3.2878284259    1.3424043101   -0.1633373583
      7  H         2.7213651666    2.2513514465   -0.3330986796
      8  C         2.6994374081    0.0955352920   -0.0957300384
      9  H         1.3213979624   -2.3653253008   -0.7267596971
     10  C         1.2961941741   -0.2585769300   -0.2082479976
     11  C         0.7311412526   -1.4808303021   -0.5139651536
     12  S         0.0427651300    0.9382175560    0.0561754339
     13  C        -0.6893171998   -1.4639239805   -0.5319286710
     14  H        -1.3015278179   -2.3357137375   -0.7335970626
     15  C        -1.2302865268   -0.2274588642   -0.2565282408
     16  C        -2.6333366020    0.1564190931   -0.1378868295
     17  H        -2.7884876765    0.9346412451    1.8740055354
     18  C        -3.2930369158    0.6976630478    0.9440308197
     19  S        -3.7579621310   -0.1347788370   -1.4525851969
     20  C        -4.6891352964    0.8845043654    0.7217558736
     21  C        -5.0882933776    0.4734106054   -0.5236590614
     22  H        -5.3682164670    1.2954344299    1.4601730632
     23  H        -6.0824891005    0.4942345967   -0.9492648639

Z-matrix Print:
$molecule
0 1
S 
C  1 1.753089
C  2 1.380815 1 110.187654
H  3 1.084443 2 122.865738 1 179.335145 0
C  3 1.420673 2 113.667040 1 -0.231880 0
H  5 1.084200 3 123.873685 2 -178.785372 0
C  5 1.377439 3 113.630108 2 0.731624 0
C  2 1.451602 1 120.859622 3 180.000000 0
C  8 1.380383 2 128.947380 1 -20.106176 0
H  9 1.084382 8 122.829629 2 -0.896305 0
C  9 1.424737 8 113.530964 2 -179.673497 0
H  11 1.083983 9 123.795604 8 179.559752 0
C  11 1.370093 9 112.834814 8 0.154375 0
H  13 1.081326 11 128.471606 9 179.514464 0
C  7 1.459448 5 129.044369 3 -177.431008 0
C  15 1.377932 7 128.858965 5 120.000000 0
H  16 1.084242 15 122.447079 7 1.904946 0
C  16 1.425976 15 113.441167 7 -176.959125 0
H  18 1.084101 16 123.832699 15 179.824494 0
C  18 1.370906 16 112.791518 15 0.562511 0
H  20 1.081665 18 128.265063 16 179.557452 0
S  20 1.732795 18 111.637079 16 -0.592619 0
S  13 1.734689 11 111.631486 9 -0.617730 0
$end

 
 --------------------------------------------------------------
 
                    Orbital Energies (a.u.)
 --------------------------------------------------------------
 
 Alpha MOs
 -- Occupied --
-88.921 -88.921 -88.921 -10.241 -10.240 -10.239 -10.238 -10.226
-10.226 -10.206 -10.206 -10.205 -10.205 -10.205 -10.205  -7.980
 -7.980  -7.980  -5.945  -5.944  -5.944  -5.941  -5.941  -5.941
 -5.938  -5.938  -5.937  -0.906  -0.892  -0.876  -0.786  -0.755
 -0.745  -0.744  -0.733  -0.697  -0.616  -0.595  -0.569  -0.561
 -0.537  -0.535  -0.528  -0.501  -0.462  -0.422  -0.420  -0.417
 -0.415  -0.407  -0.402  -0.401  -0.384  -0.376  -0.370  -0.359
 -0.351  -0.345  -0.287  -0.266  -0.262  -0.260  -0.246  -0.209
 -- Virtual --
 -0.065  -0.033  -0.008  -0.006  -0.002   0.002   0.007   0.009
  0.011   0.018   0.023   0.026   0.030   0.033   0.037   0.042
  0.046   0.050   0.051   0.055   0.058   0.063   0.068   0.077
  0.085   0.087   0.089   0.095   0.101   0.105   0.107   0.110
  0.112   0.116   0.120   0.122   0.126   0.127   0.129   0.132
  0.134   0.141   0.142   0.145   0.147   0.150   0.152   0.157
  0.160   0.161   0.170   0.171   0.176   0.183   0.186   0.188
  0.193   0.198   0.205   0.210   0.213   0.215   0.220   0.222
  0.227   0.230   0.235   0.245   0.249   0.255   0.259   0.260
  0.267   0.268   0.271   0.277   0.280   0.291   0.293   0.298
  0.312   0.320   0.327   0.332   0.339   0.350   0.354   0.361
  0.366   0.374   0.379   0.394   0.401   0.456   0.457   0.464
  0.496   0.506   0.521   0.530   0.534   0.555   0.572   0.576
  0.583   0.597   0.612   0.626   0.628   0.649   0.656   0.659
  0.663   0.667   0.678   0.686   0.701   0.713   0.714   0.721
  0.726   0.731   0.736   0.750   0.757   0.773   0.782   0.787
  0.794   0.801   0.815   0.823   0.833   0.834   0.846   0.872
  0.896   0.931   0.935   0.936   0.955   0.960   0.960   0.963
  0.966   0.971   0.982   0.984   0.993   0.995   1.006   1.024
  1.028   1.041   1.048   1.058   1.079   1.086   1.097   1.106
  1.109   1.124   1.153   1.161   1.171   1.187   1.203   1.213
  1.253   1.260   1.265   1.293   1.312   1.330   1.347   1.349
  1.354   1.361   1.366   1.387   1.442   1.453   1.479   1.500
  1.512   1.533   1.544   1.557   1.600   1.682   1.692   1.719
  1.759   1.793   1.834   1.859   1.871   1.882   1.893   1.904
  1.919   1.923   1.953   1.960   1.992   2.004   2.026   2.060
  2.075   2.089   2.101   2.118   2.149   2.175   2.182   2.188
  2.200   2.233   2.239   2.258   2.280   2.296   2.334   2.364
  2.367   2.420   2.435   2.444   2.453   2.460   2.467   2.484
  2.502   2.520   2.530   2.534   2.551   2.581   2.592   2.600
  2.622   2.662   2.677   2.700   2.710   2.736   2.804   2.858
  2.869   2.886   2.913   2.937   2.943   3.135   3.172   3.208
  3.270   3.272   3.326   3.413   3.415   3.674   3.730   3.736
  3.973   3.976   3.982   4.256   4.281   4.306   4.319   4.328
  4.354   4.399   4.481   4.547   4.646   4.693   4.724
 --------------------------------------------------------------
 
          Ground-State Mulliken Net Atomic Charges

     Atom                 Charge (a.u.)
  ----------------------------------------
      1 H                     0.196127
      2 H                     0.119328
      3 C                     0.035829
      4 C                    -0.412377
      5 S                    -0.114474
      6 C                     0.540941
      7 H                     0.127338
      8 C                    -0.458345
      9 H                     0.120727
     10 C                    -0.047237
     11 C                    -0.161685
     12 S                    -0.107056
     13 C                     0.164378
     14 H                     0.133408
     15 C                    -0.151013
     16 C                    -0.497339
     17 H                     0.142749
     18 C                     0.370786
     19 S                     0.016014
     20 C                    -0.367394
     21 C                     0.037109
     22 H                     0.118485
     23 H                     0.193701
  ----------------------------------------
  Sum of atomic charges =     0.000000

 -----------------------------------------------------------------
                    Cartesian Multipole Moments
 -----------------------------------------------------------------
    Charge (ESU x 10^10)
                 0.0000
    Dipole Moment (Debye)
         X      -0.0524      Y       0.1732      Z       0.3596
       Tot       0.4026
    Quadrupole Moments (Debye-Ang)
        XX     -90.2382     XY       0.2546     YY    -105.2874
        XZ      -0.5156     YZ       2.4565     ZZ    -111.8664
    Octopole Moments (Debye-Ang^2)
       XXX      -9.0897    XXY      16.7042    XYY      13.4870
       YYY     -21.0633    XXZ      21.8864    XYZ      -9.1736
       YYZ      16.2814    XZZ     -24.1948    YZZ      -3.8961
       ZZZ      62.2582
    Hexadecapole Moments (Debye-Ang^3)
      XXXX   -6338.4561   XXXY      47.5226   XXYY   -1332.9207
      XYYY     164.5966   YYYY    -676.4935   XXXZ     -72.7813
      XXYZ       3.7449   XYYZ     -69.6891   YYYZ     -45.3158
      XXZZ   -1328.6860   XYZZ      22.0923   YYZZ    -193.5320
      XZZZ    -180.8338   YZZZ     -47.6035   ZZZZ    -419.5944
 -----------------------------------------------------------------
Archival summary:
1\1\nid00630\OPT\ProcedureUnspecified\BasisUnspecified\3128\bwood\TueMay3010:54:542017TueMay3010:54:542017\0\\#,OPT,ProcedureUnspecified,BasisUnspecified,\\0,1\S\C,1,1.75309\C,2,1.38082,1,110.188\H,3,1.08444,2,122.866,1,179.335,0\C,3,1.42067,2,113.667,1,-0.23188,0\H,5,1.0842,3,123.874,2,-178.785,0\C,5,1.37744,3,113.63,2,0.731624,0\C,2,1.4516,1,120.86,3,180,0\C,8,1.38038,2,128.947,1,-20.1062,0\H,9,1.08438,8,122.83,2,-0.896305,0\C,9,1.42474,8,113.531,2,-179.673,0\H,11,1.08398,9,123.796,8,179.56,0\C,11,1.37009,9,112.835,8,0.154375,0\H,13,1.08133,11,128.472,9,179.514,0\C,7,1.45945,5,129.044,3,-177.431,0\C,15,1.37793,7,128.859,5,120,0\H,16,1.08424,15,122.447,7,1.90495,0\C,16,1.42598,15,113.441,7,-176.959,0\H,18,1.0841,16,123.833,15,179.824,0\C,18,1.37091,16,112.792,15,0.562511,0\H,20,1.08166,18,128.265,16,179.557,0\S,20,1.7328,18,111.637,16,-0.592619,0\S,13,1.73469,11,111.631,9,-0.61773,0\\\@

 Total job time:  130.24s(wall), 137.74s(cpu) 
 Tue May 30 10:54:54 2017

        *************************************************************
        *                                                           *
        *  Thank you very much for using Q-Chem.  Have a nice day.  *
        *                                                           *
        *************************************************************


0 sent ACK to 0 
now end server 0 ... 
