srun -N 1 --ntasks-per-node 22 --cpus-per-task 2 --cpu_bind=cores --nodelist nid00578 /global/project/projectdirs/jcesr/qchem/qc44/cnl_qc441/dist/exe/qcprog.cori.haswell.exe .pt_nn_neutral_-20.0.in.37108.qcin.1 /dev/shm/eg_qchem/qchem37108/
Process 2 of 22 is on nid00578 - thread support 0
Process 3 of 22 is on nid00578 - thread support 0
Process 5 of 22 is on nid00578 - thread support 0
Process 0 of 22 is on nid00578 - thread support 0
Process 1 of 22 is on nid00578 - thread support 0
Process 4 of 22 is on nid00578 - thread support 0
Process 6 of 22 is on nid00578 - thread support 0
Process 21 of 22 is on nid00578 - thread support 0
initial socket setup ...start
initial socket setup ...done 
now start server 0 ... 
nid00578 10.128.2
Q-Chem Developer Version! Running on 10.128.2.*
                  Welcome to Q-Chem
     A Quantum Leap Into The Future Of Chemistry


 Q-Chem 4.4, Q-Chem, Inc., Pleasanton, CA (2016)

 Y. Shao,  Z. Gan,  E. Epifanovsky,  A. T. B. Gilbert,  M. Wormit,  
 J. Kussmann,  A. W. Lange,  A. Behn,  J. Deng,  X. Feng,  D. Ghosh,  
 M. Goldey,  P. R. Horn,  L. D. Jacobson,  I. Kaliman,  F. Rob,  
 R. Z. Khaliullin,  T. Kus,  A. Landau,  J. Liu,  E. I. Proynov,  Y. M. Rhee,  
 R. M. Richard,  M. A. Rohrdanz,  R. P. Steele,  E. J. Sundstrom,  
 H. L. Woodcock III,  P. M. Zimmerman,  D. Zuev,  B. Albrecht,  E. Alguire,  
 B. Austin,  S. A. Baeppler,  G. J. O. Beran,  Y. A. Bernard,  
 E. J. Berquist,  K. Brandhorst,  K. B. Bravaya,  S. T. Brown,  D. Casanova,  
 C.-M. Chang,  Y. Chen,  S. H. Chien,  K. D. Closser,  M. P. Coons,  
 D. L. Crittenden,  S. Dasgupta,  M. Diedenhofen,  R. A. DiStasio Jr.,  
 H. Do,  A. D. Dutoi,  R. G. Edgar,  P.-T. Fang,  S. Fatehi,  Q. Feng,  
 L. Fusti-Molnar,  A. Ghysels,  A. Golubeva-Zadorozhnaya,  J. Gomes,  
 A. Gunina,  M. W. D. Hanson-Heine,  P. H. P. Harbach,  A. W. Hauser,  
 J. E. Herr,  E. G. Hohenstein,  Z. C. Holden,  K. Hui,  T.-C. Jagau,  H. Ji,  
 B. Kaduk,  K. Khistyaev,  Jaehoon Kim,  Jihan Kim,  R. A. King,  
 P. Klunzinger,  K. Koh,  D. Kosenkov,  T. Kowalczyk,  C. M. Krauter,  
 A. Kunitsa,  K. U. Lao,  A. Laurent,  K. V. Lawler,  J. Lee,  D. Lefrancois,  
 S. Lehtola,  S. V. Levchenko,  C. Y. Lin,  Y.-S. Lin,  F. Liu,  E. Livshits,  
 R. C. Lochan,  A. Luenser,  P. Manohar,  S. F. Manzer,  S.-P. Mao,  Y. Mao,  
 N. Mardirossian,  A. V. Marenich,  L. A. Martinez-Martinez,  S. A. Maurer,  
 N. J. Mayhall,  J.-M. Mewes,  A. F. Morrison,  K. Nanda,  T. S. Nguyen-Beck,  
 C. M. Oana,  R. Olivares-Amaya,  D. P. O'Neill,  J. A. Parkhill,  
 T. M. Perrine,  R. Peverati,  P. A. Pieniazek,  F. Plasser,  A. Prociuk,  
 D. R. Rehn,  E. Rosta,  N. J. Russ,  N. Sergueev,  S. M. Sharada,  
 S. Sharma,  D. W. Small,  A. Sodt,  T. Stauch,  T. Stein,  D. Stuck,  
 Y.-C. Su,  A. J. W. Thom,  T. Tsuchimochi,  L. Vogt,  O. Vydrov,  T. Wang,  
 M. A. Watson,  J. Wenzel,  A. White,  C. F. Williams,  V. Vanovschi,  
 K. Yao,  S. Yeganeh,  S. R. Yost,  Z.-Q. You,  I. Y. Zhang,  X. Zhang,  
 Y. Zhao,  B. R. Brooks,  G. K. L. Chan,  D. M. Chipman,  C. J. Cramer,  
 W. A. Goddard III,  M. S. Gordon,  W. J. Hehre,  A. Klamt,  
 H. F. Schaefer III,  M. W. Schmidt,  C. D. Sherrill,  D. G. Truhlar,  
 A. Warshel,  X. Xu,  A. Aspuru-Guzik,  R. Baer,  A. T. Bell,  N. A. Besley,  
 J.-D. Chai,  A. Dreuw,  B. D. Dunietz,  T. R. Furlani,  S. R. Gwaltney,  
 C.-P. Hsu,  Y. Jung,  J. Kong,  D. S. Lambrecht,  W. Liang,  C. Ochsenfeld,  
 V. A. Rassolov,  L. V. Slipchenko,  J. E. Subotnik,  T. Van Voorhis,  
 J. M. Herbert,  A. I. Krylov,  P. M. W. Gill,  M. Head-Gordon

 Contributors to earlier versions of Q-Chem not listed above: 
 R. D. Adamson,  J. Baker,  E. F. C. Byrd,  A. K. Chakraborty,  C.-L. Cheng,  
 H. Dachsel,  R. J. Doerksen,  G. Hawkins,  A. Heyden,  S. Hirata,  
 G. Kedziora,  F. J. Keil,  C. Kelley,  P. P. Korambath,  W. Kurlancheek,  
 A. M. Lee,  M. S. Lee,  D. Liotard,  I. Lotan,  P. E. Maslen,  N. Nair,  
 D. Neuhauser,  R. Olson,  B. Peters,  J. Ritchie,  N. E. Schultz,  
 N. Shenvi,  A. C. Simmonett,  K. S. Thanthiriwatte,  Q. Wu,  W. Zhang

 Please cite Q-Chem as follows:
 Y. Shao et al., Mol. Phys. 113, 184-215 (2015)
 DOI: 10.1080/00268976.2014.952696

 Q-Chem 4.4.2 for Intel X86 EM64T Linux

 Parts of Q-Chem use Armadillo 5.200.1 (Boston Tea Smuggler).
 http://arma.sourceforge.net/

 Q-Chem begins on Tue May 30 10:52:42 2017  

Host: nid00478
0

     Scratch files written to /dev/shm/eg_qchem/qchem37108.0//
 Parallel job on  22  processors

Checking the input file for inconsistencies... 	...done.

--------------------------------------------------------------
User input:
--------------------------------------------------------------
$molecule
 0  1
 H           6.23254100       -0.22338900        0.17638100
 H           5.29752400        2.22850500       -0.10953100
 C           5.19733500        0.07486000        0.08356300
 C           4.68347900        1.33634400       -0.06443600
 S           3.94559900       -1.12581000        0.11905200
 C           3.26267300        1.34659400       -0.16511200
 H           2.67740100        2.24810800       -0.30841700
 C           2.69562400        0.08941900       -0.09094600
 H           1.33241900       -2.39005500       -0.68762600
 C           1.29739300       -0.28590200       -0.16150800
 C           0.73808300       -1.51455700       -0.45078400
 S           0.03601800        0.89451200        0.14982500
 C          -0.68041100       -1.51067300       -0.44936800
 H          -1.28012400       -2.38277100       -0.68510300
 C          -1.23220500       -0.27900200       -0.15852500
 C          -2.62830100        0.10383400       -0.08465000
 H          -3.66281269       -1.44378444       -1.19916805
 C          -3.73144348       -0.52378309       -0.62934413
 S          -3.12233120        1.54641049        0.78599803
 C          -4.96034927        0.13766261       -0.34422327
 C          -4.79384777        1.26471633        0.41690783
 H          -5.92768604       -0.21507890       -0.68315500
 H          -5.54859934        1.94784405        0.78146761
$end


$rem
         jobtype = opt
        exchange = b3lyp
           basis = 6-31++g**
  max_scf_cycles = 150
      mem_static = 281
       mem_total = 2818
      sym_ignore = true
        symmetry = false
          thresh = 12
$end


$opt
CONSTRAINT
tors 13 15 16 18 -20.0
ENDCONSTRAINT
$end

--------------------------------------------------------------
 ----------------------------------------------------------------
             Standard Nuclear Orientation (Angstroms)
    I     Atom           X                Y                Z
 ----------------------------------------------------------------
    1      H       6.2325410000    -0.2233890000     0.1763810000
    2      H       5.2975240000     2.2285050000    -0.1095310000
    3      C       5.1973350000     0.0748600000     0.0835630000
    4      C       4.6834790000     1.3363440000    -0.0644360000
    5      S       3.9455990000    -1.1258100000     0.1190520000
    6      C       3.2626730000     1.3465940000    -0.1651120000
    7      H       2.6774010000     2.2481080000    -0.3084170000
    8      C       2.6956240000     0.0894190000    -0.0909460000
    9      H       1.3324190000    -2.3900550000    -0.6876260000
   10      C       1.2973930000    -0.2859020000    -0.1615080000
   11      C       0.7380830000    -1.5145570000    -0.4507840000
   12      S       0.0360180000     0.8945120000     0.1498250000
   13      C      -0.6804110000    -1.5106730000    -0.4493680000
   14      H      -1.2801240000    -2.3827710000    -0.6851030000
   15      C      -1.2322050000    -0.2790020000    -0.1585250000
   16      C      -2.6283010000     0.1038340000    -0.0846500000
   17      H      -3.6628126900    -1.4437844400    -1.1991680500
   18      C      -3.7314434800    -0.5237830900    -0.6293441300
   19      S      -3.1223312000     1.5464104900     0.7859980300
   20      C      -4.9603492700     0.1376626100    -0.3442232700
   21      C      -4.7938477700     1.2647163300     0.4169078300
   22      H      -5.9276860400    -0.2150789000    -0.6831550000
   23      H      -5.5485993400     1.9478440500     0.7814676100
 ----------------------------------------------------------------
 Nuclear Repulsion Energy =  1179.2377902576 hartrees
 There are       64 alpha and       64 beta electrons
 Requested basis set is 6-31++G(d,p)
 There are 110 shells and 345 basis functions

 Total QAlloc Memory Limit   2818 MB
 Mega-Array Size       275 MB
 MEM_STATIC part       281 MB
 A cutoff of  1.0D-12 yielded   4668 shell pairs
 There are     47549 function pairs

 Q-Chem warning in module /project/projectdirs/jcesr/qchem/qc44/cnl_qc441/compile/cori/qc_src/libqints/qchem/aobasis.C, line 68:

 Using reconstructed effective core potential

 
 -------------------------------------------------------
 OpenMP Integral Computing Module                       
 Release: version 1.0, May 2013, Q-Chem Inc. Pittsburgh 
 -------------------------------------------------------
 Integral Job Info:
 Integral job number is                      11
 Integral operator is                         1
 short-range coefficients                     0
 long-range coefficients              100000000
 Omega coefficients                           0
 if combine SR and LR in K                    0
 Integral screening is                        0
 Integral computing path is                   2
 max size of driver memory is            800000
 size of driver memory is                593474
 size of scratch memory is             15166112
 max col of scratch BK array               1296
 max len of scratch array in speh3          155
 max len of scratch index in speh4           18
 max int batch size is                      520
 min int batch size is                       52
 fixed nKL is                                52
 max L of basis functions is                  2
 order of int derivative is                   0
 number of shells is                        110
 number of basis is                         345
 number of cartesian basis is               345
 number of contracted shell pairs          4668
 number of primitive shell pairs          14606
 maxK2 (contraction) of shell pair           36
 max number of K2 of shell pair               1
 max number of CS2 of shell pair            509
 max number of PS2 of shell pair           3012
 mem total for path MDJ                  101080
 -------------------------------------------------------
 Smallest overlap matrix eigenvalue = 7.18E-08
 Linear dependence detected in AO basis
 Number of orthogonalized atomic orbitals = 342
 Maximum deviation from orthogonality = 1.033E-10

 Scale SEOQF with 1.000000e-02/1.000000e-01/1.000000e-01

 Standard Electronic Orientation quadrupole field applied
 Nucleus-field energy     =     0.0000000142 hartrees
 Guess from superposition of atomic densities
 Warning:  Energy on first SCF cycle will be non-variational
 A restricted hybrid HF-DFT SCF calculation will be
 performed using Pulay DIIS extrapolation
 Exchange:     0.2000 Hartree-Fock + 0.0800 Slater + 0.7200 B88
 Correlation:  0.1900 VWN1RPA + 0.8100 LYP
 Using SG-1 standard quadrature grid
 SCF converges when DIIS error is below 1.0E-08
 ---------------------------------------
  Cycle       Energy         DIIS Error
 ---------------------------------------
    1   -1660.3066852150      3.69E-02
    2   -1656.4291108826      3.75E-03
    3   -1656.1016116652      5.69E-03
    4   -1656.6487475326      8.80E-04
    5   -1656.6587362999      4.89E-04
    6   -1656.6619234351      1.88E-04
    7   -1656.6624509133      7.30E-05
    8   -1656.6625323880      1.43E-05
    9   -1656.6625354612      4.04E-06
   10   -1656.6625356710      2.02E-06
   11   -1656.6625357379      4.58E-07
   12   -1656.6625357408      2.39E-07
   13   -1656.6625357398      6.88E-08
   14   -1656.6625357390      2.53E-08
   15   -1656.6625357405      1.05E-08
   16   -1656.6625357398      2.60E-09 Convergence criterion met
 ---------------------------------------
 SCF time:  CPU 17.60 s  wall 16.11 s
 SCF   energy in the final basis set = -1656.6625357398
 Total energy in the final basis set = -1656.6625357398
 
 --------------------------------------------------------------
 
                    Orbital Energies (a.u.)
 --------------------------------------------------------------
 
 Alpha MOs
 -- Occupied --
-88.921 -88.921 -88.921 -10.241 -10.241 -10.241 -10.240 -10.226
-10.226 -10.207 -10.206 -10.206 -10.206 -10.205 -10.205  -7.980
 -7.980  -7.980  -5.945  -5.945  -5.944  -5.941  -5.941  -5.941
 -5.937  -5.937  -5.937  -0.907  -0.892  -0.876  -0.788  -0.757
 -0.745  -0.744  -0.733  -0.697  -0.618  -0.597  -0.569  -0.564
 -0.537  -0.533  -0.530  -0.498  -0.463  -0.423  -0.420  -0.419
 -0.416  -0.408  -0.402  -0.398  -0.386  -0.376  -0.370  -0.363
 -0.351  -0.342  -0.297  -0.268  -0.263  -0.259  -0.249  -0.200
 -- Virtual --
 -0.072  -0.031  -0.015  -0.006  -0.004   0.003   0.008   0.010
  0.017   0.019   0.025   0.028   0.032   0.034   0.040   0.044
  0.047   0.052   0.055   0.057   0.064   0.067   0.073   0.075
  0.086   0.088   0.089   0.095   0.100   0.106   0.108   0.111
  0.113   0.115   0.119   0.124   0.128   0.130   0.131   0.135
  0.136   0.141   0.141   0.146   0.148   0.150   0.156   0.161
  0.165   0.171   0.173   0.177   0.181   0.184   0.185   0.190
  0.196   0.197   0.204   0.209   0.212   0.215   0.217   0.222
  0.229   0.233   0.239   0.244   0.252   0.257   0.263   0.265
  0.271   0.279   0.282   0.288   0.291   0.294   0.304   0.308
  0.315   0.326   0.333   0.343   0.347   0.354   0.362   0.365
  0.376   0.382   0.388   0.402   0.446   0.448   0.466   0.495
  0.505   0.519   0.526   0.542   0.562   0.565   0.571   0.583
  0.592   0.611   0.612   0.634   0.651   0.655   0.660   0.664
  0.666   0.673   0.678   0.688   0.697   0.713   0.715   0.721
  0.724   0.728   0.740   0.752   0.752   0.776   0.786   0.790
  0.804   0.820   0.824   0.831   0.840   0.853   0.877   0.900
  0.930   0.934   0.938   0.945   0.957   0.958   0.962   0.967
  0.972   0.979   0.990   0.994   1.001   1.008   1.024   1.038
  1.040   1.051   1.078   1.078   1.087   1.102   1.108   1.112
  1.141   1.152   1.161   1.172   1.182   1.198   1.223   1.233
  1.252   1.271   1.280   1.322   1.339   1.340   1.348   1.354
  1.361   1.364   1.377   1.446   1.464   1.482   1.508   1.514
  1.551   1.553   1.572   1.623   1.657   1.687   1.703   1.728
  1.790   1.826   1.857   1.872   1.888   1.897   1.912   1.916
  1.930   1.951   1.976   1.978   1.998   2.024   2.055   2.065
  2.082   2.096   2.124   2.147   2.171   2.176   2.184   2.214
  2.230   2.233   2.259   2.275   2.290   2.326   2.363   2.364
  2.415   2.424   2.453   2.459   2.463   2.481   2.483   2.499
  2.521   2.530   2.537   2.564   2.569   2.584   2.605   2.634
  2.667   2.685   2.706   2.717   2.733   2.782   2.852   2.869
  2.900   2.932   2.957   2.987   3.125   3.181   3.226   3.271
  3.272   3.324   3.412   3.417   3.664   3.732   3.742   3.944
  3.979   4.017   4.253   4.263   4.302   4.316   4.334   4.338
  4.385   4.475   4.558   4.638   4.698   4.740
 --------------------------------------------------------------
 
          Ground-State Mulliken Net Atomic Charges

     Atom                 Charge (a.u.)
  ----------------------------------------
      1 H                     0.196790
      2 H                     0.120040
      3 C                     0.022477
      4 C                    -0.299944
      5 S                    -0.109119
      6 C                     0.536315
      7 H                     0.131323
      8 C                    -0.410762
      9 H                     0.127312
     10 C                    -0.184980
     11 C                     0.055051
     12 S                    -0.391439
     13 C                     0.170251
     14 H                     0.115119
     15 C                    -0.213050
     16 C                    -0.242918
     17 H                     0.118658
     18 C                     0.350102
     19 S                    -0.081042
     20 C                    -0.365414
     21 C                     0.035585
     22 H                     0.120510
     23 H                     0.199134
  ----------------------------------------
  Sum of atomic charges =     0.000000

 -----------------------------------------------------------------
                    Cartesian Multipole Moments
 -----------------------------------------------------------------
    Charge (ESU x 10^10)
                 0.0000
    Dipole Moment (Debye)
         X      -0.2669      Y      -0.3355      Z      -0.4938
       Tot       0.6540
    Quadrupole Moments (Debye-Ang)
        XX     -89.2939     XY       1.9666     YY    -102.2403
        XZ       1.0731     YZ       3.4037     ZZ    -114.8055
    Octopole Moments (Debye-Ang^2)
       XXX     -25.6225    XXY       0.1528    XYY      -7.8099
       YYY     -54.2033    XXZ       0.5596    XYZ     -14.6018
       YYZ      -3.3094    XZZ     -17.8034    YZZ     -20.1994
       ZZZ      -0.3891
    Hexadecapole Moments (Debye-Ang^3)
      XXXX   -6152.8208   XXXY     180.0744   XXYY   -1249.7657
      XYYY     256.3718   YYYY    -874.3090   XXXZ      83.0818
      XXYZ      25.4775   XYYZ      -2.2416   YYYZ     -70.4650
      XXZZ   -1324.1098   XYZZ      76.4800   YYZZ    -198.0630
      XZZZ      44.6594   YZZZ     -90.4638   ZZZZ    -259.8714
 -----------------------------------------------------------------
 Calculating analytic gradient of the SCF energy
 Gradient of SCF Energy
            1           2           3           4           5           6
    1  -0.0000176   0.0000110  -0.0000239  -0.0000326  -0.0000987   0.0001214
    2  -0.0000050  -0.0000019   0.0000173   0.0000321   0.0000021   0.0000892
    3   0.0000549  -0.0000087  -0.0000006  -0.0000387  -0.0000108   0.0000198
            7           8           9          10          11          12
    1   0.0000087  -0.0000988   0.0000102  -0.0002273   0.0004281  -0.0020002
    2  -0.0000108   0.0000859   0.0000485  -0.0001534  -0.0005240   0.0008332
    3  -0.0000153  -0.0004935  -0.0000768  -0.0016001   0.0016426   0.0018360
           13          14          15          16          17          18
    1   0.0011015  -0.0000383  -0.0011245   0.0006091  -0.0002488  -0.0003239
    2   0.0002070   0.0001596  -0.0005023  -0.0017377  -0.0010247   0.0021995
    3   0.0022416  -0.0015851  -0.0015719   0.0004998   0.0012609  -0.0011472
           19          20          21          22          23
    1   0.0024134  -0.0003862  -0.0000802   0.0000306  -0.0000330
    2   0.0009378   0.0011061  -0.0014410   0.0000009  -0.0003184
    3  -0.0010400  -0.0015016   0.0009669   0.0000980   0.0004699
 Max gradient component =       2.413E-03
 RMS gradient           =       8.874E-04
 Gradient time:  CPU 4.59 s  wall 4.58 s
 Geometry Optimization Parameters
   NAtoms,    NIC,     NZ,  NCons,   NDum,   NFix, NCnnct, MaxDiis
       23     166       0       1       0       0       0       0


** CONSTRAINED OPTIMIZATION IN DELOCALIZED INTERNAL COORDINATES **
   Searching for a Minimum

   Optimization Cycle:   1

                       Coordinates (Angstroms)
     ATOM                X               Y               Z
      1  H         6.2325410000   -0.2233890000    0.1763810000
      2  H         5.2975240000    2.2285050000   -0.1095310000
      3  C         5.1973350000    0.0748600000    0.0835630000
      4  C         4.6834790000    1.3363440000   -0.0644360000
      5  S         3.9455990000   -1.1258100000    0.1190520000
      6  C         3.2626730000    1.3465940000   -0.1651120000
      7  H         2.6774010000    2.2481080000   -0.3084170000
      8  C         2.6956240000    0.0894190000   -0.0909460000
      9  H         1.3324190000   -2.3900550000   -0.6876260000
     10  C         1.2973930000   -0.2859020000   -0.1615080000
     11  C         0.7380830000   -1.5145570000   -0.4507840000
     12  S         0.0360180000    0.8945120000    0.1498250000
     13  C        -0.6804110000   -1.5106730000   -0.4493680000
     14  H        -1.2801240000   -2.3827710000   -0.6851030000
     15  C        -1.2322050000   -0.2790020000   -0.1585250000
     16  C        -2.6283010000    0.1038340000   -0.0846500000
     17  H        -3.6628126900   -1.4437844400   -1.1991680500
     18  C        -3.7314434800   -0.5237830900   -0.6293441300
     19  S        -3.1223312000    1.5464104900    0.7859980300
     20  C        -4.9603492700    0.1376626100   -0.3442232700
     21  C        -4.7938477700    1.2647163300    0.4169078300
     22  H        -5.9276860400   -0.2150789000   -0.6831550000
     23  H        -5.5485993400    1.9478440500    0.7814676100
   Point Group: c1    Number of degrees of freedom:    63


   Energy is  -1656.662535740

              Constraints and their Current Values
                                        Value     Constraint
   Dihedral:       13  15  16  18      -20.000      -20.000

 Attempting to Generate Delocalized Internal Coordinates

 62 Hessian modes will be used to form the next step
  Hessian Eigenvalues:
     0.045000    0.045000    0.045000    0.045000    0.045000    0.045000
     0.045000    0.045000    0.045000    0.045001    0.045002    0.045002
     0.045003    0.045003    0.045009    0.045010    0.045011    0.045018
     0.045019    0.159886    0.159939    0.159955    0.159957    0.159992
     0.159993    0.160000    0.160000    0.221281    0.221281    0.226855
     0.237826    0.237826    0.245311    0.249998    0.249998    0.250000
     0.250000    0.293636    0.293684    0.294746    0.294936    0.312571
     0.312615    0.354732    0.354740    0.354742    0.354756    0.355161
     0.355164    0.358372    0.358373    0.383080    0.383176    0.405793
     0.405832    0.413732    0.458107    0.461989    0.461995    0.485493
     0.497291    0.497294

 Minimum Search - Taking Simple RFO Step
 Searching for Lamda that Minimizes Along All modes
 Value Taken    Lamda =  -0.00065432
 Step Taken.  Stepsize is  0.087404

                             Maximum     Tolerance    Cnvgd?
         Gradient           0.006143      0.000300      NO
         Displacement       0.045386      0.001200      NO
         Energy change     *********      0.000001      NO


 New Cartesian Coordinates Obtained by Inverse Iteration

 Displacement from previous Coordinates is:  0.335690
 ----------------------------------------------------------------
             Standard Nuclear Orientation (Angstroms)
    I     Atom           X                Y                Z
 ----------------------------------------------------------------
    1      H       6.2375261804    -0.2574338483     0.1761784445
    2      H       5.3283092497     2.2041575374    -0.1094407611
    3      C       5.2055332548     0.0516008247     0.0826938646
    4      C       4.7049831599     1.3184130301    -0.0653287791
    5      S       3.9411490689    -1.1357928095     0.1166419478
    6      C       3.2844673176     1.3435902139    -0.1681988601
    7      H       2.7089200373     2.2512409867    -0.3123007894
    8      C       2.7041463158     0.0925557884    -0.0952659438
    9      H       1.3135750128    -2.3712561943    -0.6967759554
   10      C       1.3018852233    -0.2672363390    -0.1694020046
   11      C       0.7287186764    -1.4887696188    -0.4621683398
   12      S       0.0522837066     0.9268297556     0.1334003674
   13      C      -0.6895597347    -1.4742078014    -0.4466525637
   14      H      -1.2979042645    -2.3453127994    -0.6613783162
   15      C      -1.2307547280    -0.2391883550    -0.1501940007
   16      C      -2.6330859788     0.1295011173    -0.0687117208
   17      H      -3.6220375606    -1.4362767586    -1.1975418539
   18      C      -3.7181924005    -0.5259815515    -0.6167537901
   19      S      -3.1717881048     1.5543640879     0.8073543304
   20      C      -4.9646670276     0.1046602836    -0.3386301752
   21      C      -4.8313505566     1.2433106861     0.4120337056
   22      H      -5.9200378660    -0.2693701264    -0.6887712491
   23      H      -5.6041407714     1.9146059403     0.7605104628
 ----------------------------------------------------------------
 Nuclear Repulsion Energy =  1177.3794777978 hartrees
 There are       64 alpha and       64 beta electrons
 Applying Cartesian multipole field
    Component          Value
    ---------          -----
     (2,0,0)        1.00000E-12
     (0,2,0)        2.00000E-11
     (0,0,2)       -3.00000E-11
 Nucleus-field energy     =     0.0000000141 hartrees
 Requested basis set is 6-31++G(d,p)
 There are 110 shells and 345 basis functions
 A cutoff of  1.0D-12 yielded   4668 shell pairs
 There are     47549 function pairs

 Q-Chem warning in module /project/projectdirs/jcesr/qchem/qc44/cnl_qc441/compile/cori/qc_src/libqints/qchem/aobasis.C, line 68:

 Using reconstructed effective core potential

 Smallest overlap matrix eigenvalue = 7.13E-08
 Linear dependence detected in AO basis
 Number of orthogonalized atomic orbitals = 342
 Maximum deviation from orthogonality = 4.157E-11
 Guess MOs from SCF MO coefficient file
 Reading MOs from coefficient file
 Reading MOs from coefficient file
 A restricted hybrid HF-DFT SCF calculation will be
 performed using Pulay DIIS extrapolation
 Exchange:     0.2000 Hartree-Fock + 0.0800 Slater + 0.7200 B88
 Correlation:  0.1900 VWN1RPA + 0.8100 LYP
 Using SG-1 standard quadrature grid
 SCF converges when DIIS error is below 1.0E-08
 Geometry optimization detected.  Setting ReadMinima to 0
 Setting SaveMinima to 0
 ---------------------------------------
  Cycle       Energy         DIIS Error
 ---------------------------------------
    1   -1656.6524409852      9.28E-04
    2   -1656.6623332030      1.86E-04
    3   -1656.6601285361      4.11E-04
    4   -1656.6629123097      3.52E-05
    5   -1656.6629298787      1.40E-05
    6   -1656.6629328200      3.65E-06
    7   -1656.6629329832      1.78E-06
    8   -1656.6629330301      6.41E-07
    9   -1656.6629330368      1.72E-07
   10   -1656.6629330369      4.23E-08
   11   -1656.6629330380      1.96E-08
   12   -1656.6629330372      7.15E-09 Convergence criterion met
 ---------------------------------------
 SCF time:  CPU 13.56 s  wall 12.39 s
 SCF   energy in the final basis set = -1656.6629330372
 Total energy in the final basis set = -1656.6629330372
 
 --------------------------------------------------------------
 
                    Orbital Energies (a.u.)
 --------------------------------------------------------------
 
 Alpha MOs
 -- Occupied --
-88.921 -88.921 -88.921 -10.242 -10.241 -10.241 -10.240 -10.226
-10.226 -10.207 -10.206 -10.206 -10.206 -10.205 -10.205  -7.981
 -7.981  -7.980  -5.945  -5.945  -5.945  -5.941  -5.941  -5.941
 -5.938  -5.938  -5.937  -0.907  -0.892  -0.876  -0.787  -0.756
 -0.745  -0.745  -0.733  -0.697  -0.618  -0.596  -0.569  -0.564
 -0.537  -0.533  -0.530  -0.499  -0.463  -0.423  -0.420  -0.419
 -0.416  -0.408  -0.402  -0.398  -0.386  -0.376  -0.370  -0.362
 -0.351  -0.342  -0.297  -0.268  -0.263  -0.260  -0.249  -0.201
 -- Virtual --
 -0.072  -0.031  -0.014  -0.006  -0.004   0.003   0.008   0.010
  0.017   0.019   0.025   0.028   0.032   0.034   0.040   0.044
  0.047   0.052   0.055   0.057   0.063   0.067   0.073   0.074
  0.086   0.088   0.089   0.095   0.100   0.105   0.108   0.111
  0.112   0.116   0.119   0.123   0.127   0.130   0.131   0.134
  0.135   0.141   0.141   0.146   0.148   0.150   0.156   0.161
  0.164   0.171   0.173   0.176   0.181   0.184   0.185   0.189
  0.197   0.198   0.203   0.209   0.212   0.214   0.217   0.223
  0.229   0.233   0.239   0.244   0.252   0.257   0.263   0.265
  0.271   0.279   0.282   0.287   0.290   0.294   0.305   0.307
  0.315   0.326   0.333   0.344   0.346   0.354   0.362   0.365
  0.376   0.382   0.388   0.402   0.445   0.449   0.466   0.496
  0.505   0.517   0.526   0.540   0.562   0.566   0.570   0.582
  0.590   0.611   0.612   0.634   0.650   0.655   0.660   0.664
  0.666   0.672   0.678   0.687   0.695   0.713   0.715   0.721
  0.723   0.729   0.741   0.750   0.752   0.775   0.786   0.791
  0.802   0.819   0.824   0.832   0.840   0.852   0.877   0.899
  0.930   0.935   0.938   0.946   0.956   0.958   0.961   0.968
  0.972   0.980   0.992   0.994   1.002   1.008   1.025   1.037
  1.040   1.052   1.076   1.077   1.088   1.103   1.107   1.111
  1.139   1.152   1.159   1.173   1.182   1.199   1.221   1.234
  1.252   1.269   1.280   1.322   1.340   1.344   1.348   1.352
  1.361   1.363   1.374   1.443   1.465   1.482   1.507   1.512
  1.548   1.551   1.570   1.623   1.657   1.686   1.703   1.728
  1.789   1.827   1.857   1.871   1.888   1.896   1.911   1.916
  1.928   1.951   1.974   1.977   1.999   2.022   2.054   2.065
  2.081   2.096   2.126   2.147   2.170   2.175   2.184   2.213
  2.232   2.233   2.257   2.274   2.292   2.327   2.363   2.364
  2.416   2.424   2.453   2.460   2.463   2.478   2.481   2.503
  2.522   2.530   2.535   2.563   2.569   2.585   2.604   2.634
  2.667   2.684   2.706   2.717   2.732   2.784   2.853   2.870
  2.899   2.930   2.953   2.984   3.126   3.180   3.226   3.271
  3.272   3.324   3.412   3.417   3.663   3.731   3.742   3.945
  3.978   4.014   4.254   4.261   4.301   4.316   4.333   4.338
  4.385   4.474   4.555   4.637   4.697   4.737
 --------------------------------------------------------------
 
          Ground-State Mulliken Net Atomic Charges

     Atom                 Charge (a.u.)
  ----------------------------------------
      1 H                     0.197116
      2 H                     0.120044
      3 C                     0.026737
      4 C                    -0.307381
      5 S                    -0.114172
      6 C                     0.529541
      7 H                     0.129879
      8 C                    -0.413393
      9 H                     0.127434
     10 C                    -0.206098
     11 C                     0.067570
     12 S                    -0.367570
     13 C                     0.156597
     14 H                     0.115046
     15 C                    -0.178888
     16 C                    -0.269239
     17 H                     0.118820
     18 C                     0.339499
     19 S                    -0.055369
     20 C                    -0.371080
     21 C                     0.035966
     22 H                     0.120260
     23 H                     0.198681
  ----------------------------------------
  Sum of atomic charges =     0.000000

 -----------------------------------------------------------------
                    Cartesian Multipole Moments
 -----------------------------------------------------------------
    Charge (ESU x 10^10)
                 0.0000
    Dipole Moment (Debye)
         X      -0.2577      Y      -0.3542      Z      -0.4990
       Tot       0.6640
    Quadrupole Moments (Debye-Ang)
        XX     -89.1795     XY       1.9656     YY    -102.3734
        XZ       1.1087     YZ       3.3124     ZZ    -114.8355
    Octopole Moments (Debye-Ang^2)
       XXX     -24.6194    XXY      -0.5377    XYY      -7.1469
       YYY     -56.1123    XXZ       0.4294    XYZ     -14.5246
       YYZ      -3.4250    XZZ     -17.3111    YZZ     -20.8324
       ZZZ      -0.6861
    Hexadecapole Moments (Debye-Ang^3)
      XXXX   -6191.1430   XXXY     180.1728   XXYY   -1256.8719
      XYYY     261.0164   YYYY    -872.4348   XXXZ      89.7085
      XXYZ      24.8680   XYYZ       0.7679   YYYZ     -72.0144
      XXZZ   -1333.9729   XYZZ      78.1300   YYZZ    -197.8089
      XZZZ      52.4325   YZZZ     -90.8313   ZZZZ    -261.3967
 -----------------------------------------------------------------
 Calculating analytic gradient of the SCF energy
 Gradient of SCF Energy
            1           2           3           4           5           6
    1   0.0000022   0.0000032   0.0000099   0.0000101   0.0000718   0.0000131
    2   0.0000090  -0.0000034  -0.0000122  -0.0000210   0.0000275   0.0000381
    3   0.0000142  -0.0000126  -0.0000389   0.0000263   0.0000519  -0.0000179
            7           8           9          10          11          12
    1  -0.0000050  -0.0000829  -0.0000167   0.0003727   0.0002941   0.0002818
    2  -0.0000110  -0.0000537   0.0000413  -0.0000044   0.0001059   0.0002139
    3  -0.0000270  -0.0001463  -0.0000228  -0.0002985   0.0004927   0.0004061
           13          14          15          16          17          18
    1   0.0001641  -0.0000705  -0.0004351  -0.0002438  -0.0000501   0.0003551
    2   0.0003051   0.0002297  -0.0008142  -0.0014763  -0.0007255   0.0012919
    3   0.0014400  -0.0011070  -0.0013571   0.0001115   0.0009607  -0.0008148
           19          20          21          22          23
    1  -0.0001498  -0.0001124  -0.0003330   0.0000106  -0.0000891
    2   0.0004027   0.0004673   0.0000879  -0.0000044  -0.0000944
    3   0.0002173  -0.0000033  -0.0000650   0.0000578   0.0001327
 Max gradient component =       1.476E-03
 RMS gradient           =       4.482E-04
 Gradient time:  CPU 4.62 s  wall 4.58 s
 Geometry Optimization Parameters
   NAtoms,    NIC,     NZ,  NCons,   NDum,   NFix, NCnnct, MaxDiis
       23     166       0       1       0       0       0       0

 Cartesian Hessian Update
 Hessian Updated using BFGS Update


** CONSTRAINED OPTIMIZATION IN DELOCALIZED INTERNAL COORDINATES **
   Searching for a Minimum

   Optimization Cycle:   2

                       Coordinates (Angstroms)
     ATOM                X               Y               Z
      1  H         6.2375261804   -0.2574338483    0.1761784445
      2  H         5.3283092497    2.2041575374   -0.1094407611
      3  C         5.2055332548    0.0516008247    0.0826938646
      4  C         4.7049831599    1.3184130301   -0.0653287791
      5  S         3.9411490689   -1.1357928095    0.1166419478
      6  C         3.2844673176    1.3435902139   -0.1681988601
      7  H         2.7089200373    2.2512409867   -0.3123007894
      8  C         2.7041463158    0.0925557884   -0.0952659438
      9  H         1.3135750128   -2.3712561943   -0.6967759554
     10  C         1.3018852233   -0.2672363390   -0.1694020046
     11  C         0.7287186764   -1.4887696188   -0.4621683398
     12  S         0.0522837066    0.9268297556    0.1334003674
     13  C        -0.6895597347   -1.4742078014   -0.4466525637
     14  H        -1.2979042645   -2.3453127994   -0.6613783162
     15  C        -1.2307547280   -0.2391883550   -0.1501940007
     16  C        -2.6330859788    0.1295011173   -0.0687117208
     17  H        -3.6220375606   -1.4362767586   -1.1975418539
     18  C        -3.7181924005   -0.5259815515   -0.6167537901
     19  S        -3.1717881048    1.5543640879    0.8073543304
     20  C        -4.9646670276    0.1046602836   -0.3386301752
     21  C        -4.8313505566    1.2433106861    0.4120337056
     22  H        -5.9200378660   -0.2693701264   -0.6887712491
     23  H        -5.6041407714    1.9146059403    0.7605104628
   Point Group: c1    Number of degrees of freedom:    63


   Energy is  -1656.662933037

              Constraints and their Current Values
                                        Value     Constraint
   Dihedral:       13  15  16  18      -20.000      -20.000
 Hessian Updated using BFGS Update

 56 Hessian modes will be used to form the next step
  Hessian Eigenvalues:
     0.031967    0.045000    0.045000    0.045000    0.045000    0.045000
     0.045001    0.045006    0.045009    0.045009    0.045015    0.045018
     0.049010    0.159892    0.159941    0.159957    0.159977    0.159991
     0.159993    0.159999    0.160027    0.219792    0.221281    0.223517
     0.226922    0.237826    0.240748    0.249894    0.249998    0.249999
     0.258190    0.293636    0.294317    0.294714    0.305776    0.312569
     0.312874    0.354693    0.354735    0.354742    0.354752    0.355159
     0.355164    0.358372    0.358384    0.383175    0.391636    0.405830
     0.407099    0.415102    0.458249    0.461981    0.462434    0.485912
     0.497283    0.497596

 Minimum Search - Taking Simple RFO Step
 Searching for Lamda that Minimizes Along All modes
 Value Taken    Lamda =  -0.00013272
 Step Taken.  Stepsize is  0.058883

                             Maximum     Tolerance    Cnvgd?
         Gradient           0.001063      0.000300      NO
         Displacement       0.025267      0.001200      NO
         Energy change     -0.000397      0.000001      NO


 New Cartesian Coordinates Obtained by Inverse Iteration

 Displacement from previous Coordinates is:  0.139121
 ----------------------------------------------------------------
             Standard Nuclear Orientation (Angstroms)
    I     Atom           X                Y                Z
 ----------------------------------------------------------------
    1      H       6.2354699220    -0.2704662615     0.1751835299
    2      H       5.3366815100     2.1949839175    -0.1110821660
    3      C       5.2048271832     0.0429104545     0.0812589914
    4      C       4.7096907138     1.3118115943    -0.0672979679
    5      S       3.9355162105    -1.1392947629     0.1145259409
    6      C       3.2893830921     1.3428412233    -0.1709709396
    7      H       2.7176865012     2.2529030573    -0.3152689187
    8      C       2.7039768242     0.0942484810    -0.0981444169
    9      H       1.3045158227    -2.3660137494    -0.6949894004
   10      C       1.3003372799    -0.2599880087    -0.1730740473
   11      C       0.7229886062    -1.4801251887    -0.4646188013
   12      S       0.0565990659     0.9405901937     0.1265000200
   13      C      -0.6944331072    -1.4615166589    -0.4412844474
   14      H      -1.3064606167    -2.3343107263    -0.6368658897
   15      C      -1.2293127026    -0.2234936557    -0.1437352531
   16      C      -2.6320479363     0.1411194502    -0.0634276757
   17      H      -3.6005952836    -1.4231686994    -1.2133630877
   18      C      -3.7087820246    -0.5247057736    -0.6168701875
   19      S      -3.1853079378     1.5554156642     0.8177235417
   20      C      -4.9615542283     0.0917732183    -0.3391957381
   21      C      -4.8399965356     1.2300255736     0.4146265434
   22      H      -5.9119683358    -0.2872211622    -0.6975896656
   23      H      -5.6192358132     1.8956858694     0.7592580554
 ----------------------------------------------------------------
 Nuclear Repulsion Energy =  1177.3059201389 hartrees
 There are       64 alpha and       64 beta electrons
 Applying Cartesian multipole field
    Component          Value
    ---------          -----
     (2,0,0)        1.00000E-12
     (0,2,0)        2.00000E-11
     (0,0,2)       -3.00000E-11
 Nucleus-field energy     =     0.0000000141 hartrees
 Requested basis set is 6-31++G(d,p)
 There are 110 shells and 345 basis functions
 A cutoff of  1.0D-12 yielded   4671 shell pairs
 There are     47555 function pairs

 Q-Chem warning in module /project/projectdirs/jcesr/qchem/qc44/cnl_qc441/compile/cori/qc_src/libqints/qchem/aobasis.C, line 68:

 Using reconstructed effective core potential

 Smallest overlap matrix eigenvalue = 7.24E-08
 Linear dependence detected in AO basis
 Number of orthogonalized atomic orbitals = 342
 Maximum deviation from orthogonality = 7.817E-11
 Guess MOs from SCF MO coefficient file
 Reading MOs from coefficient file
 Reading MOs from coefficient file
 A restricted hybrid HF-DFT SCF calculation will be
 performed using Pulay DIIS extrapolation
 Exchange:     0.2000 Hartree-Fock + 0.0800 Slater + 0.7200 B88
 Correlation:  0.1900 VWN1RPA + 0.8100 LYP
 Using SG-1 standard quadrature grid
 SCF converges when DIIS error is below 1.0E-08
 Geometry optimization detected.  Setting ReadMinima to 0
 Setting SaveMinima to 0
 ---------------------------------------
  Cycle       Energy         DIIS Error
 ---------------------------------------
    1   -1656.6623896811      3.83E-04
    2   -1656.6629029130      8.03E-05
    3   -1656.6625373498      1.69E-04
    4   -1656.6630124419      1.81E-05
    5   -1656.6630174761      6.47E-06
    6   -1656.6630180715      2.23E-06
    7   -1656.6630181404      6.96E-07
    8   -1656.6630181473      3.48E-07
    9   -1656.6630181499      8.67E-08
   10   -1656.6630181512      2.51E-08
   11   -1656.6630181507      1.06E-08
   12   -1656.6630181502      3.83E-09 Convergence criterion met
 ---------------------------------------
 SCF time:  CPU 13.20 s  wall 12.11 s
 SCF   energy in the final basis set = -1656.6630181502
 Total energy in the final basis set = -1656.6630181502
 
 --------------------------------------------------------------
 
                    Orbital Energies (a.u.)
 --------------------------------------------------------------
 
 Alpha MOs
 -- Occupied --
-88.922 -88.921 -88.921 -10.241 -10.241 -10.241 -10.240 -10.226
-10.226 -10.206 -10.206 -10.206 -10.206 -10.205 -10.204  -7.981
 -7.981  -7.980  -5.945  -5.945  -5.944  -5.942  -5.941  -5.941
 -5.938  -5.938  -5.937  -0.907  -0.892  -0.876  -0.787  -0.756
 -0.745  -0.745  -0.734  -0.697  -0.618  -0.596  -0.569  -0.564
 -0.537  -0.533  -0.530  -0.499  -0.463  -0.423  -0.420  -0.419
 -0.416  -0.408  -0.402  -0.398  -0.386  -0.376  -0.370  -0.362
 -0.352  -0.343  -0.297  -0.268  -0.263  -0.260  -0.249  -0.201
 -- Virtual --
 -0.072  -0.031  -0.014  -0.006  -0.004   0.003   0.008   0.010
  0.017   0.019   0.025   0.028   0.032   0.034   0.039   0.044
  0.047   0.052   0.056   0.057   0.062   0.067   0.073   0.074
  0.086   0.088   0.089   0.095   0.100   0.105   0.108   0.111
  0.112   0.116   0.119   0.123   0.127   0.130   0.131   0.134
  0.135   0.141   0.142   0.146   0.148   0.150   0.156   0.161
  0.164   0.171   0.173   0.175   0.181   0.184   0.185   0.189
  0.196   0.199   0.204   0.209   0.212   0.214   0.217   0.223
  0.229   0.233   0.239   0.245   0.252   0.257   0.263   0.265
  0.271   0.278   0.282   0.286   0.290   0.294   0.305   0.306
  0.315   0.326   0.334   0.345   0.346   0.354   0.362   0.365
  0.375   0.382   0.388   0.402   0.445   0.449   0.465   0.496
  0.505   0.517   0.526   0.540   0.562   0.566   0.570   0.582
  0.590   0.611   0.613   0.634   0.650   0.655   0.660   0.664
  0.667   0.672   0.678   0.686   0.695   0.714   0.715   0.722
  0.723   0.730   0.741   0.749   0.752   0.775   0.786   0.791
  0.801   0.819   0.824   0.832   0.839   0.852   0.877   0.899
  0.930   0.936   0.938   0.947   0.956   0.958   0.960   0.968
  0.972   0.981   0.992   0.994   1.002   1.009   1.026   1.038
  1.040   1.054   1.075   1.077   1.088   1.103   1.106   1.110
  1.139   1.152   1.159   1.174   1.182   1.199   1.221   1.234
  1.252   1.268   1.280   1.322   1.339   1.343   1.350   1.352
  1.361   1.364   1.374   1.443   1.465   1.483   1.507   1.511
  1.546   1.551   1.569   1.622   1.660   1.686   1.704   1.729
  1.790   1.828   1.858   1.872   1.889   1.896   1.911   1.916
  1.927   1.951   1.974   1.978   2.001   2.022   2.054   2.066
  2.081   2.096   2.126   2.147   2.171   2.175   2.184   2.214
  2.231   2.235   2.255   2.273   2.294   2.328   2.363   2.364
  2.417   2.425   2.452   2.460   2.464   2.474   2.481   2.506
  2.523   2.530   2.534   2.564   2.568   2.585   2.605   2.635
  2.667   2.684   2.706   2.717   2.732   2.786   2.853   2.871
  2.899   2.929   2.952   2.983   3.126   3.180   3.225   3.272
  3.272   3.324   3.412   3.417   3.664   3.732   3.742   3.946
  3.978   4.013   4.255   4.260   4.302   4.316   4.333   4.338
  4.385   4.474   4.555   4.637   4.697   4.737
 --------------------------------------------------------------
 
          Ground-State Mulliken Net Atomic Charges

     Atom                 Charge (a.u.)
  ----------------------------------------
      1 H                     0.197185
      2 H                     0.119975
      3 C                     0.028433
      4 C                    -0.311052
      5 S                    -0.116970
      6 C                     0.529023
      7 H                     0.129281
      8 C                    -0.416893
      9 H                     0.127512
     10 C                    -0.210839
     11 C                     0.070236
     12 S                    -0.356168
     13 C                     0.148640
     14 H                     0.115690
     15 C                    -0.169885
     16 C                    -0.280026
     17 H                     0.120335
     18 C                     0.344514
     19 S                    -0.047063
     20 C                    -0.374348
     21 C                     0.034093
     22 H                     0.120171
     23 H                     0.198152
  ----------------------------------------
  Sum of atomic charges =     0.000000

 -----------------------------------------------------------------
                    Cartesian Multipole Moments
 -----------------------------------------------------------------
    Charge (ESU x 10^10)
                 0.0000
    Dipole Moment (Debye)
         X      -0.2603      Y      -0.3522      Z      -0.4997
       Tot       0.6645
    Quadrupole Moments (Debye-Ang)
        XX     -89.2635     XY       1.9462     YY    -102.4093
        XZ       1.1573     YZ       3.2676     ZZ    -114.8081
    Octopole Moments (Debye-Ang^2)
       XXX     -24.0693    XXY      -0.8790    XYY      -6.7477
       YYY     -56.8135    XXZ       0.1601    XYZ     -14.5273
       YYZ      -3.3890    XZZ     -17.3102    YZZ     -21.0255
       ZZZ      -0.8424
    Hexadecapole Moments (Debye-Ang^3)
      XXXX   -6197.6161   XXXY     179.8731   XXYY   -1258.2209
      XYYY     261.7867   YYYY    -870.9751   XXXZ      93.8262
      XXYZ      24.7319   XYYZ       1.9995   YYYZ     -72.6772
      XXZZ   -1334.3835   XYZZ      78.4223   YYZZ    -197.7415
      XZZZ      56.2233   YZZZ     -90.7639   ZZZZ    -262.4661
 -----------------------------------------------------------------
 Calculating analytic gradient of the SCF energy
 Gradient of SCF Energy
            1           2           3           4           5           6
    1  -0.0000014  -0.0000046  -0.0000555  -0.0000094   0.0000263  -0.0000144
    2   0.0000027   0.0000036  -0.0000143   0.0000093  -0.0000269   0.0000146
    3   0.0000051  -0.0000117  -0.0000238   0.0000048   0.0000500  -0.0000402
            7           8           9          10          11          12
    1  -0.0000054  -0.0000312  -0.0000427  -0.0001423  -0.0000674   0.0004192
    2  -0.0000058  -0.0000247  -0.0000640  -0.0000191   0.0000307   0.0003458
    3  -0.0000175   0.0000277   0.0000338   0.0001999  -0.0002070   0.0000906
           13          14          15          16          17          18
    1  -0.0000360   0.0000245  -0.0000189  -0.0002018  -0.0001010   0.0001486
    2   0.0000038   0.0000919  -0.0001207  -0.0004559  -0.0003859   0.0003901
    3   0.0005535  -0.0005946  -0.0005525   0.0002920   0.0005017  -0.0004265
           19          20          21          22          23
    1  -0.0001596   0.0000215   0.0002223   0.0000092   0.0000200
    2   0.0004320  -0.0001732   0.0000252  -0.0000187  -0.0000407
    3   0.0003117   0.0001676  -0.0002698  -0.0001070   0.0000122
 Max gradient component =       5.946E-04
 RMS gradient           =       2.095E-04
 Gradient time:  CPU 4.55 s  wall 4.56 s
 Geometry Optimization Parameters
   NAtoms,    NIC,     NZ,  NCons,   NDum,   NFix, NCnnct, MaxDiis
       23     166       0       1       0       0       0       0

 Cartesian Hessian Update
 Hessian Updated using BFGS Update


** CONSTRAINED OPTIMIZATION IN DELOCALIZED INTERNAL COORDINATES **
   Searching for a Minimum

   Optimization Cycle:   3

                       Coordinates (Angstroms)
     ATOM                X               Y               Z
      1  H         6.2354699220   -0.2704662615    0.1751835299
      2  H         5.3366815100    2.1949839175   -0.1110821660
      3  C         5.2048271832    0.0429104545    0.0812589914
      4  C         4.7096907138    1.3118115943   -0.0672979679
      5  S         3.9355162105   -1.1392947629    0.1145259409
      6  C         3.2893830921    1.3428412233   -0.1709709396
      7  H         2.7176865012    2.2529030573   -0.3152689187
      8  C         2.7039768242    0.0942484810   -0.0981444169
      9  H         1.3045158227   -2.3660137494   -0.6949894004
     10  C         1.3003372799   -0.2599880087   -0.1730740473
     11  C         0.7229886062   -1.4801251887   -0.4646188013
     12  S         0.0565990659    0.9405901937    0.1265000200
     13  C        -0.6944331072   -1.4615166589   -0.4412844474
     14  H        -1.3064606167   -2.3343107263   -0.6368658897
     15  C        -1.2293127026   -0.2234936557   -0.1437352531
     16  C        -2.6320479363    0.1411194502   -0.0634276757
     17  H        -3.6005952836   -1.4231686994   -1.2133630877
     18  C        -3.7087820246   -0.5247057736   -0.6168701875
     19  S        -3.1853079378    1.5554156642    0.8177235417
     20  C        -4.9615542283    0.0917732183   -0.3391957381
     21  C        -4.8399965356    1.2300255736    0.4146265434
     22  H        -5.9119683358   -0.2872211622   -0.6975896656
     23  H        -5.6192358132    1.8956858694    0.7592580554
   Point Group: c1    Number of degrees of freedom:    63


   Energy is  -1656.663018150

              Constraints and their Current Values
                                        Value     Constraint
   Dihedral:       13  15  16  18      -20.000      -20.000
 Hessian Updated using BFGS Update

 56 Hessian modes will be used to form the next step
  Hessian Eigenvalues:
     0.017930    0.045000    0.045000    0.045000    0.045001    0.045003
     0.045006    0.045008    0.045009    0.045014    0.045017    0.045763
     0.049358    0.159890    0.159936    0.159956    0.159974    0.159988
     0.159993    0.160000    0.160402    0.221280    0.221959    0.226813
     0.237778    0.240651    0.249597    0.249982    0.249999    0.256879
     0.272339    0.293656    0.294314    0.294749    0.305155    0.312567
     0.312849    0.354661    0.354742    0.354752    0.354758    0.355164
     0.355199    0.358372    0.358437    0.383268    0.391050    0.405827
     0.408936    0.422528    0.458170    0.461986    0.462066    0.485771
     0.497285    0.497840

 Minimum Search - Taking Simple RFO Step
 Searching for Lamda that Minimizes Along All modes
 Value Taken    Lamda =  -0.00005146
 Step Taken.  Stepsize is  0.049855

                             Maximum     Tolerance    Cnvgd?
         Gradient           0.000534      0.000300      NO
         Displacement       0.019728      0.001200      NO
         Energy change     -0.000085      0.000001      NO


 New Cartesian Coordinates Obtained by Inverse Iteration

 Displacement from previous Coordinates is:  0.084991
 ----------------------------------------------------------------
             Standard Nuclear Orientation (Angstroms)
    I     Atom           X                Y                Z
 ----------------------------------------------------------------
    1      H       6.2361240357    -0.2731234424     0.1722933191
    2      H       5.3393416680     2.1930938475    -0.1139632248
    3      C       5.2057380836     0.0412055349     0.0786841393
    4      C       4.7115970101     1.3104663651    -0.0700133654
    5      S       3.9351918388    -1.1397385391     0.1123614006
    6      C       3.2912272565     1.3427203169    -0.1733004591
    7      H       2.7203908720     2.2533855401    -0.3172311427
    8      C       2.7045900142     0.0947278300    -0.1000013892
    9      H       1.3028070361    -2.3664074199    -0.6876928820
   10      C       1.3004729318    -0.2587057729    -0.1738685390
   11      C       0.7217319646    -1.4792163727    -0.4613414176
   12      S       0.0573049304     0.9426866265     0.1243693308
   13      C      -0.6958258603    -1.4598652606    -0.4346972674
   14      H      -1.3089479774    -2.3349764546    -0.6152426846
   15      C      -1.2292744742    -0.2205431438    -0.1382004825
   16      C      -2.6320609677     0.1450433745    -0.0634163222
   17      H      -3.5928646648    -1.4082537376    -1.2344823061
   18      C      -3.7061850098    -0.5210308753    -0.6225870330
   19      S      -3.1912593818     1.5505207869     0.8255201337
   20      C      -4.9614027012     0.0900185384    -0.3428544429
   21      C      -4.8447187889     1.2233714587     0.4192159668
   22      H      -5.9100328471    -0.2874593528    -0.7073888705
   23      H      -5.6259667587     1.8860842019     0.7651355587
 ----------------------------------------------------------------
 Nuclear Repulsion Energy =  1177.2021770901 hartrees
 There are       64 alpha and       64 beta electrons
 Applying Cartesian multipole field
    Component          Value
    ---------          -----
     (2,0,0)        1.00000E-12
     (0,2,0)        2.00000E-11
     (0,0,2)       -3.00000E-11
 Nucleus-field energy     =     0.0000000140 hartrees
 Requested basis set is 6-31++G(d,p)
 There are 110 shells and 345 basis functions
 A cutoff of  1.0D-12 yielded   4671 shell pairs
 There are     47555 function pairs

 Q-Chem warning in module /project/projectdirs/jcesr/qchem/qc44/cnl_qc441/compile/cori/qc_src/libqints/qchem/aobasis.C, line 68:

 Using reconstructed effective core potential

 Smallest overlap matrix eigenvalue = 7.59E-08
 Linear dependence detected in AO basis
 Number of orthogonalized atomic orbitals = 342
 Maximum deviation from orthogonality = 6.320E-11
 Guess MOs from SCF MO coefficient file
 Reading MOs from coefficient file
 Reading MOs from coefficient file
 A restricted hybrid HF-DFT SCF calculation will be
 performed using Pulay DIIS extrapolation
 Exchange:     0.2000 Hartree-Fock + 0.0800 Slater + 0.7200 B88
 Correlation:  0.1900 VWN1RPA + 0.8100 LYP
 Using SG-1 standard quadrature grid
 SCF converges when DIIS error is below 1.0E-08
 Geometry optimization detected.  Setting ReadMinima to 0
 Setting SaveMinima to 0
 ---------------------------------------
  Cycle       Energy         DIIS Error
 ---------------------------------------
    1   -1656.6628562490      2.13E-04
    2   -1656.6630248507      3.70E-05
    3   -1656.6629520558      7.54E-05
    4   -1656.6630502796      8.39E-06
    5   -1656.6630512925      3.64E-06
    6   -1656.6630514698      1.58E-06
    7   -1656.6630515080      4.30E-07
    8   -1656.6630515101      1.92E-07
    9   -1656.6630515123      5.40E-08
   10   -1656.6630515140      1.61E-08
   11   -1656.6630515147      6.73E-09 Convergence criterion met
 ---------------------------------------
 SCF time:  CPU 12.31 s  wall 11.24 s
 SCF   energy in the final basis set = -1656.6630515147
 Total energy in the final basis set = -1656.6630515147
 
 --------------------------------------------------------------
 
                    Orbital Energies (a.u.)
 --------------------------------------------------------------
 
 Alpha MOs
 -- Occupied --
-88.922 -88.921 -88.921 -10.241 -10.241 -10.241 -10.240 -10.226
-10.226 -10.207 -10.206 -10.206 -10.206 -10.205 -10.205  -7.981
 -7.981  -7.980  -5.945  -5.945  -5.944  -5.942  -5.941  -5.941
 -5.938  -5.938  -5.937  -0.907  -0.892  -0.876  -0.787  -0.756
 -0.745  -0.745  -0.734  -0.697  -0.617  -0.596  -0.569  -0.564
 -0.537  -0.533  -0.530  -0.499  -0.463  -0.423  -0.420  -0.419
 -0.416  -0.408  -0.402  -0.397  -0.387  -0.377  -0.370  -0.362
 -0.351  -0.343  -0.297  -0.268  -0.263  -0.260  -0.249  -0.201
 -- Virtual --
 -0.072  -0.031  -0.013  -0.006  -0.004   0.004   0.008   0.010
  0.017   0.019   0.025   0.028   0.032   0.034   0.039   0.044
  0.047   0.052   0.056   0.056   0.062   0.067   0.072   0.074
  0.086   0.088   0.089   0.095   0.099   0.105   0.108   0.111
  0.112   0.116   0.119   0.123   0.127   0.130   0.131   0.134
  0.135   0.141   0.142   0.146   0.148   0.150   0.156   0.161
  0.164   0.171   0.173   0.175   0.181   0.184   0.184   0.189
  0.196   0.199   0.204   0.209   0.212   0.214   0.217   0.222
  0.229   0.233   0.239   0.245   0.252   0.257   0.263   0.265
  0.271   0.278   0.282   0.285   0.290   0.293   0.305   0.306
  0.315   0.326   0.334   0.345   0.346   0.354   0.362   0.365
  0.375   0.382   0.388   0.402   0.445   0.449   0.465   0.496
  0.505   0.517   0.526   0.539   0.561   0.567   0.571   0.581
  0.590   0.611   0.613   0.635   0.650   0.655   0.660   0.664
  0.667   0.672   0.677   0.686   0.695   0.714   0.715   0.722
  0.724   0.731   0.742   0.748   0.752   0.775   0.786   0.791
  0.800   0.819   0.824   0.832   0.839   0.852   0.877   0.899
  0.930   0.936   0.937   0.948   0.957   0.958   0.959   0.968
  0.972   0.981   0.991   0.993   1.002   1.009   1.026   1.038
  1.040   1.054   1.075   1.077   1.088   1.103   1.106   1.110
  1.140   1.152   1.158   1.174   1.182   1.200   1.221   1.234
  1.250   1.267   1.280   1.321   1.338   1.341   1.350   1.352
  1.361   1.364   1.376   1.443   1.466   1.484   1.507   1.510
  1.545   1.552   1.568   1.621   1.663   1.686   1.704   1.729
  1.790   1.829   1.858   1.872   1.889   1.896   1.911   1.916
  1.927   1.950   1.972   1.977   2.002   2.021   2.053   2.066
  2.081   2.097   2.126   2.147   2.172   2.176   2.183   2.214
  2.231   2.236   2.254   2.272   2.295   2.328   2.363   2.364
  2.417   2.425   2.452   2.460   2.464   2.472   2.480   2.507
  2.523   2.530   2.533   2.564   2.568   2.585   2.605   2.635
  2.667   2.684   2.706   2.717   2.732   2.786   2.853   2.871
  2.899   2.929   2.951   2.982   3.126   3.180   3.225   3.272
  3.272   3.325   3.412   3.417   3.664   3.731   3.742   3.946
  3.978   4.012   4.255   4.260   4.302   4.316   4.333   4.338
  4.385   4.474   4.555   4.637   4.697   4.737
 --------------------------------------------------------------
 
          Ground-State Mulliken Net Atomic Charges

     Atom                 Charge (a.u.)
  ----------------------------------------
      1 H                     0.197267
      2 H                     0.119961
      3 C                     0.029405
      4 C                    -0.313731
      5 S                    -0.118357
      6 C                     0.529536
      7 H                     0.129196
      8 C                    -0.418482
      9 H                     0.127452
     10 C                    -0.211095
     11 C                     0.068426
     12 S                    -0.349353
     13 C                     0.142184
     14 H                     0.116649
     15 C                    -0.168046
     16 C                    -0.287417
     17 H                     0.122352
     18 C                     0.355762
     19 S                    -0.046499
     20 C                    -0.378920
     21 C                     0.035508
     22 H                     0.120135
     23 H                     0.198068
  ----------------------------------------
  Sum of atomic charges =     0.000000

 -----------------------------------------------------------------
                    Cartesian Multipole Moments
 -----------------------------------------------------------------
    Charge (ESU x 10^10)
                 0.0000
    Dipole Moment (Debye)
         X      -0.2568      Y      -0.3465      Z      -0.5001
       Tot       0.6604
    Quadrupole Moments (Debye-Ang)
        XX     -89.2489     XY       1.9116     YY    -102.4553
        XZ       1.1844     YZ       3.2331     ZZ    -114.7778
    Octopole Moments (Debye-Ang^2)
       XXX     -23.8225    XXY      -0.6609    XYY      -6.4485
       YYY     -56.7951    XXZ      -0.0490    XYZ     -14.5635
       YYZ      -3.3438    XZZ     -17.4645    YZZ     -20.9634
       ZZZ      -1.0275
    Hexadecapole Moments (Debye-Ang^3)
      XXXX   -6201.0607   XXXY     178.3425   XXYY   -1259.6985
      XYYY     261.7209   YYYY    -869.1156   XXXZ      95.9278
      XXYZ      24.9699   XYYZ       2.5547   YYYZ     -73.0455
      XXZZ   -1334.4811   XYZZ      78.3845   YYZZ    -197.6634
      XZZZ      58.6039   YZZZ     -90.5374   ZZZZ    -263.5589
 -----------------------------------------------------------------
 Calculating analytic gradient of the SCF energy
 Gradient of SCF Energy
            1           2           3           4           5           6
    1   0.0000059   0.0000035   0.0000252   0.0000198  -0.0000155   0.0000022
    2   0.0000047  -0.0000030  -0.0000005  -0.0000015   0.0000380  -0.0000133
    3   0.0000052  -0.0000048  -0.0000051  -0.0000040   0.0000336  -0.0000484
            7           8           9          10          11          12
    1  -0.0000026   0.0000214   0.0000069  -0.0000611   0.0000043   0.0001196
    2  -0.0000035   0.0000027  -0.0000174  -0.0000511   0.0000570  -0.0002463
    3  -0.0000094   0.0000542   0.0000948   0.0002595  -0.0003766   0.0000040
           13          14          15          16          17          18
    1  -0.0001617   0.0000540   0.0000459   0.0001410  -0.0000519   0.0000821
    2  -0.0000646   0.0000526   0.0002899   0.0003037  -0.0000401  -0.0002723
    3  -0.0002356  -0.0001212   0.0002830   0.0000797   0.0001418   0.0000737
           19          20          21          22          23
    1  -0.0002097  -0.0000506   0.0000172   0.0000154  -0.0000113
    2  -0.0000718  -0.0001652   0.0001044   0.0000827   0.0000147
    3  -0.0002555   0.0002427  -0.0000984  -0.0001141   0.0000009
 Max gradient component =       3.766E-04
 RMS gradient           =       1.239E-04
 Gradient time:  CPU 4.60 s  wall 4.56 s
 Geometry Optimization Parameters
   NAtoms,    NIC,     NZ,  NCons,   NDum,   NFix, NCnnct, MaxDiis
       23     166       0       1       0       0       0       0

 Cartesian Hessian Update
 Hessian Updated using BFGS Update


** CONSTRAINED OPTIMIZATION IN DELOCALIZED INTERNAL COORDINATES **
   Searching for a Minimum

   Optimization Cycle:   4

                       Coordinates (Angstroms)
     ATOM                X               Y               Z
      1  H         6.2361240357   -0.2731234424    0.1722933191
      2  H         5.3393416680    2.1930938475   -0.1139632248
      3  C         5.2057380836    0.0412055349    0.0786841393
      4  C         4.7115970101    1.3104663651   -0.0700133654
      5  S         3.9351918388   -1.1397385391    0.1123614006
      6  C         3.2912272565    1.3427203169   -0.1733004591
      7  H         2.7203908720    2.2533855401   -0.3172311427
      8  C         2.7045900142    0.0947278300   -0.1000013892
      9  H         1.3028070361   -2.3664074199   -0.6876928820
     10  C         1.3004729318   -0.2587057729   -0.1738685390
     11  C         0.7217319646   -1.4792163727   -0.4613414176
     12  S         0.0573049304    0.9426866265    0.1243693308
     13  C        -0.6958258603   -1.4598652606   -0.4346972674
     14  H        -1.3089479774   -2.3349764546   -0.6152426846
     15  C        -1.2292744742   -0.2205431438   -0.1382004825
     16  C        -2.6320609677    0.1450433745   -0.0634163222
     17  H        -3.5928646648   -1.4082537376   -1.2344823061
     18  C        -3.7061850098   -0.5210308753   -0.6225870330
     19  S        -3.1912593818    1.5505207869    0.8255201337
     20  C        -4.9614027012    0.0900185384   -0.3428544429
     21  C        -4.8447187889    1.2233714587    0.4192159668
     22  H        -5.9100328471   -0.2874593528   -0.7073888705
     23  H        -5.6259667587    1.8860842019    0.7651355587
   Point Group: c1    Number of degrees of freedom:    63


   Energy is  -1656.663051515

              Constraints and their Current Values
                                        Value     Constraint
   Dihedral:       13  15  16  18      -20.000      -20.000
 Hessian Updated using BFGS Update

 58 Hessian modes will be used to form the next step
  Hessian Eigenvalues:
     0.012130    0.045000    0.045000    0.045000    0.045000    0.045001
     0.045001    0.045002    0.045003    0.045006    0.045014    0.045016
     0.045084    0.046717    0.048548    0.159904    0.159939    0.159958
     0.159968    0.159992    0.160000    0.160134    0.160386    0.221283
     0.222074    0.226797    0.237911    0.241442    0.249982    0.249999
     0.250080    0.261379    0.273279    0.293641    0.294338    0.295045
     0.301694    0.312572    0.313332    0.354742    0.354748    0.354750
     0.354958    0.355164    0.355241    0.358372    0.358494    0.383705
     0.390779    0.405857    0.409325    0.425405    0.458906    0.462014
     0.463710    0.486020    0.497289    0.497852

 Minimum Search - Taking Simple RFO Step
 Searching for Lamda that Minimizes Along All modes
 Value Taken    Lamda =  -0.00001989
 Step Taken.  Stepsize is  0.033164

                             Maximum     Tolerance    Cnvgd?
         Gradient           0.000636      0.000300      NO
         Displacement       0.014966      0.001200      NO
         Energy change     -0.000033      0.000001      NO


 New Cartesian Coordinates Obtained by Inverse Iteration

 Displacement from previous Coordinates is:  0.064981
 ----------------------------------------------------------------
             Standard Nuclear Orientation (Angstroms)
    I     Atom           X                Y                Z
 ----------------------------------------------------------------
    1      H       6.2357772140    -0.2711620781     0.1689391953
    2      H       5.3372883272     2.1945416558    -0.1168448050
    3      C       5.2051437387     0.0425583264     0.0761139510
    4      C       4.7101396122     1.3115138516    -0.0724098313
    5      S       3.9354210915    -1.1392317964     0.1108839635
    6      C       3.2897207658     1.3429066633    -0.1746825728
    7      H       2.7182376767     2.2532590266    -0.3180547031
    8      C       2.7039812579     0.0945566619    -0.1006954230
    9      H       1.3033210462    -2.3690720299    -0.6801188013
   10      C       1.3000747629    -0.2597874500    -0.1728753617
   11      C       0.7218033925    -1.4816214601    -0.4559104887
   12      S       0.0564456391     0.9414408083     0.1243156009
   13      C      -0.6957209879    -1.4629595779    -0.4289790622
   14      H      -1.3088629823    -2.3396551497    -0.6019253606
   15      C      -1.2292641330    -0.2232587421    -0.1342479071
   16      C      -2.6315305843     0.1452025960    -0.0655694897
   17      H      -3.5909779754    -1.3976881311    -1.2511496161
   18      C      -3.7053569641    -0.5173359084    -0.6295193648
   19      S      -3.1902995424     1.5446516902     0.8326431070
   20      C      -4.9602705997     0.0930922962    -0.3475381567
   21      C      -4.8435822133     1.2210693633     0.4226028627
   22      H      -5.9088788473    -0.2814026685    -0.7152128492
   23      H      -5.6246314848     1.8823861026     0.7715331329
 ----------------------------------------------------------------
 Nuclear Repulsion Energy =  1177.3033733585 hartrees
 There are       64 alpha and       64 beta electrons
 Applying Cartesian multipole field
    Component          Value
    ---------          -----
     (2,0,0)        1.00000E-12
     (0,2,0)        2.00000E-11
     (0,0,2)       -3.00000E-11
 Nucleus-field energy     =     0.0000000140 hartrees
 Requested basis set is 6-31++G(d,p)
 There are 110 shells and 345 basis functions
 A cutoff of  1.0D-12 yielded   4671 shell pairs
 There are     47555 function pairs

 Q-Chem warning in module /project/projectdirs/jcesr/qchem/qc44/cnl_qc441/compile/cori/qc_src/libqints/qchem/aobasis.C, line 68:

 Using reconstructed effective core potential

 Smallest overlap matrix eigenvalue = 7.97E-08
 Linear dependence detected in AO basis
 Number of orthogonalized atomic orbitals = 342
 Maximum deviation from orthogonality = 4.612E-11
 Guess MOs from SCF MO coefficient file
 Reading MOs from coefficient file
 Reading MOs from coefficient file
 A restricted hybrid HF-DFT SCF calculation will be
 performed using Pulay DIIS extrapolation
 Exchange:     0.2000 Hartree-Fock + 0.0800 Slater + 0.7200 B88
 Correlation:  0.1900 VWN1RPA + 0.8100 LYP
 Using SG-1 standard quadrature grid
 SCF converges when DIIS error is below 1.0E-08
 Geometry optimization detected.  Setting ReadMinima to 0
 Setting SaveMinima to 0
 ---------------------------------------
  Cycle       Energy         DIIS Error
 ---------------------------------------
    1   -1656.6640066162      1.95E-04
    2   -1656.6630570559      1.86E-05
    3   -1656.6630443267      3.34E-05
    4   -1656.6630643301      5.03E-06
    5   -1656.6630646861      1.83E-06
    6   -1656.6630647185      1.16E-06
    7   -1656.6630647379      3.55E-07
    8   -1656.6630647419      1.15E-07
    9   -1656.6630647439      3.56E-08
   10   -1656.6630647425      1.20E-08
   11   -1656.6630647425      3.98E-09 Convergence criterion met
 ---------------------------------------
 SCF time:  CPU 12.03 s  wall 11.13 s
 SCF   energy in the final basis set = -1656.6630647425
 Total energy in the final basis set = -1656.6630647425
 
 --------------------------------------------------------------
 
                    Orbital Energies (a.u.)
 --------------------------------------------------------------
 
 Alpha MOs
 -- Occupied --
-88.922 -88.921 -88.921 -10.241 -10.241 -10.241 -10.240 -10.226
-10.226 -10.207 -10.206 -10.206 -10.206 -10.205 -10.205  -7.981
 -7.981  -7.980  -5.945  -5.945  -5.944  -5.942  -5.941  -5.941
 -5.938  -5.938  -5.937  -0.907  -0.892  -0.876  -0.787  -0.756
 -0.745  -0.745  -0.734  -0.697  -0.617  -0.596  -0.569  -0.564
 -0.537  -0.533  -0.530  -0.499  -0.463  -0.423  -0.420  -0.419
 -0.415  -0.408  -0.402  -0.397  -0.387  -0.377  -0.370  -0.362
 -0.352  -0.343  -0.297  -0.268  -0.263  -0.260  -0.249  -0.201
 -- Virtual --
 -0.071  -0.031  -0.013  -0.006  -0.004   0.004   0.008   0.010
  0.017   0.019   0.025   0.028   0.032   0.034   0.039   0.044
  0.047   0.052   0.056   0.056   0.062   0.067   0.072   0.074
  0.086   0.088   0.089   0.095   0.099   0.105   0.108   0.111
  0.112   0.116   0.119   0.123   0.127   0.130   0.131   0.134
  0.135   0.141   0.142   0.146   0.148   0.150   0.156   0.161
  0.164   0.171   0.173   0.175   0.181   0.184   0.184   0.189
  0.196   0.199   0.204   0.209   0.213   0.214   0.217   0.222
  0.229   0.233   0.239   0.245   0.252   0.257   0.263   0.265
  0.271   0.278   0.282   0.285   0.290   0.293   0.305   0.306
  0.315   0.326   0.334   0.345   0.346   0.354   0.362   0.365
  0.375   0.381   0.388   0.403   0.445   0.450   0.465   0.497
  0.505   0.517   0.526   0.539   0.561   0.567   0.571   0.581
  0.590   0.611   0.613   0.634   0.650   0.655   0.660   0.664
  0.666   0.672   0.677   0.686   0.695   0.714   0.715   0.722
  0.724   0.731   0.742   0.748   0.752   0.775   0.786   0.791
  0.800   0.820   0.824   0.832   0.839   0.852   0.877   0.899
  0.930   0.936   0.936   0.949   0.957   0.958   0.959   0.968
  0.972   0.981   0.990   0.993   1.002   1.009   1.026   1.038
  1.040   1.055   1.075   1.076   1.088   1.103   1.106   1.110
  1.140   1.152   1.158   1.174   1.182   1.200   1.221   1.234
  1.249   1.266   1.280   1.321   1.338   1.341   1.350   1.352
  1.361   1.364   1.376   1.442   1.466   1.484   1.507   1.510
  1.544   1.552   1.567   1.621   1.666   1.686   1.705   1.729
  1.790   1.829   1.858   1.872   1.889   1.896   1.911   1.916
  1.927   1.950   1.972   1.977   2.002   2.021   2.053   2.066
  2.081   2.097   2.127   2.147   2.172   2.176   2.183   2.214
  2.231   2.237   2.254   2.272   2.295   2.328   2.363   2.364
  2.417   2.424   2.452   2.459   2.464   2.471   2.480   2.508
  2.523   2.530   2.533   2.564   2.568   2.585   2.605   2.635
  2.666   2.684   2.706   2.717   2.732   2.786   2.853   2.871
  2.899   2.929   2.952   2.982   3.126   3.180   3.225   3.272
  3.272   3.325   3.412   3.417   3.664   3.731   3.742   3.946
  3.978   4.012   4.255   4.260   4.302   4.316   4.332   4.338
  4.385   4.474   4.555   4.637   4.697   4.737
 --------------------------------------------------------------
 
          Ground-State Mulliken Net Atomic Charges

     Atom                 Charge (a.u.)
  ----------------------------------------
      1 H                     0.197257
      2 H                     0.119943
      3 C                     0.029394
      4 C                    -0.315108
      5 S                    -0.118902
      6 C                     0.530787
      7 H                     0.129201
      8 C                    -0.419813
      9 H                     0.127364
     10 C                    -0.209505
     11 C                     0.065329
     12 S                    -0.345692
     13 C                     0.138389
     14 H                     0.117335
     15 C                    -0.170182
     16 C                    -0.290477
     17 H                     0.123844
     18 C                     0.365898
     19 S                    -0.048485
     20 C                    -0.380483
     21 C                     0.035879
     22 H                     0.120124
     23 H                     0.197904
  ----------------------------------------
  Sum of atomic charges =     0.000000

 -----------------------------------------------------------------
                    Cartesian Multipole Moments
 -----------------------------------------------------------------
    Charge (ESU x 10^10)
                 0.0000
    Dipole Moment (Debye)
         X      -0.2554      Y      -0.3432      Z      -0.4997
       Tot       0.6578
    Quadrupole Moments (Debye-Ang)
        XX     -89.2630     XY       1.8981     YY    -102.4742
        XZ       1.1896     YZ       3.2243     ZZ    -114.7454
    Octopole Moments (Debye-Ang^2)
       XXX     -23.7452    XXY      -0.4836    XYY      -6.2877
       YYY     -56.5741    XXZ      -0.2309    XYZ     -14.6185
       YYZ      -3.3334    XZZ     -17.6586    YZZ     -20.8343
       ZZZ      -1.2421
    Hexadecapole Moments (Debye-Ang^3)
      XXXX   -6199.3489   XXXY     177.4585   XXYY   -1259.8725
      XYYY     261.2687   YYYY    -867.8100   XXXZ      96.7175
      XXYZ      25.2257   XYYZ       2.7052   YYYZ     -73.2165
      XXZZ   -1333.2977   XYZZ      78.1517   YYZZ    -197.6434
      XZZZ      59.7759   YZZZ     -90.3404   ZZZZ    -264.6072
 -----------------------------------------------------------------
 Calculating analytic gradient of the SCF energy
 Gradient of SCF Energy
            1           2           3           4           5           6
    1  -0.0000034  -0.0000023   0.0000043  -0.0000171  -0.0000308   0.0000082
    2  -0.0000008   0.0000021  -0.0000014   0.0000054  -0.0000104  -0.0000064
    3   0.0000051  -0.0000009  -0.0000024  -0.0000063   0.0000385  -0.0000536
            7           8           9          10          11          12
    1  -0.0000002   0.0000399   0.0000101  -0.0000187  -0.0000820  -0.0000802
    2   0.0000039   0.0000548  -0.0000092  -0.0000176   0.0000170  -0.0002506
    3  -0.0000037   0.0000156   0.0000784   0.0001462  -0.0002333   0.0001193
           13          14          15          16          17          18
    1  -0.0000426   0.0000295   0.0001384   0.0000996  -0.0000228  -0.0001380
    2  -0.0000285  -0.0000165   0.0001310   0.0007082   0.0000719  -0.0005298
    3  -0.0007084   0.0001047   0.0008690  -0.0004520  -0.0000698   0.0004491
           19          20          21          22          23
    1   0.0000013   0.0000526   0.0000236   0.0000101   0.0000204
    2  -0.0000800  -0.0001804   0.0000753   0.0000547   0.0000071
    3  -0.0002869   0.0000911  -0.0000321  -0.0000781   0.0000104
 Max gradient component =       8.690E-04
 RMS gradient           =       2.039E-04
 Gradient time:  CPU 4.55 s  wall 4.65 s
 Geometry Optimization Parameters
   NAtoms,    NIC,     NZ,  NCons,   NDum,   NFix, NCnnct, MaxDiis
       23     166       0       1       0       0       0       0

 Cartesian Hessian Update
 Hessian Updated using BFGS Update


** CONSTRAINED OPTIMIZATION IN DELOCALIZED INTERNAL COORDINATES **
   Searching for a Minimum

   Optimization Cycle:   5

                       Coordinates (Angstroms)
     ATOM                X               Y               Z
      1  H         6.2357772140   -0.2711620781    0.1689391953
      2  H         5.3372883272    2.1945416558   -0.1168448050
      3  C         5.2051437387    0.0425583264    0.0761139510
      4  C         4.7101396122    1.3115138516   -0.0724098313
      5  S         3.9354210915   -1.1392317964    0.1108839635
      6  C         3.2897207658    1.3429066633   -0.1746825728
      7  H         2.7182376767    2.2532590266   -0.3180547031
      8  C         2.7039812579    0.0945566619   -0.1006954230
      9  H         1.3033210462   -2.3690720299   -0.6801188013
     10  C         1.3000747629   -0.2597874500   -0.1728753617
     11  C         0.7218033925   -1.4816214601   -0.4559104887
     12  S         0.0564456391    0.9414408083    0.1243156009
     13  C        -0.6957209879   -1.4629595779   -0.4289790622
     14  H        -1.3088629823   -2.3396551497   -0.6019253606
     15  C        -1.2292641330   -0.2232587421   -0.1342479071
     16  C        -2.6315305843    0.1452025960   -0.0655694897
     17  H        -3.5909779754   -1.3976881311   -1.2511496161
     18  C        -3.7053569641   -0.5173359084   -0.6295193648
     19  S        -3.1902995424    1.5446516902    0.8326431070
     20  C        -4.9602705997    0.0930922962   -0.3475381567
     21  C        -4.8435822133    1.2210693633    0.4226028627
     22  H        -5.9088788473   -0.2814026685   -0.7152128492
     23  H        -5.6246314848    1.8823861026    0.7715331329
   Point Group: c1    Number of degrees of freedom:    63


   Energy is  -1656.663064743

              Constraints and their Current Values
                                        Value     Constraint
   Dihedral:       13  15  16  18      -20.000      -20.000
 Hessian Updated using BFGS Update

 57 Hessian modes will be used to form the next step
  Hessian Eigenvalues:
     0.009901    0.040209    0.045000    0.045000    0.045000    0.045001
     0.045002    0.045005    0.045006    0.045009    0.045014    0.045016
     0.045654    0.050576    0.159793    0.159930    0.159959    0.159966
     0.159993    0.159999    0.160057    0.160382    0.221279    0.222108
     0.226755    0.228747    0.238073    0.241716    0.249987    0.250001
     0.250354    0.273486    0.293641    0.294346    0.294874    0.309135
     0.312604    0.313092    0.354738    0.354749    0.354752    0.354843
     0.355164    0.355224    0.358373    0.358514    0.383648    0.390966
     0.405883    0.409766    0.428106    0.458744    0.462127    0.463193
     0.486519    0.497286    0.499342

 Minimum Search - Taking Simple RFO Step
 Searching for Lamda that Minimizes Along All modes
 Value Taken    Lamda =  -0.00000826
 Step Taken.  Stepsize is  0.021041

                             Maximum     Tolerance    Cnvgd?
         Gradient           0.000256      0.000300     YES
         Displacement       0.009558      0.001200      NO
         Energy change     -0.000013      0.000001      NO


 New Cartesian Coordinates Obtained by Inverse Iteration

 Displacement from previous Coordinates is:  0.042957
 ----------------------------------------------------------------
             Standard Nuclear Orientation (Angstroms)
    I     Atom           X                Y                Z
 ----------------------------------------------------------------
    1      H       6.2361512060    -0.2690202930     0.1663581248
    2      H       5.3357306132     2.1960269805    -0.1187299450
    3      C       5.2052260797     0.0439761059     0.0742894879
    4      C       4.7092262868     1.3125617396    -0.0739022931
    5      S       3.9363449094    -1.1386790211     0.1098474741
    6      C       3.2886937004     1.3429449806    -0.1752420627
[...]
    4   -1656.6630728789      7.61E-07
    5   -1656.6630728895      4.00E-07
    6   -1656.6630728892      1.78E-07
    7   -1656.6630728897      5.61E-08
    8   -1656.6630728899      1.71E-08
    9   -1656.6630728896      5.08E-09 Convergence criterion met
 ---------------------------------------
 SCF time:  CPU 9.97 s  wall 9.10 s
 SCF   energy in the final basis set = -1656.6630728896
 Total energy in the final basis set = -1656.6630728896
 
 --------------------------------------------------------------
 
                    Orbital Energies (a.u.)
 --------------------------------------------------------------
 
 Alpha MOs
 -- Occupied --
-88.921 -88.921 -88.921 -10.241 -10.241 -10.241 -10.240 -10.226
-10.226 -10.207 -10.206 -10.206 -10.206 -10.205 -10.205  -7.981
 -7.981  -7.980  -5.945  -5.945  -5.944  -5.941  -5.941  -5.941
 -5.938  -5.938  -5.937  -0.907  -0.892  -0.876  -0.787  -0.756
 -0.745  -0.745  -0.734  -0.697  -0.617  -0.596  -0.569  -0.564
 -0.537  -0.533  -0.530  -0.499  -0.463  -0.423  -0.420  -0.419
 -0.415  -0.408  -0.402  -0.397  -0.387  -0.376  -0.370  -0.362
 -0.352  -0.343  -0.296  -0.268  -0.263  -0.260  -0.249  -0.201
 -- Virtual --
 -0.071  -0.031  -0.013  -0.006  -0.004   0.003   0.008   0.010
  0.017   0.019   0.025   0.028   0.032   0.034   0.038   0.044
  0.047   0.052   0.056   0.056   0.062   0.066   0.072   0.074
  0.086   0.088   0.089   0.095   0.099   0.105   0.108   0.111
  0.112   0.117   0.119   0.123   0.127   0.130   0.131   0.134
  0.135   0.141   0.142   0.146   0.148   0.150   0.156   0.161
  0.164   0.171   0.173   0.175   0.181   0.184   0.184   0.189
  0.196   0.200   0.204   0.209   0.213   0.214   0.217   0.222
  0.229   0.232   0.239   0.245   0.252   0.257   0.263   0.265
  0.271   0.278   0.282   0.284   0.290   0.292   0.304   0.306
  0.315   0.325   0.334   0.345   0.346   0.354   0.361   0.365
  0.375   0.381   0.388   0.403   0.445   0.450   0.466   0.497
  0.505   0.517   0.526   0.539   0.561   0.567   0.571   0.581
  0.590   0.611   0.613   0.634   0.649   0.655   0.659   0.664
  0.666   0.672   0.677   0.686   0.695   0.714   0.715   0.722
  0.724   0.731   0.743   0.748   0.752   0.774   0.786   0.791
  0.799   0.820   0.824   0.832   0.839   0.853   0.877   0.900
  0.930   0.936   0.936   0.949   0.957   0.958   0.959   0.968
  0.972   0.981   0.989   0.993   1.002   1.009   1.025   1.037
  1.040   1.055   1.075   1.076   1.088   1.103   1.106   1.109
  1.139   1.153   1.159   1.174   1.181   1.200   1.222   1.235
  1.248   1.267   1.280   1.321   1.338   1.341   1.349   1.352
  1.360   1.364   1.376   1.440   1.466   1.484   1.507   1.511
  1.545   1.552   1.565   1.621   1.668   1.687   1.705   1.729
  1.790   1.829   1.858   1.872   1.889   1.896   1.911   1.916
  1.926   1.949   1.971   1.975   2.002   2.021   2.053   2.065
  2.080   2.097   2.127   2.148   2.173   2.177   2.182   2.214
  2.230   2.237   2.254   2.271   2.294   2.328   2.363   2.364
  2.417   2.424   2.453   2.460   2.464   2.472   2.480   2.507
  2.523   2.530   2.533   2.563   2.567   2.585   2.605   2.635
  2.666   2.685   2.706   2.717   2.733   2.785   2.853   2.871
  2.899   2.929   2.952   2.983   3.126   3.180   3.226   3.272
  3.272   3.325   3.412   3.416   3.664   3.731   3.741   3.947
  3.978   4.012   4.255   4.260   4.302   4.316   4.332   4.338
  4.385   4.474   4.555   4.637   4.697   4.737
 --------------------------------------------------------------
 
          Ground-State Mulliken Net Atomic Charges

     Atom                 Charge (a.u.)
  ----------------------------------------
      1 H                     0.197298
      2 H                     0.119963
      3 C                     0.029460
      4 C                    -0.317250
      5 S                    -0.119986
      6 C                     0.533879
      7 H                     0.128996
      8 C                    -0.422326
      9 H                     0.127184
     10 C                    -0.208616
     11 C                     0.060950
     12 S                    -0.342234
     13 C                     0.136904
     14 H                     0.117705
     15 C                    -0.172357
     16 C                    -0.292648
     17 H                     0.124990
     18 C                     0.375788
     19 S                    -0.050113
     20 C                    -0.381358
     21 C                     0.035916
     22 H                     0.120145
     23 H                     0.197709
  ----------------------------------------
  Sum of atomic charges =     0.000000

 -----------------------------------------------------------------
                    Cartesian Multipole Moments
 -----------------------------------------------------------------
    Charge (ESU x 10^10)
                 0.0000
    Dipole Moment (Debye)
         X      -0.2540      Y      -0.3463      Z      -0.4997
       Tot       0.6589
    Quadrupole Moments (Debye-Ang)
        XX     -89.2350     XY       1.9070     YY    -102.4947
        XZ       1.1711     YZ       3.2295     ZZ    -114.7260
    Octopole Moments (Debye-Ang^2)
       XXX     -23.7655    XXY      -0.3690    XYY      -6.1423
       YYY     -56.4220    XXZ      -0.2961    XYZ     -14.6496
       YYZ      -3.2734    XZZ     -17.8355    YZZ     -20.7220
       ZZZ      -1.2253
    Hexadecapole Moments (Debye-Ang^3)
      XXXX   -6198.3180   XXXY     177.0797   XXYY   -1260.4067
      XYYY     261.3148   YYYY    -866.8505   XXXZ      96.8713
      XXYZ      25.6769   XYYZ       3.0228   YYYZ     -73.2390
      XXZZ   -1332.7958   XYZZ      77.9833   YYZZ    -197.6541
      XZZZ      61.0866   YZZZ     -90.0624   ZZZZ    -265.5271
 -----------------------------------------------------------------
 Calculating analytic gradient of the SCF energy
 Gradient of SCF Energy
            1           2           3           4           5           6
    1   0.0000014   0.0000001  -0.0000015   0.0000056   0.0000014  -0.0000015
    2   0.0000020  -0.0000001  -0.0000009  -0.0000023   0.0000078  -0.0000013
    3   0.0000001  -0.0000026   0.0000031   0.0000029   0.0000351  -0.0000314
            7           8           9          10          11          12
    1  -0.0000017  -0.0000045  -0.0000001   0.0000016   0.0000138   0.0000101
    2  -0.0000028   0.0000022   0.0000078  -0.0000203   0.0000006   0.0000398
    3  -0.0000080  -0.0000136  -0.0000310   0.0000261   0.0000301   0.0000311
           13          14          15          16          17          18
    1   0.0000275  -0.0000067  -0.0001029   0.0001298   0.0000112  -0.0000778
    2   0.0002147  -0.0000066  -0.0005837   0.0006825   0.0000094  -0.0004018
    3  -0.0007481   0.0000262   0.0014916  -0.0014563  -0.0000218   0.0006743
           19          20          21          22          23
    1   0.0000113  -0.0000027  -0.0000057  -0.0000040  -0.0000046
    2   0.0000310   0.0000535   0.0000042  -0.0000251  -0.0000105
    3   0.0000363  -0.0000499  -0.0000341   0.0000321   0.0000079
 Max gradient component =       1.492E-03
 RMS gradient           =       3.052E-04
 Gradient time:  CPU 4.65 s  wall 4.56 s
 Geometry Optimization Parameters
   NAtoms,    NIC,     NZ,  NCons,   NDum,   NFix, NCnnct, MaxDiis
       23     166       0       1       0       0       0       0

 Cartesian Hessian Update
 Hessian Updated using BFGS Update


** CONSTRAINED OPTIMIZATION IN DELOCALIZED INTERNAL COORDINATES **
   Searching for a Minimum

   Optimization Cycle:   8

                       Coordinates (Angstroms)
     ATOM                X               Y               Z
      1  H         6.2364877723   -0.2690734107    0.1623534149
      2  H         5.3355703983    2.1963179321   -0.1182347503
      3  C         5.2054473184    0.0439528104    0.0716667446
      4  C         4.7092081303    1.3127162617   -0.0741962393
      5  S         3.9367931654   -1.1389288111    0.1064737103
      6  C         3.2886036396    1.3430626309   -0.1742133932
      7  H         2.7161994716    2.2532230132   -0.3150963744
      8  C         2.7038902983    0.0941464512   -0.1012465297
      9  H         1.3043024778   -2.3722281544   -0.6701314937
     10  C         1.3000830421   -0.2608162680   -0.1716299175
     11  C         0.7225291982   -1.4844893360   -0.4477026502
     12  S         0.0558164205    0.9412931448    0.1201875381
     13  C        -0.6951655020   -1.4666659108   -0.4206624201
     14  H        -1.3079583672   -2.3440484874   -0.5918126979
     15  C        -1.2297319342   -0.2269047668   -0.1299545973
     16  C        -2.6313716970    0.1453386467   -0.0694301524
     17  H        -3.5907663134   -1.3900590552   -1.2635141412
     18  C        -3.7051953809   -0.5124052815   -0.6379576761
     19  S        -3.1903216834    1.5381689836    0.8407916890
     20  C        -4.9599968953    0.0977046131   -0.3536988403
     21  C        -4.8432623611    1.2195089968    0.4251846169
     22  H        -5.9087021750   -0.2747940735   -0.7231520171
     23  H        -5.6244808133    1.8789841210    0.7772741969
   Point Group: c1    Number of degrees of freedom:    63


   Energy is  -1656.663072890

              Constraints and their Current Values
                                        Value     Constraint
   Dihedral:       13  15  16  18      -20.000      -20.000
 Hessian Updated using BFGS Update

 61 Hessian modes will be used to form the next step
  Hessian Eigenvalues:
     0.007573    0.014623    0.043046    0.045000    0.045000    0.045000
     0.045000    0.045000    0.045001    0.045001    0.045003    0.045005
     0.045009    0.045013    0.045014    0.045110    0.046111    0.052703
     0.159832    0.159904    0.159942    0.159967    0.159993    0.160005
     0.160118    0.160342    0.221360    0.222197    0.227016    0.235984
     0.238628    0.242062    0.249961    0.250011    0.250347    0.274389
     0.293674    0.294350    0.294882    0.310397    0.312747    0.313330
     0.354740    0.354751    0.354758    0.354861    0.355166    0.355226
     0.358381    0.358518    0.383756    0.390870    0.406127    0.409929
     0.428561    0.458667    0.462089    0.463304    0.486695    0.497311
     0.499763

 Minimum Search - Taking Simple RFO Step
 Searching for Lamda that Minimizes Along All modes
 Value Taken    Lamda =   0.00000000
 Step Taken.  Stepsize is  0.006613

                             Maximum     Tolerance    Cnvgd?
         Gradient           0.000074      0.000300     YES
         Displacement       0.003096      0.001200      NO
         Energy change     -0.000001      0.000001     YES

 Final energy is   -1656.66307288955     


 ******************************
 **  OPTIMIZATION CONVERGED  **
 ******************************

                       Coordinates (Angstroms)
     ATOM                X               Y               Z
      1  H         6.2364877723   -0.2690734107    0.1623534149
      2  H         5.3355703983    2.1963179321   -0.1182347503
      3  C         5.2054473184    0.0439528104    0.0716667446
      4  C         4.7092081303    1.3127162617   -0.0741962393
      5  S         3.9367931654   -1.1389288111    0.1064737103
      6  C         3.2886036396    1.3430626309   -0.1742133932
      7  H         2.7161994716    2.2532230132   -0.3150963744
      8  C         2.7038902983    0.0941464512   -0.1012465297
      9  H         1.3043024778   -2.3722281544   -0.6701314937
     10  C         1.3000830421   -0.2608162680   -0.1716299175
     11  C         0.7225291982   -1.4844893360   -0.4477026502
     12  S         0.0558164205    0.9412931448    0.1201875381
     13  C        -0.6951655020   -1.4666659108   -0.4206624201
     14  H        -1.3079583672   -2.3440484874   -0.5918126979
     15  C        -1.2297319342   -0.2269047668   -0.1299545973
     16  C        -2.6313716970    0.1453386467   -0.0694301524
     17  H        -3.5907663134   -1.3900590552   -1.2635141412
     18  C        -3.7051953809   -0.5124052815   -0.6379576761
     19  S        -3.1903216834    1.5381689836    0.8407916890
     20  C        -4.9599968953    0.0977046131   -0.3536988403
     21  C        -4.8432623611    1.2195089968    0.4251846169
     22  H        -5.9087021750   -0.2747940735   -0.7231520171
     23  H        -5.6244808133    1.8789841210    0.7772741969

Z-matrix Print:
$molecule
0 1
S 
C  1 1.754544
C  2 1.381000 1 110.105663
H  3 1.084442 2 122.819718 1 179.340832 0
C  3 1.418065 2 113.775644 1 -0.292310 0
H  5 1.083793 3 123.509906 2 -178.543472 0
C  5 1.381043 3 113.720187 2 0.311885 0
C  2 1.449699 1 120.722812 3 -179.804504 0
C  8 1.380944 2 128.968270 1 -19.024268 0
H  9 1.084383 8 122.850480 2 -0.886314 0
C  9 1.424444 8 113.534248 2 -179.677773 0
H  11 1.083984 9 123.783588 8 179.559092 0
C  11 1.370142 9 112.855420 8 0.131417 0
H  13 1.081320 11 128.486764 9 179.491435 0
C  7 1.451490 5 127.790683 3 177.716108 0
C  15 1.381647 7 127.681181 5 -20.000000 0
H  16 1.083832 15 122.747564 7 -3.566703 0
C  16 1.423926 15 113.501482 7 178.190066 0
H  18 1.084109 16 123.773338 15 179.441824 0
C  18 1.370668 16 112.896337 15 0.207351 0
H  20 1.081285 18 128.511139 16 179.110948 0
S  20 1.733922 18 111.580354 16 -0.676359 0
S  13 1.734907 11 111.632674 9 -0.616087 0
$end

 
 --------------------------------------------------------------
 
                    Orbital Energies (a.u.)
 --------------------------------------------------------------
 
 Alpha MOs
 -- Occupied --
-88.921 -88.921 -88.921 -10.241 -10.241 -10.241 -10.240 -10.226
-10.226 -10.207 -10.206 -10.206 -10.206 -10.205 -10.205  -7.981
 -7.981  -7.980  -5.945  -5.945  -5.944  -5.941  -5.941  -5.941
 -5.938  -5.938  -5.937  -0.907  -0.892  -0.876  -0.787  -0.756
 -0.745  -0.745  -0.734  -0.697  -0.617  -0.596  -0.569  -0.564
 -0.537  -0.533  -0.530  -0.499  -0.463  -0.423  -0.420  -0.419
 -0.415  -0.408  -0.402  -0.397  -0.387  -0.376  -0.370  -0.362
 -0.352  -0.343  -0.296  -0.268  -0.263  -0.260  -0.249  -0.201
 -- Virtual --
 -0.071  -0.031  -0.013  -0.006  -0.004   0.003   0.008   0.010
  0.017   0.019   0.025   0.028   0.032   0.034   0.038   0.044
  0.047   0.052   0.056   0.056   0.062   0.066   0.072   0.074
  0.086   0.088   0.089   0.095   0.099   0.105   0.108   0.111
  0.112   0.117   0.119   0.123   0.127   0.130   0.131   0.134
  0.135   0.141   0.142   0.146   0.148   0.150   0.156   0.161
  0.164   0.171   0.173   0.175   0.181   0.184   0.184   0.189
  0.196   0.200   0.204   0.209   0.213   0.214   0.217   0.222
  0.229   0.232   0.239   0.245   0.252   0.257   0.263   0.265
  0.271   0.278   0.282   0.284   0.290   0.292   0.304   0.306
  0.315   0.325   0.334   0.345   0.346   0.354   0.361   0.365
  0.375   0.381   0.388   0.403   0.445   0.450   0.466   0.497
  0.505   0.517   0.526   0.539   0.561   0.567   0.571   0.581
  0.590   0.611   0.613   0.634   0.649   0.655   0.659   0.664
  0.666   0.672   0.677   0.686   0.695   0.714   0.715   0.722
  0.724   0.731   0.743   0.748   0.752   0.774   0.786   0.791
  0.799   0.820   0.824   0.832   0.839   0.853   0.877   0.900
  0.930   0.936   0.936   0.949   0.957   0.958   0.959   0.968
  0.972   0.981   0.989   0.993   1.002   1.009   1.025   1.037
  1.040   1.055   1.075   1.076   1.088   1.103   1.106   1.109
  1.139   1.153   1.159   1.174   1.181   1.200   1.222   1.235
  1.248   1.267   1.280   1.321   1.338   1.341   1.349   1.352
  1.360   1.364   1.376   1.440   1.466   1.484   1.507   1.511
  1.545   1.552   1.565   1.621   1.668   1.687   1.705   1.729
  1.790   1.829   1.858   1.872   1.889   1.896   1.911   1.916
  1.926   1.949   1.971   1.975   2.002   2.021   2.053   2.065
  2.080   2.097   2.127   2.148   2.173   2.177   2.182   2.214
  2.230   2.237   2.254   2.271   2.294   2.328   2.363   2.364
  2.417   2.424   2.453   2.460   2.464   2.472   2.480   2.507
  2.523   2.530   2.533   2.563   2.567   2.585   2.605   2.635
  2.666   2.685   2.706   2.717   2.733   2.785   2.853   2.871
  2.899   2.929   2.952   2.983   3.126   3.180   3.226   3.272
  3.272   3.325   3.412   3.416   3.664   3.731   3.741   3.947
  3.978   4.012   4.255   4.260   4.302   4.316   4.332   4.338
  4.385   4.474   4.555   4.637   4.697   4.737
 --------------------------------------------------------------
 
          Ground-State Mulliken Net Atomic Charges

     Atom                 Charge (a.u.)
  ----------------------------------------
      1 H                     0.197298
      2 H                     0.119963
      3 C                     0.029460
      4 C                    -0.317250
      5 S                    -0.119986
      6 C                     0.533879
      7 H                     0.128996
      8 C                    -0.422326
      9 H                     0.127184
     10 C                    -0.208616
     11 C                     0.060950
     12 S                    -0.342234
     13 C                     0.136904
     14 H                     0.117705
     15 C                    -0.172357
     16 C                    -0.292648
     17 H                     0.124990
     18 C                     0.375788
     19 S                    -0.050113
     20 C                    -0.381358
     21 C                     0.035916
     22 H                     0.120145
     23 H                     0.197709
  ----------------------------------------
  Sum of atomic charges =     0.000000

 -----------------------------------------------------------------
                    Cartesian Multipole Moments
 -----------------------------------------------------------------
    Charge (ESU x 10^10)
                 0.0000
    Dipole Moment (Debye)
         X      -0.2540      Y      -0.3463      Z      -0.4997
       Tot       0.6589
    Quadrupole Moments (Debye-Ang)
        XX     -89.2350     XY       1.9070     YY    -102.4947
        XZ       1.1711     YZ       3.2295     ZZ    -114.7260
    Octopole Moments (Debye-Ang^2)
       XXX     -23.7655    XXY      -0.3690    XYY      -6.1423
       YYY     -56.4220    XXZ      -0.2961    XYZ     -14.6496
       YYZ      -3.2734    XZZ     -17.8355    YZZ     -20.7220
       ZZZ      -1.2253
    Hexadecapole Moments (Debye-Ang^3)
      XXXX   -6198.3180   XXXY     177.0797   XXYY   -1260.4067
      XYYY     261.3148   YYYY    -866.8505   XXXZ      96.8713
      XXYZ      25.6769   XYYZ       3.0228   YYYZ     -73.2390
      XXZZ   -1332.7958   XYZZ      77.9833   YYZZ    -197.6541
      XZZZ      61.0866   YZZZ     -90.0624   ZZZZ    -265.5271
 -----------------------------------------------------------------
Archival summary:
1\1\nid00578\OPT\ProcedureUnspecified\BasisUnspecified\3128\bwood\TueMay3010:54:552017TueMay3010:54:552017\0\\#,OPT,ProcedureUnspecified,BasisUnspecified,\\0,1\S\C,1,1.75454\C,2,1.381,1,110.106\H,3,1.08444,2,122.82,1,179.341,0\C,3,1.41806,2,113.776,1,-0.29231,0\H,5,1.08379,3,123.51,2,-178.543,0\C,5,1.38104,3,113.72,2,0.311885,0\C,2,1.4497,1,120.723,3,-179.805,0\C,8,1.38094,2,128.968,1,-19.0243,0\H,9,1.08438,8,122.85,2,-0.886314,0\C,9,1.42444,8,113.534,2,-179.678,0\H,11,1.08398,9,123.784,8,179.559,0\C,11,1.37014,9,112.855,8,0.131417,0\H,13,1.08132,11,128.487,9,179.491,0\C,7,1.45149,5,127.791,3,177.716,0\C,15,1.38165,7,127.681,5,-20,0\H,16,1.08383,15,122.748,7,-3.5667,0\C,16,1.42393,15,113.501,7,178.19,0\H,18,1.08411,16,123.773,15,179.442,0\C,18,1.37067,16,112.896,15,0.207351,0\H,20,1.08128,18,128.511,16,179.111,0\S,20,1.73392,18,111.58,16,-0.676359,0\S,13,1.73491,11,111.633,9,-0.616087,0\\\@

 Total job time:  132.28s(wall), 140.33s(cpu) 
 Tue May 30 10:54:55 2017

        *************************************************************
        *                                                           *
        *  Thank you very much for using Q-Chem.  Have a nice day.  *
        *                                                           *
        *************************************************************


0 sent ACK to 0 
now end server 0 ... 
