srun -N 1 --ntasks-per-node 22 --cpus-per-task 2 --cpu_bind=cores --nodelist nid00584 /global/project/projectdirs/jcesr/qchem/qc44/cnl_qc441/dist/exe/qcprog.cori.haswell.exe .pt_nn_neutral_-140.0.in.36853.qcin.1 /dev/shm/eg_qchem/qchem36853/
Process 3 of 22 is on nid00584 - thread support 0
Process 5 of 22 is on nid00584 - thread support 0
Process 1 of 22 is on nid00584 - thread support 0
Process 4 of 22 is on nid00584 - thread support 0
Process 2 of 22 is on nid00584 - thread support 0
Process 6 of 22 is on nid00584 - thread support 0
Process 21 of 22 is on nid00584 - thread support 0
Process 0 of 22 is on nid00584 - thread support 0
initial socket setup ...start
initial socket setup ...done 
now start server 0 ... 
nid00584 10.128.2
Q-Chem Developer Version! Running on 10.128.2.*
                  Welcome to Q-Chem
     A Quantum Leap Into The Future Of Chemistry


 Q-Chem 4.4, Q-Chem, Inc., Pleasanton, CA (2016)

 Y. Shao,  Z. Gan,  E. Epifanovsky,  A. T. B. Gilbert,  M. Wormit,  
 J. Kussmann,  A. W. Lange,  A. Behn,  J. Deng,  X. Feng,  D. Ghosh,  
 M. Goldey,  P. R. Horn,  L. D. Jacobson,  I. Kaliman,  F. Rob,  
 R. Z. Khaliullin,  T. Kus,  A. Landau,  J. Liu,  E. I. Proynov,  Y. M. Rhee,  
 R. M. Richard,  M. A. Rohrdanz,  R. P. Steele,  E. J. Sundstrom,  
 H. L. Woodcock III,  P. M. Zimmerman,  D. Zuev,  B. Albrecht,  E. Alguire,  
 B. Austin,  S. A. Baeppler,  G. J. O. Beran,  Y. A. Bernard,  
 E. J. Berquist,  K. Brandhorst,  K. B. Bravaya,  S. T. Brown,  D. Casanova,  
 C.-M. Chang,  Y. Chen,  S. H. Chien,  K. D. Closser,  M. P. Coons,  
 D. L. Crittenden,  S. Dasgupta,  M. Diedenhofen,  R. A. DiStasio Jr.,  
 H. Do,  A. D. Dutoi,  R. G. Edgar,  P.-T. Fang,  S. Fatehi,  Q. Feng,  
 L. Fusti-Molnar,  A. Ghysels,  A. Golubeva-Zadorozhnaya,  J. Gomes,  
 A. Gunina,  M. W. D. Hanson-Heine,  P. H. P. Harbach,  A. W. Hauser,  
 J. E. Herr,  E. G. Hohenstein,  Z. C. Holden,  K. Hui,  T.-C. Jagau,  H. Ji,  
 B. Kaduk,  K. Khistyaev,  Jaehoon Kim,  Jihan Kim,  R. A. King,  
 P. Klunzinger,  K. Koh,  D. Kosenkov,  T. Kowalczyk,  C. M. Krauter,  
 A. Kunitsa,  K. U. Lao,  A. Laurent,  K. V. Lawler,  J. Lee,  D. Lefrancois,  
 S. Lehtola,  S. V. Levchenko,  C. Y. Lin,  Y.-S. Lin,  F. Liu,  E. Livshits,  
 R. C. Lochan,  A. Luenser,  P. Manohar,  S. F. Manzer,  S.-P. Mao,  Y. Mao,  
 N. Mardirossian,  A. V. Marenich,  L. A. Martinez-Martinez,  S. A. Maurer,  
 N. J. Mayhall,  J.-M. Mewes,  A. F. Morrison,  K. Nanda,  T. S. Nguyen-Beck,  
 C. M. Oana,  R. Olivares-Amaya,  D. P. O'Neill,  J. A. Parkhill,  
 T. M. Perrine,  R. Peverati,  P. A. Pieniazek,  F. Plasser,  A. Prociuk,  
 D. R. Rehn,  E. Rosta,  N. J. Russ,  N. Sergueev,  S. M. Sharada,  
 S. Sharma,  D. W. Small,  A. Sodt,  T. Stauch,  T. Stein,  D. Stuck,  
 Y.-C. Su,  A. J. W. Thom,  T. Tsuchimochi,  L. Vogt,  O. Vydrov,  T. Wang,  
 M. A. Watson,  J. Wenzel,  A. White,  C. F. Williams,  V. Vanovschi,  
 K. Yao,  S. Yeganeh,  S. R. Yost,  Z.-Q. You,  I. Y. Zhang,  X. Zhang,  
 Y. Zhao,  B. R. Brooks,  G. K. L. Chan,  D. M. Chipman,  C. J. Cramer,  
 W. A. Goddard III,  M. S. Gordon,  W. J. Hehre,  A. Klamt,  
 H. F. Schaefer III,  M. W. Schmidt,  C. D. Sherrill,  D. G. Truhlar,  
 A. Warshel,  X. Xu,  A. Aspuru-Guzik,  R. Baer,  A. T. Bell,  N. A. Besley,  
 J.-D. Chai,  A. Dreuw,  B. D. Dunietz,  T. R. Furlani,  S. R. Gwaltney,  
 C.-P. Hsu,  Y. Jung,  J. Kong,  D. S. Lambrecht,  W. Liang,  C. Ochsenfeld,  
 V. A. Rassolov,  L. V. Slipchenko,  J. E. Subotnik,  T. Van Voorhis,  
 J. M. Herbert,  A. I. Krylov,  P. M. W. Gill,  M. Head-Gordon

 Contributors to earlier versions of Q-Chem not listed above: 
 R. D. Adamson,  J. Baker,  E. F. C. Byrd,  A. K. Chakraborty,  C.-L. Cheng,  
 H. Dachsel,  R. J. Doerksen,  G. Hawkins,  A. Heyden,  S. Hirata,  
 G. Kedziora,  F. J. Keil,  C. Kelley,  P. P. Korambath,  W. Kurlancheek,  
 A. M. Lee,  M. S. Lee,  D. Liotard,  I. Lotan,  P. E. Maslen,  N. Nair,  
 D. Neuhauser,  R. Olson,  B. Peters,  J. Ritchie,  N. E. Schultz,  
 N. Shenvi,  A. C. Simmonett,  K. S. Thanthiriwatte,  Q. Wu,  W. Zhang

 Please cite Q-Chem as follows:
 Y. Shao et al., Mol. Phys. 113, 184-215 (2015)
 DOI: 10.1080/00268976.2014.952696

 Q-Chem 4.4.2 for Intel X86 EM64T Linux

 Parts of Q-Chem use Armadillo 5.200.1 (Boston Tea Smuggler).
 http://arma.sourceforge.net/

 Q-Chem begins on Tue May 30 10:52:40 2017  

Host: nid00478
0

     Scratch files written to /dev/shm/eg_qchem/qchem36853.0//
 Parallel job on  22  processors

Checking the input file for inconsistencies... 	...done.

--------------------------------------------------------------
User input:
--------------------------------------------------------------
$molecule
 0  1
 H           6.23254100       -0.22338900        0.17638100
 H           5.29752400        2.22850500       -0.10953100
 C           5.19733500        0.07486000        0.08356300
 C           4.68347900        1.33634400       -0.06443600
 S           3.94559900       -1.12581000        0.11905200
 C           3.26267300        1.34659400       -0.16511200
 H           2.67740100        2.24810800       -0.30841700
 C           2.69562400        0.08941900       -0.09094600
 H           1.33241900       -2.39005500       -0.68762600
 C           1.29739300       -0.28590200       -0.16150800
 C           0.73808300       -1.51455700       -0.45078400
 S           0.03601800        0.89451200        0.14982500
 C          -0.68041100       -1.51067300       -0.44936800
 H          -1.28012400       -2.38277100       -0.68510300
 C          -1.23220500       -0.27900200       -0.15852500
 C          -2.62830100        0.10383400       -0.08465000
 H          -2.69134036        2.06323260       -1.01431174
 C          -3.23525026        1.26492175       -0.52169242
 S          -3.81873150       -0.96483696        0.63918585
 C          -4.64018444        1.29449448       -0.28867066
 C          -5.10218990        0.15851691        0.32239344
 H          -5.28103227        2.12161892       -0.57190367
 H          -6.11576467       -0.08698911        0.60806847
$end


$rem
         jobtype = opt
        exchange = b3lyp
           basis = 6-31++g**
  max_scf_cycles = 150
      mem_static = 281
       mem_total = 2818
      sym_ignore = true
        symmetry = false
          thresh = 12
$end


$opt
CONSTRAINT
tors 13 15 16 18 -140.0
ENDCONSTRAINT
$end

--------------------------------------------------------------
 ----------------------------------------------------------------
             Standard Nuclear Orientation (Angstroms)
    I     Atom           X                Y                Z
 ----------------------------------------------------------------
    1      H       6.2325410000    -0.2233890000     0.1763810000
    2      H       5.2975240000     2.2285050000    -0.1095310000
    3      C       5.1973350000     0.0748600000     0.0835630000
    4      C       4.6834790000     1.3363440000    -0.0644360000
    5      S       3.9455990000    -1.1258100000     0.1190520000
    6      C       3.2626730000     1.3465940000    -0.1651120000
    7      H       2.6774010000     2.2481080000    -0.3084170000
    8      C       2.6956240000     0.0894190000    -0.0909460000
    9      H       1.3324190000    -2.3900550000    -0.6876260000
   10      C       1.2973930000    -0.2859020000    -0.1615080000
   11      C       0.7380830000    -1.5145570000    -0.4507840000
   12      S       0.0360180000     0.8945120000     0.1498250000
   13      C      -0.6804110000    -1.5106730000    -0.4493680000
   14      H      -1.2801240000    -2.3827710000    -0.6851030000
   15      C      -1.2322050000    -0.2790020000    -0.1585250000
   16      C      -2.6283010000     0.1038340000    -0.0846500000
   17      H      -2.6913403600     2.0632326000    -1.0143117400
   18      C      -3.2352502600     1.2649217500    -0.5216924200
   19      S      -3.8187315000    -0.9648369600     0.6391858500
   20      C      -4.6401844400     1.2944944800    -0.2886706600
   21      C      -5.1021899000     0.1585169100     0.3223934400
   22      H      -5.2810322700     2.1216189200    -0.5719036700
   23      H      -6.1157646700    -0.0869891100     0.6080684700
 ----------------------------------------------------------------
 Nuclear Repulsion Energy =  1172.8353890028 hartrees
 There are       64 alpha and       64 beta electrons
 Requested basis set is 6-31++G(d,p)
 There are 110 shells and 345 basis functions

 Total QAlloc Memory Limit   2818 MB
 Mega-Array Size       275 MB
 MEM_STATIC part       281 MB
 A cutoff of  1.0D-12 yielded   4682 shell pairs
 There are     47610 function pairs

 Q-Chem warning in module /project/projectdirs/jcesr/qchem/qc44/cnl_qc441/compile/cori/qc_src/libqints/qchem/aobasis.C, line 68:

 Using reconstructed effective core potential

 
 -------------------------------------------------------
 OpenMP Integral Computing Module                       
 Release: version 1.0, May 2013, Q-Chem Inc. Pittsburgh 
 -------------------------------------------------------
 Integral Job Info:
 Integral job number is                      11
 Integral operator is                         1
 short-range coefficients                     0
 long-range coefficients              100000000
 Omega coefficients                           0
 if combine SR and LR in K                    0
 Integral screening is                        0
 Integral computing path is                   2
 max size of driver memory is            800000
 size of driver memory is                593474
 size of scratch memory is             15166112
 max col of scratch BK array               1296
 max len of scratch array in speh3          155
 max len of scratch index in speh4           18
 max int batch size is                      520
 min int batch size is                       52
 fixed nKL is                                52
 max L of basis functions is                  2
 order of int derivative is                   0
 number of shells is                        110
 number of basis is                         345
 number of cartesian basis is               345
 number of contracted shell pairs          4682
 number of primitive shell pairs          14639
 maxK2 (contraction) of shell pair           36
 max number of K2 of shell pair               1
 max number of CS2 of shell pair            519
 max number of PS2 of shell pair           3042
 mem total for path MDJ                  101082
 -------------------------------------------------------
 Smallest overlap matrix eigenvalue = 7.46E-08
 Linear dependence detected in AO basis
 Number of orthogonalized atomic orbitals = 342
 Maximum deviation from orthogonality = 9.264E-11

 Scale SEOQF with 1.000000e-02/1.000000e-01/1.000000e-01

 Standard Electronic Orientation quadrupole field applied
 Nucleus-field energy     =     0.0000000141 hartrees
 Guess from superposition of atomic densities
 Warning:  Energy on first SCF cycle will be non-variational
 A restricted hybrid HF-DFT SCF calculation will be
 performed using Pulay DIIS extrapolation
 Exchange:     0.2000 Hartree-Fock + 0.0800 Slater + 0.7200 B88
 Correlation:  0.1900 VWN1RPA + 0.8100 LYP
 Using SG-1 standard quadrature grid
 SCF converges when DIIS error is below 1.0E-08
 ---------------------------------------
  Cycle       Energy         DIIS Error
 ---------------------------------------
    1   -1660.2937426955      3.69E-02
    2   -1656.4136380635      3.88E-03
    3   -1656.0678101218      5.89E-03
    4   -1656.6432406991      1.10E-03
    5   -1656.6581789795      5.85E-04
    6   -1656.6632579622      1.74E-04
    7   -1656.6637095645      6.85E-05
    8   -1656.6637793552      1.43E-05
    9   -1656.6637822428      5.14E-06
   10   -1656.6637826469      1.98E-06
   11   -1656.6637827148      3.58E-07
   12   -1656.6637827160      2.67E-07
   13   -1656.6637827171      6.30E-08
   14   -1656.6637827182      2.13E-08
   15   -1656.6637827173      5.48E-09 Convergence criterion met
 ---------------------------------------
 SCF time:  CPU 16.12 s  wall 15.25 s
 SCF   energy in the final basis set = -1656.6637827173
 Total energy in the final basis set = -1656.6637827173
 
 --------------------------------------------------------------
 
                    Orbital Energies (a.u.)
 --------------------------------------------------------------
 
 Alpha MOs
 -- Occupied --
-88.922 -88.921 -88.921 -10.241 -10.241 -10.240 -10.240 -10.226
-10.226 -10.206 -10.206 -10.206 -10.205 -10.205 -10.205  -7.981
 -7.981  -7.981  -5.945  -5.945  -5.945  -5.941  -5.941  -5.941
 -5.938  -5.938  -5.938  -0.907  -0.892  -0.876  -0.787  -0.756
 -0.745  -0.745  -0.733  -0.697  -0.618  -0.596  -0.570  -0.560
 -0.537  -0.535  -0.529  -0.501  -0.462  -0.422  -0.422  -0.417
 -0.416  -0.408  -0.403  -0.399  -0.386  -0.377  -0.370  -0.360
 -0.351  -0.344  -0.291  -0.266  -0.263  -0.261  -0.250  -0.204
 -- Virtual --
 -0.069  -0.031  -0.008  -0.006  -0.004   0.004   0.006   0.009
  0.010   0.018   0.024   0.026   0.030   0.038   0.040   0.041
  0.047   0.051   0.052   0.054   0.056   0.062   0.074   0.077
  0.081   0.087   0.090   0.093   0.100   0.105   0.107   0.109
  0.114   0.120   0.123   0.126   0.128   0.128   0.131   0.134
  0.135   0.138   0.140   0.145   0.149   0.152   0.156   0.159
  0.162   0.169   0.171   0.175   0.178   0.181   0.187   0.193
  0.195   0.200   0.204   0.209   0.211   0.215   0.217   0.221
  0.229   0.232   0.239   0.243   0.249   0.252   0.261   0.264
  0.268   0.270   0.273   0.275   0.285   0.298   0.304   0.313
  0.317   0.324   0.327   0.340   0.352   0.355   0.361   0.368
  0.377   0.380   0.394   0.398   0.450   0.455   0.459   0.495
  0.512   0.518   0.527   0.534   0.564   0.568   0.575   0.577
  0.592   0.617   0.620   0.624   0.633   0.654   0.658   0.662
  0.666   0.674   0.684   0.688   0.709   0.712   0.722   0.724
  0.726   0.733   0.742   0.753   0.767   0.775   0.781   0.786
  0.816   0.820   0.825   0.833   0.836   0.846   0.869   0.887
  0.932   0.934   0.937   0.944   0.955   0.957   0.963   0.968
  0.976   0.978   0.980   0.995   1.000   1.004   1.026   1.027
  1.046   1.052   1.071   1.076   1.087   1.098   1.106   1.113
  1.120   1.152   1.158   1.174   1.179   1.193   1.218   1.243
  1.256   1.267   1.291   1.309   1.330   1.344   1.349   1.354
  1.360   1.363   1.376   1.447   1.462   1.478   1.490   1.511
  1.530   1.541   1.562   1.609   1.683   1.692   1.725   1.746
  1.797   1.835   1.856   1.867   1.883   1.896   1.902   1.920
  1.927   1.949   1.957   1.984   2.006   2.029   2.048   2.072
  2.086   2.094   2.123   2.154   2.169   2.177   2.183   2.205
  2.232   2.242   2.253   2.282   2.290   2.330   2.363   2.365
  2.420   2.438   2.442   2.453   2.459   2.470   2.479   2.499
  2.518   2.527   2.535   2.566   2.579   2.591   2.601   2.622
  2.662   2.683   2.700   2.714   2.725   2.816   2.858   2.877
  2.906   2.920   2.936   2.945   3.131   3.176   3.215   3.270
  3.271   3.325   3.414   3.416   3.669   3.729   3.738   3.973
  3.975   3.983   4.253   4.273   4.303   4.321   4.332   4.347
  4.394   4.478   4.547   4.647   4.693   4.726
 --------------------------------------------------------------
 
          Ground-State Mulliken Net Atomic Charges

     Atom                 Charge (a.u.)
  ----------------------------------------
      1 H                     0.196051
      2 H                     0.119086
      3 C                     0.024226
      4 C                    -0.382740
      5 S                    -0.103982
      6 C                     0.464665
      7 H                     0.125402
      8 C                    -0.307689
      9 H                     0.123485
     10 C                    -0.188865
     11 C                    -0.042181
     12 S                    -0.144414
     13 C                     0.121650
     14 H                     0.132812
     15 C                    -0.226878
     16 C                    -0.327014
     17 H                     0.141438
     18 C                     0.386264
     19 S                    -0.006323
     20 C                    -0.453402
     21 C                     0.037369
     22 H                     0.116639
     23 H                     0.194400
  ----------------------------------------
  Sum of atomic charges =     0.000000

 -----------------------------------------------------------------
                    Cartesian Multipole Moments
 -----------------------------------------------------------------
    Charge (ESU x 10^10)
                 0.0000
    Dipole Moment (Debye)
         X      -0.0244      Y       0.5115      Z      -0.4804
       Tot       0.7022
    Quadrupole Moments (Debye-Ang)
        XX     -90.4729     XY      -0.1007     YY    -101.7158
        XZ      -0.0171     YZ      -1.2008     ZZ    -115.2893
    Octopole Moments (Debye-Ang^2)
       XXX      -8.7544    XXY      20.1291    XYY      -0.6279
       YYY      10.4792    XXZ      12.1985    XYZ       6.2222
       YYZ      -7.9431    XZZ      -9.3382    YZZ       0.9753
       ZZZ       4.1625
    Hexadecapole Moments (Debye-Ang^3)
      XXXX   -6340.3388   XXXY       7.1194   XXYY   -1297.9505
      XYYY      37.1164   YYYY    -812.9755   XXXZ      20.6772
      XXYZ     -37.9864   XYYZ      30.7239   YYYZ      20.7605
      XXZZ   -1373.5187   XYZZ       6.2757   YYZZ    -186.6209
      XZZZ      59.1102   YZZZ      22.4101   ZZZZ    -232.9707
 -----------------------------------------------------------------
 Calculating analytic gradient of the SCF energy
 Gradient of SCF Energy
            1           2           3           4           5           6
    1  -0.0000048   0.0000010   0.0000138  -0.0000925   0.0000375   0.0001145
    2  -0.0000055  -0.0000026  -0.0000210   0.0000397  -0.0000784   0.0002144
    3  -0.0000176  -0.0000117  -0.0000100   0.0000154   0.0000067   0.0000192
            7           8           9          10          11          12
    1   0.0000011  -0.0006360  -0.0000387   0.0007305  -0.0004767   0.0000895
    2  -0.0000072  -0.0001733   0.0000074  -0.0007422  -0.0000301   0.0003081
    3  -0.0000281   0.0001339   0.0000927  -0.0000739  -0.0001889   0.0005236
           13          14          15          16          17          18
    1   0.0008431   0.0004288  -0.0031365   0.0032795  -0.0004549  -0.0008471
    2  -0.0000596  -0.0003398   0.0016170  -0.0014107   0.0003384  -0.0001865
    3  -0.0012530  -0.0000037   0.0008376   0.0008304   0.0000162  -0.0011300
           19          20          21          22          23
    1  -0.0000649   0.0001965  -0.0002255   0.0000321   0.0002097
    2  -0.0002092  -0.0001372   0.0009219  -0.0000161  -0.0000276
    3   0.0004959  -0.0001927  -0.0002985   0.0000539   0.0001826
 Max gradient component =       3.279E-03
 RMS gradient           =       7.148E-04
 Gradient time:  CPU 4.62 s  wall 4.60 s
 Geometry Optimization Parameters
   NAtoms,    NIC,     NZ,  NCons,   NDum,   NFix, NCnnct, MaxDiis
       23     166       0       1       0       0       0       0


** CONSTRAINED OPTIMIZATION IN DELOCALIZED INTERNAL COORDINATES **
   Searching for a Minimum

   Optimization Cycle:   1

                       Coordinates (Angstroms)
     ATOM                X               Y               Z
      1  H         6.2325410000   -0.2233890000    0.1763810000
      2  H         5.2975240000    2.2285050000   -0.1095310000
      3  C         5.1973350000    0.0748600000    0.0835630000
      4  C         4.6834790000    1.3363440000   -0.0644360000
      5  S         3.9455990000   -1.1258100000    0.1190520000
      6  C         3.2626730000    1.3465940000   -0.1651120000
      7  H         2.6774010000    2.2481080000   -0.3084170000
      8  C         2.6956240000    0.0894190000   -0.0909460000
      9  H         1.3324190000   -2.3900550000   -0.6876260000
     10  C         1.2973930000   -0.2859020000   -0.1615080000
     11  C         0.7380830000   -1.5145570000   -0.4507840000
     12  S         0.0360180000    0.8945120000    0.1498250000
     13  C        -0.6804110000   -1.5106730000   -0.4493680000
     14  H        -1.2801240000   -2.3827710000   -0.6851030000
     15  C        -1.2322050000   -0.2790020000   -0.1585250000
     16  C        -2.6283010000    0.1038340000   -0.0846500000
     17  H        -2.6913403600    2.0632326000   -1.0143117400
     18  C        -3.2352502600    1.2649217500   -0.5216924200
     19  S        -3.8187315000   -0.9648369600    0.6391858500
     20  C        -4.6401844400    1.2944944800   -0.2886706600
     21  C        -5.1021899000    0.1585169100    0.3223934400
     22  H        -5.2810322700    2.1216189200   -0.5719036700
     23  H        -6.1157646700   -0.0869891100    0.6080684700
   Point Group: c1    Number of degrees of freedom:    63


   Energy is  -1656.663782717

              Constraints and their Current Values
                                        Value     Constraint
   Dihedral:       13  15  16  18     -140.000     -140.000

 Attempting to Generate Delocalized Internal Coordinates

 62 Hessian modes will be used to form the next step
  Hessian Eigenvalues:
     0.045000    0.045000    0.045000    0.045000    0.045000    0.045000
     0.045000    0.045000    0.045000    0.045001    0.045002    0.045002
     0.045003    0.045003    0.045009    0.045010    0.045011    0.045018
     0.045019    0.159886    0.159939    0.159955    0.159957    0.159992
     0.159993    0.160000    0.160000    0.221281    0.221281    0.226855
     0.237826    0.237826    0.245311    0.249998    0.249998    0.250000
     0.250000    0.293636    0.293684    0.294746    0.294936    0.312571
     0.312615    0.354732    0.354740    0.354742    0.354756    0.355161
     0.355164    0.358372    0.358373    0.383080    0.383176    0.405793
     0.405832    0.413732    0.458107    0.461989    0.461995    0.485493
     0.497291    0.497294

 Minimum Search - Taking Simple RFO Step
 Searching for Lamda that Minimizes Along All modes
 Value Taken    Lamda =  -0.00007529
 Step Taken.  Stepsize is  0.031232

                             Maximum     Tolerance    Cnvgd?
         Gradient           0.001137      0.000300      NO
         Displacement       0.014871      0.001200      NO
         Energy change     *********      0.000001      NO


 New Cartesian Coordinates Obtained by Inverse Iteration

 Displacement from previous Coordinates is:  0.114458
 ----------------------------------------------------------------
             Standard Nuclear Orientation (Angstroms)
    I     Atom           X                Y                Z
 ----------------------------------------------------------------
    1      H       6.2343169631    -0.2229739629     0.1638338739
    2      H       5.2983945897     2.2289479408    -0.1188852780
    3      C       5.1988085494     0.0753486492     0.0746167395
    4      C       4.6845058458     1.3367888401    -0.0716431869
    5      S       3.9470042334    -1.1250581118     0.1147188814
    6      C       3.2632271266     1.3470666528    -0.1669058637
    7      H       2.6774752398     2.2486770002    -0.3076518286
    8      C       2.6963639016     0.0901636833    -0.0904975533
    9      H       1.3317220808    -2.3893827789    -0.6831991665
   10      C       1.2971299422    -0.2854045144    -0.1551775712
   11      C       0.7374573747    -1.5147456521    -0.4427021171
   12      S       0.0363823839     0.8932462070     0.1605192935
   13      C      -0.6818231668    -1.5115155037    -0.4382476707
   14      H      -1.2853140164    -2.3806128097    -0.6751670128
   15      C      -1.2312669823    -0.2808688796    -0.1449207548
   16      C      -2.6297634509     0.1057368669    -0.0753935028
   17      H      -2.6796960745     2.0680914900    -0.9927085587
   18      C      -3.2312340067     1.2690440583    -0.5099074314
   19      S      -3.8255704218    -0.9697206599     0.6279242487
   20      C      -4.6389987936     1.2958105261    -0.2902380454
   21      C      -5.1067671334     0.1536552891     0.3060246569
   22      H      -5.2779008313     2.1240290089    -0.5749246746
   23      H      -6.1238987534    -0.0953477497     0.5764167929
 ----------------------------------------------------------------
 Nuclear Repulsion Energy =  1172.7520002571 hartrees
 There are       64 alpha and       64 beta electrons
 Applying Cartesian multipole field
    Component          Value
    ---------          -----
     (2,0,0)        1.00000E-12
     (0,2,0)        2.00000E-11
     (0,0,2)       -3.00000E-11
 Nucleus-field energy     =     0.0000000141 hartrees
 Requested basis set is 6-31++G(d,p)
 There are 110 shells and 345 basis functions
 A cutoff of  1.0D-12 yielded   4682 shell pairs
 There are     47610 function pairs

 Q-Chem warning in module /project/projectdirs/jcesr/qchem/qc44/cnl_qc441/compile/cori/qc_src/libqints/qchem/aobasis.C, line 68:

 Using reconstructed effective core potential

 Smallest overlap matrix eigenvalue = 7.50E-08
 Linear dependence detected in AO basis
 Number of orthogonalized atomic orbitals = 342
 Maximum deviation from orthogonality = 4.647E-11
 Guess MOs from SCF MO coefficient file
 Reading MOs from coefficient file
 Reading MOs from coefficient file
 A restricted hybrid HF-DFT SCF calculation will be
 performed using Pulay DIIS extrapolation
 Exchange:     0.2000 Hartree-Fock + 0.0800 Slater + 0.7200 B88
 Correlation:  0.1900 VWN1RPA + 0.8100 LYP
 Using SG-1 standard quadrature grid
 SCF converges when DIIS error is below 1.0E-08
 Geometry optimization detected.  Setting ReadMinima to 0
 Setting SaveMinima to 0
 ---------------------------------------
  Cycle       Energy         DIIS Error
 ---------------------------------------
    1   -1656.6620926046      2.64E-04
    2   -1656.6638158558      3.26E-05
    3   -1656.6637564137      6.98E-05
    4   -1656.6638353850      7.26E-06
    5   -1656.6638359893      4.15E-06
    6   -1656.6638362304      1.62E-06
    7   -1656.6638362722      5.61E-07
    8   -1656.6638362773      1.84E-07
    9   -1656.6638362802      4.87E-08
   10   -1656.6638362785      1.56E-08
   11   -1656.6638362773      6.83E-09 Convergence criterion met
 ---------------------------------------
 SCF time:  CPU 12.18 s  wall 11.25 s
 SCF   energy in the final basis set = -1656.6638362773
 Total energy in the final basis set = -1656.6638362773
 
 --------------------------------------------------------------
 
                    Orbital Energies (a.u.)
 --------------------------------------------------------------
 
 Alpha MOs
 -- Occupied --
-88.922 -88.921 -88.921 -10.241 -10.241 -10.240 -10.240 -10.226
-10.226 -10.206 -10.206 -10.206 -10.206 -10.205 -10.205  -7.981
 -7.981  -7.981  -5.945  -5.945  -5.945  -5.941  -5.941  -5.941
 -5.938  -5.938  -5.938  -0.907  -0.892  -0.876  -0.787  -0.756
 -0.745  -0.745  -0.733  -0.697  -0.617  -0.596  -0.570  -0.560
 -0.537  -0.535  -0.529  -0.501  -0.462  -0.422  -0.422  -0.417
 -0.416  -0.408  -0.403  -0.399  -0.386  -0.377  -0.370  -0.360
 -0.351  -0.344  -0.291  -0.266  -0.263  -0.261  -0.250  -0.204
 -- Virtual --
 -0.069  -0.031  -0.008  -0.006  -0.004   0.004   0.006   0.009
  0.010   0.018   0.024   0.026   0.030   0.038   0.040   0.041
  0.047   0.051   0.052   0.054   0.056   0.062   0.074   0.077
  0.081   0.087   0.090   0.093   0.100   0.105   0.107   0.109
  0.114   0.121   0.123   0.126   0.127   0.128   0.131   0.134
  0.135   0.138   0.140   0.145   0.149   0.152   0.156   0.159
  0.162   0.169   0.171   0.175   0.178   0.182   0.187   0.192
  0.195   0.200   0.204   0.210   0.211   0.215   0.217   0.221
  0.229   0.232   0.238   0.243   0.249   0.252   0.261   0.264
  0.268   0.270   0.273   0.276   0.285   0.298   0.305   0.313
  0.317   0.324   0.327   0.339   0.353   0.355   0.361   0.368
  0.377   0.380   0.394   0.398   0.450   0.455   0.460   0.495
  0.512   0.518   0.527   0.534   0.564   0.568   0.575   0.577
  0.592   0.618   0.619   0.624   0.632   0.654   0.658   0.662
  0.666   0.674   0.684   0.687   0.709   0.712   0.722   0.723
  0.725   0.733   0.742   0.753   0.768   0.775   0.781   0.786
  0.816   0.820   0.824   0.833   0.837   0.846   0.869   0.887
  0.932   0.934   0.937   0.944   0.955   0.957   0.963   0.968
  0.976   0.978   0.981   0.995   1.000   1.004   1.026   1.028
  1.046   1.052   1.072   1.076   1.087   1.098   1.106   1.113
  1.120   1.152   1.158   1.174   1.179   1.194   1.218   1.244
  1.256   1.267   1.291   1.309   1.330   1.343   1.349   1.354
  1.360   1.363   1.377   1.447   1.463   1.478   1.490   1.511
  1.530   1.540   1.562   1.608   1.683   1.692   1.725   1.745
  1.796   1.834   1.858   1.866   1.883   1.896   1.901   1.920
  1.927   1.949   1.956   1.983   2.006   2.029   2.048   2.072
  2.087   2.095   2.124   2.154   2.169   2.178   2.183   2.204
  2.232   2.241   2.252   2.281   2.290   2.329   2.363   2.365
  2.420   2.437   2.442   2.453   2.459   2.469   2.479   2.499
  2.518   2.527   2.535   2.566   2.579   2.591   2.601   2.622
  2.662   2.682   2.700   2.714   2.725   2.815   2.857   2.877
  2.906   2.920   2.936   2.944   3.131   3.175   3.215   3.270
  3.270   3.324   3.414   3.415   3.669   3.729   3.739   3.974
  3.975   3.983   4.253   4.272   4.303   4.321   4.332   4.347
  4.393   4.478   4.547   4.647   4.693   4.726
 --------------------------------------------------------------
 
          Ground-State Mulliken Net Atomic Charges

     Atom                 Charge (a.u.)
  ----------------------------------------
      1 H                     0.196029
      2 H                     0.119095
      3 C                     0.024251
      4 C                    -0.382549
      5 S                    -0.103556
      6 C                     0.463211
      7 H                     0.125392
      8 C                    -0.305657
      9 H                     0.123614
     10 C                    -0.191935
     11 C                    -0.043409
     12 S                    -0.145665
     13 C                     0.122050
     14 H                     0.132597
     15 C                    -0.222433
     16 C                    -0.325233
     17 H                     0.141271
     18 C                     0.389696
     19 S                    -0.008226
     20 C                    -0.457288
     21 C                     0.037915
     22 H                     0.116557
     23 H                     0.194272
  ----------------------------------------
  Sum of atomic charges =     0.000000

 -----------------------------------------------------------------
                    Cartesian Multipole Moments
 -----------------------------------------------------------------
    Charge (ESU x 10^10)
                 0.0000
    Dipole Moment (Debye)
         X      -0.0241      Y       0.5107      Z      -0.4976
       Tot       0.7134
    Quadrupole Moments (Debye-Ang)
        XX     -90.4517     XY      -0.0361     YY    -101.7104
        XZ       0.0374     YZ      -1.1827     ZZ    -115.3438
    Octopole Moments (Debye-Ang^2)
       XXX      -8.7918    XXY      19.7652    XYY      -0.6344
       YYY      10.7410    XXZ      11.1935    XYZ       6.1367
       YYZ      -7.9687    XZZ      -9.0261    YZZ       1.0231
       ZZZ       3.9897
    Hexadecapole Moments (Debye-Ang^3)
      XXXX   -6342.2415   XXXY       8.1997   XXYY   -1299.1174
      XYYY      35.6130   YYYY    -814.0717   XXXZ      23.5499
      XXYZ     -37.8165   XYYZ      30.5659   YYYZ      20.5263
      XXZZ   -1375.9152   XYZZ       5.7638   YYZZ    -186.5343
      XZZZ      59.6506   YZZZ      22.4320   ZZZZ    -230.0516
 -----------------------------------------------------------------
 Calculating analytic gradient of the SCF energy
 Gradient of SCF Energy
            1           2           3           4           5           6
    1   0.0000008   0.0000075   0.0000287  -0.0000395   0.0000299   0.0000911
    2   0.0000009  -0.0000047  -0.0000058  -0.0000052   0.0000197   0.0000476
    3  -0.0000023  -0.0000032   0.0000021   0.0000012  -0.0000271   0.0000200
            7           8           9          10          11          12
    1  -0.0000033  -0.0001869  -0.0000108   0.0003476  -0.0003001   0.0001589
    2  -0.0000132   0.0000456  -0.0000173  -0.0001307   0.0000040  -0.0000048
    3  -0.0000191   0.0000525   0.0000260   0.0000478   0.0000121   0.0003702
           13          14          15          16          17          18
    1   0.0001545   0.0000717  -0.0007119   0.0007834  -0.0000730  -0.0002673
    2   0.0003269  -0.0000824  -0.0001846   0.0003440   0.0000895  -0.0005761
    3  -0.0011895  -0.0000081   0.0006927   0.0006744   0.0000037  -0.0011043
           19          20          21          22          23
    1  -0.0001502   0.0002065  -0.0001720   0.0000168   0.0000176
    2   0.0000966   0.0000114   0.0001102   0.0000100  -0.0000817
    3   0.0003677   0.0000080  -0.0000123  -0.0000033   0.0000908
 Max gradient component =       1.190E-03
 RMS gradient           =       2.978E-04
 Gradient time:  CPU 4.58 s  wall 4.59 s
 Geometry Optimization Parameters
   NAtoms,    NIC,     NZ,  NCons,   NDum,   NFix, NCnnct, MaxDiis
       23     166       0       1       0       0       0       0

 Cartesian Hessian Update
 Hessian Updated using BFGS Update


** CONSTRAINED OPTIMIZATION IN DELOCALIZED INTERNAL COORDINATES **
   Searching for a Minimum

   Optimization Cycle:   2

                       Coordinates (Angstroms)
     ATOM                X               Y               Z
      1  H         6.2343169631   -0.2229739629    0.1638338739
      2  H         5.2983945897    2.2289479408   -0.1188852780
      3  C         5.1988085494    0.0753486492    0.0746167395
      4  C         4.6845058458    1.3367888401   -0.0716431869
      5  S         3.9470042334   -1.1250581118    0.1147188814
      6  C         3.2632271266    1.3470666528   -0.1669058637
      7  H         2.6774752398    2.2486770002   -0.3076518286
      8  C         2.6963639016    0.0901636833   -0.0904975533
      9  H         1.3317220808   -2.3893827789   -0.6831991665
     10  C         1.2971299422   -0.2854045144   -0.1551775712
     11  C         0.7374573747   -1.5147456521   -0.4427021171
     12  S         0.0363823839    0.8932462070    0.1605192935
     13  C        -0.6818231668   -1.5115155037   -0.4382476707
     14  H        -1.2853140164   -2.3806128097   -0.6751670128
     15  C        -1.2312669823   -0.2808688796   -0.1449207548
     16  C        -2.6297634509    0.1057368669   -0.0753935028
     17  H        -2.6796960745    2.0680914900   -0.9927085587
     18  C        -3.2312340067    1.2690440583   -0.5099074314
     19  S        -3.8255704218   -0.9697206599    0.6279242487
     20  C        -4.6389987936    1.2958105261   -0.2902380454
     21  C        -5.1067671334    0.1536552891    0.3060246569
     22  H        -5.2779008313    2.1240290089   -0.5749246746
     23  H        -6.1238987534   -0.0953477497    0.5764167929
   Point Group: c1    Number of degrees of freedom:    63


   Energy is  -1656.663836277

              Constraints and their Current Values
                                        Value     Constraint
   Dihedral:       13  15  16  18     -140.000     -140.000
 Hessian Updated using BFGS Update

 54 Hessian modes will be used to form the next step
  Hessian Eigenvalues:
     0.022767    0.045000    0.045001    0.045001    0.045002    0.045009
     0.045009    0.045010    0.045015    0.045018    0.045927    0.158504
     0.159902    0.159945    0.159958    0.159992    0.159993    0.160000
     0.162713    0.221279    0.222494    0.229122    0.235413    0.238322
     0.243259    0.248964    0.249998    0.249999    0.250094    0.291293
     0.293637    0.294444    0.295296    0.312566    0.313356    0.354704
     0.354742    0.354743    0.354752    0.355164    0.355170    0.358372
     0.358494    0.383060    0.396009    0.405830    0.406394    0.414471
     0.459709    0.461880    0.482751    0.496764    0.497117    0.503087

 Minimum Search - Taking Simple RFO Step
 Searching for Lamda that Minimizes Along All modes
 Value Taken    Lamda =  -0.00004307
 Step Taken.  Stepsize is  0.042588

                             Maximum     Tolerance    Cnvgd?
         Gradient           0.000442      0.000300      NO
         Displacement       0.020089      0.001200      NO
         Energy change     -0.000054      0.000001      NO


 New Cartesian Coordinates Obtained by Inverse Iteration

 Displacement from previous Coordinates is:  0.153222
 ----------------------------------------------------------------
             Standard Nuclear Orientation (Angstroms)
    I     Atom           X                Y                Z
 ----------------------------------------------------------------
    1      H       6.2348804881    -0.2225275720     0.1478784463
    2      H       5.2976616692     2.2293725918    -0.1314585503
    3      C       5.1989780772     0.0757558026     0.0632078297
    4      C       4.6840860924     1.3371645914    -0.0811975421
    5      S       3.9474370794    -1.1246981485     0.1098052409
    6      C       3.2623180360     1.3473517512    -0.1697885064
    7      H       2.6758751255     2.2489786286    -0.3076617901
    8      C       2.6961242070     0.0905317991    -0.0903102996
    9      H       1.3312448673    -2.3886253108    -0.6776884826
   10      C       1.2962607428    -0.2850531854    -0.1478221227
   11      C       0.7370239596    -1.5151367785    -0.4328888287
   12      S       0.0366524961     0.8926775537     0.1733143994
   13      C      -0.6827010755    -1.5125981505    -0.4228477126
   14      H      -1.2888632548    -2.3795531225    -0.6604002431
   15      C      -1.2302801126    -0.2826027814    -0.1257578540
   16      C      -2.6297044750     0.1078285149    -0.0620960318
   17      H      -2.6663112770     2.0768783131    -0.9619209539
   18      C      -3.2254021441     1.2747904470    -0.4932255469
   19      S      -3.8328492547    -0.9774604542     0.6109165208
   20      C      -4.6364786238     1.2976713286    -0.2929487384
   21      C      -5.1106055662     0.1478591918     0.2834198876
   22      H      -5.2729677482     2.1274165659    -0.5786735989
   23      H      -6.1318247087    -0.1050459857     0.5340287472
 ----------------------------------------------------------------
 Nuclear Repulsion Energy =  1172.8160842105 hartrees
 There are       64 alpha and       64 beta electrons
 Applying Cartesian multipole field
    Component          Value
    ---------          -----
     (2,0,0)        1.00000E-12
     (0,2,0)        2.00000E-11
     (0,0,2)       -3.00000E-11
 Nucleus-field energy     =     0.0000000143 hartrees
 Requested basis set is 6-31++G(d,p)
 There are 110 shells and 345 basis functions
 A cutoff of  1.0D-12 yielded   4683 shell pairs
 There are     47614 function pairs

 Q-Chem warning in module /project/projectdirs/jcesr/qchem/qc44/cnl_qc441/compile/cori/qc_src/libqints/qchem/aobasis.C, line 68:

 Using reconstructed effective core potential

 Smallest overlap matrix eigenvalue = 7.51E-08
 Linear dependence detected in AO basis
 Number of orthogonalized atomic orbitals = 342
 Maximum deviation from orthogonality = 2.796E-11
 Guess MOs from SCF MO coefficient file
 Reading MOs from coefficient file
 Reading MOs from coefficient file
 A restricted hybrid HF-DFT SCF calculation will be
 performed using Pulay DIIS extrapolation
 Exchange:     0.2000 Hartree-Fock + 0.0800 Slater + 0.7200 B88
 Correlation:  0.1900 VWN1RPA + 0.8100 LYP
 Using SG-1 standard quadrature grid
 SCF converges when DIIS error is below 1.0E-08
 Geometry optimization detected.  Setting ReadMinima to 0
 Setting SaveMinima to 0
 ---------------------------------------
  Cycle       Energy         DIIS Error
 ---------------------------------------
    1   -1656.6618849598      3.58E-04
    2   -1656.6638286421      4.15E-05
    3   -1656.6637250732      9.12E-05
    4   -1656.6638618885      8.50E-06
    5   -1656.6638625773      5.58E-06
    6   -1656.6638630161      2.01E-06
    7   -1656.6638630774      7.28E-07
    8   -1656.6638630869      2.08E-07
    9   -1656.6638630883      6.26E-08
   10   -1656.6638630871      2.08E-08
   11   -1656.6638630861      8.58E-09 Convergence criterion met
 ---------------------------------------
 SCF time:  CPU 12.27 s  wall 11.27 s
 SCF   energy in the final basis set = -1656.6638630861
 Total energy in the final basis set = -1656.6638630861
 
 --------------------------------------------------------------
 
                    Orbital Energies (a.u.)
 --------------------------------------------------------------
 
 Alpha MOs
 -- Occupied --
-88.922 -88.921 -88.921 -10.241 -10.241 -10.240 -10.240 -10.226
-10.226 -10.206 -10.206 -10.206 -10.206 -10.205 -10.205  -7.981
 -7.981  -7.981  -5.945  -5.945  -5.945  -5.942  -5.941  -5.941
 -5.938  -5.938  -5.938  -0.907  -0.892  -0.876  -0.787  -0.756
 -0.745  -0.745  -0.733  -0.698  -0.617  -0.596  -0.570  -0.560
 -0.536  -0.535  -0.529  -0.501  -0.462  -0.422  -0.422  -0.417
 -0.415  -0.408  -0.402  -0.399  -0.386  -0.377  -0.370  -0.360
 -0.351  -0.344  -0.291  -0.266  -0.263  -0.261  -0.250  -0.204
 -- Virtual --
 -0.069  -0.031  -0.008  -0.006  -0.004   0.004   0.006   0.009
  0.010   0.018   0.024   0.026   0.030   0.038   0.040   0.041
  0.047   0.051   0.052   0.054   0.056   0.062   0.073   0.076
  0.081   0.087   0.090   0.093   0.099   0.105   0.107   0.109
  0.114   0.121   0.123   0.126   0.127   0.128   0.131   0.134
  0.135   0.138   0.140   0.144   0.149   0.152   0.156   0.159
  0.162   0.169   0.171   0.175   0.178   0.182   0.187   0.192
  0.194   0.200   0.204   0.210   0.211   0.215   0.217   0.221
  0.229   0.232   0.238   0.243   0.249   0.251   0.261   0.264
  0.268   0.270   0.274   0.276   0.285   0.297   0.305   0.313
  0.316   0.324   0.327   0.340   0.353   0.355   0.361   0.368
  0.377   0.380   0.394   0.398   0.450   0.456   0.461   0.495
  0.513   0.518   0.528   0.534   0.564   0.568   0.575   0.577
  0.592   0.617   0.618   0.625   0.632   0.654   0.658   0.662
  0.666   0.673   0.684   0.686   0.708   0.712   0.721   0.723
  0.725   0.732   0.742   0.753   0.768   0.776   0.782   0.786
  0.817   0.821   0.825   0.833   0.837   0.846   0.869   0.886
  0.931   0.934   0.937   0.943   0.955   0.957   0.963   0.968
  0.977   0.977   0.981   0.995   1.000   1.003   1.027   1.028
  1.046   1.052   1.072   1.077   1.087   1.097   1.106   1.113
  1.119   1.152   1.158   1.174   1.179   1.195   1.217   1.245
  1.256   1.267   1.292   1.308   1.329   1.342   1.349   1.354
  1.360   1.364   1.378   1.447   1.463   1.477   1.490   1.511
  1.530   1.539   1.564   1.607   1.683   1.692   1.725   1.743
  1.795   1.834   1.860   1.865   1.884   1.895   1.902   1.920
  1.927   1.950   1.955   1.982   2.006   2.030   2.048   2.072
  2.087   2.096   2.124   2.154   2.170   2.178   2.184   2.205
  2.232   2.240   2.252   2.280   2.290   2.329   2.363   2.365
  2.420   2.437   2.442   2.453   2.459   2.469   2.479   2.499
  2.518   2.527   2.535   2.566   2.580   2.591   2.601   2.622
  2.662   2.682   2.700   2.714   2.725   2.815   2.856   2.876
  2.905   2.919   2.936   2.944   3.131   3.175   3.214   3.269
  3.270   3.324   3.414   3.415   3.669   3.729   3.739   3.974
  3.975   3.983   4.253   4.272   4.303   4.321   4.332   4.348
  4.393   4.478   4.547   4.647   4.693   4.725
 --------------------------------------------------------------
 
          Ground-State Mulliken Net Atomic Charges

     Atom                 Charge (a.u.)
  ----------------------------------------
      1 H                     0.195938
      2 H                     0.119099
      3 C                     0.023846
      4 C                    -0.381568
      5 S                    -0.102866
      6 C                     0.459693
      7 H                     0.125272
      8 C                    -0.301790
      9 H                     0.123790
     10 C                    -0.197008
     11 C                    -0.043493
     12 S                    -0.147455
     13 C                     0.121912
     14 H                     0.132074
     15 C                    -0.215113
     16 C                    -0.321817
     17 H                     0.140681
     18 C                     0.392973
     19 S                    -0.010827
     20 C                    -0.461253
     21 C                     0.037569
     22 H                     0.116500
     23 H                     0.193842
  ----------------------------------------
  Sum of atomic charges =     0.000000

 -----------------------------------------------------------------
                    Cartesian Multipole Moments
 -----------------------------------------------------------------
    Charge (ESU x 10^10)
                 0.0000
    Dipole Moment (Debye)
         X      -0.0251      Y       0.5101      Z      -0.5193
       Tot       0.7284
    Quadrupole Moments (Debye-Ang)
        XX     -90.4523     XY       0.0160     YY    -101.6775
        XZ       0.1109     YZ      -1.1587     ZZ    -115.4172
    Octopole Moments (Debye-Ang^2)
       XXX      -8.9273    XXY      19.4126    XYY      -0.6836
       YYY      11.1126    XXZ       9.8581    XYZ       6.0078
       YYZ      -7.9710    XZZ      -8.6112    YZZ       1.1008
       ZZZ       3.8650
    Hexadecapole Moments (Debye-Ang^3)
      XXXX   -6341.9039   XXXY       8.9200   XXYY   -1299.5826
      XYYY      33.6569   YYYY    -815.7872   XXXZ      27.3808
      XXYZ     -37.5561   XYYZ      30.2009   YYYZ      20.2152
      XXZZ   -1378.0226   XYZZ       5.1090   YYZZ    -186.5067
      XZZZ      59.8957   YZZZ      22.4855   ZZZZ    -226.1053
 -----------------------------------------------------------------
 Calculating analytic gradient of the SCF energy
 Gradient of SCF Energy
            1           2           3           4           5           6
    1  -0.0000037  -0.0000044  -0.0000342  -0.0000105  -0.0000010  -0.0000144
    2   0.0000003   0.0000039  -0.0000173   0.0000033  -0.0000148  -0.0000481
    3   0.0000085   0.0000057  -0.0000070  -0.0000109  -0.0000197   0.0000109
            7           8           9          10          11          12
    1  -0.0000045   0.0001563   0.0000188  -0.0002362   0.0001389  -0.0000107
    2   0.0000039   0.0000965  -0.0000190   0.0001039  -0.0000282  -0.0000560
    3  -0.0000044  -0.0000554  -0.0000385   0.0001261   0.0001032   0.0001691
           13          14          15          16          17          18
    1  -0.0001485  -0.0001130   0.0007701  -0.0006510   0.0001245  -0.0000829
    2   0.0004789   0.0001017  -0.0012638   0.0014124  -0.0001003  -0.0007068
    3  -0.0012286  -0.0000230   0.0009541   0.0008935  -0.0000054  -0.0011510
           19          20          21          22          23
    1   0.0000651  -0.0000537   0.0001415  -0.0000143  -0.0000321
    2   0.0001116   0.0001205  -0.0001737   0.0000082  -0.0000173
    3   0.0001470   0.0001059   0.0001349  -0.0000508  -0.0000639
 Max gradient component =       1.412E-03
 RMS gradient           =       3.862E-04
 Gradient time:  CPU 4.58 s  wall 4.59 s
 Geometry Optimization Parameters
   NAtoms,    NIC,     NZ,  NCons,   NDum,   NFix, NCnnct, MaxDiis
       23     166       0       1       0       0       0       0

 Cartesian Hessian Update
 Hessian Updated using BFGS Update


** CONSTRAINED OPTIMIZATION IN DELOCALIZED INTERNAL COORDINATES **
   Searching for a Minimum

   Optimization Cycle:   3

                       Coordinates (Angstroms)
     ATOM                X               Y               Z
      1  H         6.2348804881   -0.2225275720    0.1478784463
      2  H         5.2976616692    2.2293725918   -0.1314585503
      3  C         5.1989780772    0.0757558026    0.0632078297
      4  C         4.6840860924    1.3371645914   -0.0811975421
      5  S         3.9474370794   -1.1246981485    0.1098052409
      6  C         3.2623180360    1.3473517512   -0.1697885064
      7  H         2.6758751255    2.2489786286   -0.3076617901
      8  C         2.6961242070    0.0905317991   -0.0903102996
      9  H         1.3312448673   -2.3886253108   -0.6776884826
     10  C         1.2962607428   -0.2850531854   -0.1478221227
     11  C         0.7370239596   -1.5151367785   -0.4328888287
     12  S         0.0366524961    0.8926775537    0.1733143994
     13  C        -0.6827010755   -1.5125981505   -0.4228477126
     14  H        -1.2888632548   -2.3795531225   -0.6604002431
     15  C        -1.2302801126   -0.2826027814   -0.1257578540
     16  C        -2.6297044750    0.1078285149   -0.0620960318
     17  H        -2.6663112770    2.0768783131   -0.9619209539
     18  C        -3.2254021441    1.2747904470   -0.4932255469
     19  S        -3.8328492547   -0.9774604542    0.6109165208
     20  C        -4.6364786238    1.2976713286   -0.2929487384
     21  C        -5.1106055662    0.1478591918    0.2834198876
     22  H        -5.2729677482    2.1274165659   -0.5786735989
     23  H        -6.1318247087   -0.1050459857    0.5340287472
   Point Group: c1    Number of degrees of freedom:    63


   Energy is  -1656.663863086

              Constraints and their Current Values
                                        Value     Constraint
   Dihedral:       13  15  16  18     -140.000     -140.000
 Hessian Updated using BFGS Update

 56 Hessian modes will be used to form the next step
  Hessian Eigenvalues:
     0.014015    0.045000    0.045000    0.045001    0.045001    0.045003
     0.045007    0.045009    0.045010    0.045014    0.045018    0.045172
     0.046332    0.159880    0.159902    0.159952    0.159959    0.159993
     0.159999    0.160032    0.166942    0.221282    0.222801    0.229103
     0.238266    0.239304    0.248386    0.249893    0.249999    0.250076
     0.253468    0.293634    0.294324    0.295234    0.295936    0.312567
     0.313344    0.354733    0.354742    0.354749    0.354804    0.355164
     0.355178    0.358372    0.358581    0.383541    0.404598    0.405883
     0.409320    0.417031    0.459707    0.462189    0.482649    0.497049
     0.497434    0.531649

 Minimum Search - Taking Simple RFO Step
 Searching for Lamda that Minimizes Along All modes
 Value Taken    Lamda =  -0.00001169
 Step Taken.  Stepsize is  0.025332

                             Maximum     Tolerance    Cnvgd?
         Gradient           0.000320      0.000300      NO
         Displacement       0.012337      0.001200      NO
         Energy change     -0.000027      0.000001      NO


 New Cartesian Coordinates Obtained by Inverse Iteration

 Displacement from previous Coordinates is:  0.084215
 ----------------------------------------------------------------
             Standard Nuclear Orientation (Angstroms)
    I     Atom           X                Y                Z
 ----------------------------------------------------------------
    1      H       6.2357212065    -0.2222245304     0.1403817387
    2      H       5.2978668647     2.2294897485    -0.1382768325
    3      C       5.1996329354     0.0760193217     0.0577810460
    4      C       4.6844031802     1.3373077234    -0.0862394617
    5      S       3.9480811656    -1.1243485424     0.1077505573
    6      C       3.2623815050     1.3474136974    -0.1718727142
    7      H       2.6756976508     2.2490120857    -0.3088410483
    8      C       2.6962804559     0.0906394687    -0.0906536289
    9      H       1.3301585023    -2.3882999543    -0.6747822430
   10      C       1.2962226292    -0.2848568119    -0.1449911705
   11      C       0.7363926797    -1.5150302974    -0.4283324482
   12      S       0.0370561600     0.8926139493     0.1789297043
   13      C      -0.6833476881    -1.5129368074    -0.4143988358
   14      H      -1.2897090583    -2.3799157844    -0.6513503929
   15      C      -1.2305110118    -0.2831096761    -0.1150163351
   16      C      -2.6293815701     0.1086049311    -0.0544655548
   17      H      -2.6608155280     2.0828613077    -0.9438654639
   18      C      -3.2226220527     1.2777359971    -0.4837135172
   19      S      -3.8374846051    -0.9820558477     0.6006600119
   20      C      -4.6353333188     1.2982622089    -0.2945975481
   21      C      -5.1134338779     0.1445981844     0.2704777601
   22      H      -5.2701526997     2.1293505779    -0.5799831568
   23      H      -6.1365489249    -0.1101553597     0.5112838034
 ----------------------------------------------------------------
 Nuclear Repulsion Energy =  1172.7801718368 hartrees
 There are       64 alpha and       64 beta electrons
 Applying Cartesian multipole field
    Component          Value
    ---------          -----
     (2,0,0)        1.00000E-12
     (0,2,0)        2.00000E-11
     (0,0,2)       -3.00000E-11
 Nucleus-field energy     =     0.0000000143 hartrees
 Requested basis set is 6-31++G(d,p)
 There are 110 shells and 345 basis functions
 A cutoff of  1.0D-12 yielded   4683 shell pairs
 There are     47614 function pairs

 Q-Chem warning in module /project/projectdirs/jcesr/qchem/qc44/cnl_qc441/compile/cori/qc_src/libqints/qchem/aobasis.C, line 68:

 Using reconstructed effective core potential

 Smallest overlap matrix eigenvalue = 7.56E-08
 Linear dependence detected in AO basis
 Number of orthogonalized atomic orbitals = 342
 Maximum deviation from orthogonality = 5.891E-11
 Guess MOs from SCF MO coefficient file
 Reading MOs from coefficient file
 Reading MOs from coefficient file
 A restricted hybrid HF-DFT SCF calculation will be
 performed using Pulay DIIS extrapolation
 Exchange:     0.2000 Hartree-Fock + 0.0800 Slater + 0.7200 B88
 Correlation:  0.1900 VWN1RPA + 0.8100 LYP
 Using SG-1 standard quadrature grid
 SCF converges when DIIS error is below 1.0E-08
 Geometry optimization detected.  Setting ReadMinima to 0
 Setting SaveMinima to 0
 ---------------------------------------
  Cycle       Energy         DIIS Error
 ---------------------------------------
    1   -1656.6625626172      2.05E-04
    2   -1656.6638603529      2.31E-05
    3   -1656.6638270576      5.14E-05
    4   -1656.6638709416      4.88E-06
    5   -1656.6638711697      3.07E-06
    6   -1656.6638713003      1.13E-06
    7   -1656.6638713195      4.21E-07
    8   -1656.6638713219      1.11E-07
    9   -1656.6638713206      3.70E-08
   10   -1656.6638713195      1.13E-08
   11   -1656.6638713191      4.66E-09 Convergence criterion met
 ---------------------------------------
 SCF time:  CPU 12.06 s  wall 11.07 s
 SCF   energy in the final basis set = -1656.6638713191
 Total energy in the final basis set = -1656.6638713191
 
 --------------------------------------------------------------
 
                    Orbital Energies (a.u.)
 --------------------------------------------------------------
 
 Alpha MOs
 -- Occupied --
-88.922 -88.921 -88.921 -10.241 -10.241 -10.241 -10.240 -10.226
-10.226 -10.206 -10.206 -10.206 -10.206 -10.205 -10.205  -7.981
 -7.981  -7.981  -5.945  -5.945  -5.945  -5.942  -5.941  -5.941
 -5.938  -5.938  -5.938  -0.907  -0.892  -0.876  -0.787  -0.756
 -0.745  -0.745  -0.733  -0.698  -0.617  -0.596  -0.570  -0.560
 -0.536  -0.535  -0.529  -0.501  -0.462  -0.422  -0.422  -0.417
 -0.415  -0.408  -0.402  -0.399  -0.387  -0.377  -0.370  -0.360
 -0.351  -0.344  -0.291  -0.266  -0.263  -0.261  -0.250  -0.204
 -- Virtual --
 -0.069  -0.031  -0.008  -0.006  -0.004   0.005   0.006   0.009
  0.010   0.018   0.024   0.027   0.030   0.038   0.040   0.041
  0.047   0.051   0.052   0.054   0.056   0.062   0.073   0.076
  0.081   0.087   0.090   0.093   0.099   0.105   0.107   0.109
  0.114   0.121   0.123   0.126   0.127   0.128   0.132   0.134
  0.135   0.138   0.140   0.144   0.149   0.152   0.156   0.159
  0.162   0.169   0.171   0.175   0.179   0.182   0.187   0.192
  0.194   0.200   0.204   0.210   0.212   0.215   0.217   0.221
  0.229   0.231   0.238   0.243   0.249   0.251   0.261   0.264
  0.268   0.270   0.274   0.276   0.285   0.297   0.305   0.313
  0.316   0.324   0.327   0.340   0.353   0.356   0.361   0.368
  0.377   0.380   0.394   0.398   0.450   0.456   0.462   0.495
  0.513   0.518   0.528   0.534   0.564   0.569   0.575   0.577
  0.592   0.617   0.618   0.625   0.631   0.653   0.658   0.662
  0.666   0.673   0.684   0.686   0.707   0.712   0.721   0.722
  0.724   0.732   0.742   0.753   0.768   0.776   0.782   0.786
  0.817   0.821   0.825   0.833   0.837   0.846   0.869   0.886
  0.931   0.934   0.938   0.944   0.955   0.957   0.963   0.968
  0.977   0.977   0.981   0.995   1.000   1.003   1.027   1.028
  1.045   1.052   1.072   1.077   1.087   1.097   1.106   1.113
  1.119   1.152   1.158   1.174   1.178   1.196   1.217   1.245
  1.256   1.267   1.292   1.308   1.329   1.342   1.349   1.354
  1.360   1.363   1.378   1.447   1.463   1.477   1.490   1.511
  1.530   1.538   1.565   1.607   1.683   1.691   1.725   1.742
  1.795   1.834   1.860   1.865   1.884   1.896   1.902   1.920
  1.927   1.949   1.955   1.981   2.006   2.030   2.048   2.072
  2.087   2.097   2.124   2.154   2.170   2.178   2.185   2.205
  2.232   2.239   2.252   2.280   2.290   2.330   2.363   2.365
  2.420   2.437   2.442   2.452   2.459   2.468   2.480   2.499
  2.518   2.527   2.535   2.566   2.580   2.591   2.601   2.622
  2.663   2.682   2.700   2.714   2.725   2.814   2.856   2.876
  2.905   2.919   2.936   2.944   3.131   3.175   3.214   3.269
  3.270   3.324   3.414   3.415   3.669   3.729   3.739   3.974
  3.975   3.983   4.253   4.272   4.303   4.321   4.332   4.348
  4.393   4.479   4.547   4.647   4.692   4.725
 --------------------------------------------------------------
 
          Ground-State Mulliken Net Atomic Charges

     Atom                 Charge (a.u.)
  ----------------------------------------
      1 H                     0.195925
      2 H                     0.119125
      3 C                     0.023755
      4 C                    -0.380753
      5 S                    -0.102147
      6 C                     0.455971
      7 H                     0.125203
      8 C                    -0.298809
      9 H                     0.123799
     10 C                    -0.200124
     11 C                    -0.043119
     12 S                    -0.148597
     13 C                     0.121418
     14 H                     0.131738
     15 C                    -0.210180
     16 C                    -0.319371
     17 H                     0.140263
     18 C                     0.394374
     19 S                    -0.012409
     20 C                    -0.463787
     21 C                     0.037620
     22 H                     0.116426
     23 H                     0.193679
  ----------------------------------------
  Sum of atomic charges =     0.000000

 -----------------------------------------------------------------
                    Cartesian Multipole Moments
 -----------------------------------------------------------------
    Charge (ESU x 10^10)
                 0.0000
    Dipole Moment (Debye)
         X      -0.0245      Y       0.5108      Z      -0.5290
       Tot       0.7358
    Quadrupole Moments (Debye-Ang)
        XX     -90.4318     XY       0.0363     YY    -101.6592
        XZ       0.1440     YZ      -1.1466     ZZ    -115.4621
    Octopole Moments (Debye-Ang^2)
       XXX      -8.9739    XXY      19.2903    XYY      -0.7222
       YYY      11.3215    XXZ       9.2330    XYZ       5.9102
       YYZ      -7.9407    XZZ      -8.3783    YZZ       1.1466
       ZZZ       3.8911
    Hexadecapole Moments (Debye-Ang^3)
      XXXX   -6342.3218   XXXY       9.0764   XXYY   -1300.1239
      XYYY      32.3717   YYYY    -816.6429   XXXZ      29.0675
      XXYZ     -37.3657   XYYZ      29.8989   YYYZ      20.0517
      XXZZ   -1379.4257   XYZZ       4.6855   YYZZ    -186.5107
      XZZZ      59.7395   YZZZ      22.5377   ZZZZ    -223.9527
 -----------------------------------------------------------------
 Calculating analytic gradient of the SCF energy
 Gradient of SCF Energy
            1           2           3           4           5           6
    1   0.0000040   0.0000009   0.0000037   0.0000482  -0.0000109  -0.0000523
    2   0.0000048  -0.0000010   0.0000046  -0.0000139   0.0000324  -0.0000575
    3   0.0000078   0.0000073  -0.0000095  -0.0000069  -0.0000108   0.0000114
            7           8           9          10          11          12
    1   0.0000002   0.0001636   0.0000081  -0.0002444   0.0002204  -0.0000496
    2  -0.0000012   0.0000361   0.0000210   0.0001240  -0.0000045  -0.0001278
    3   0.0000030  -0.0000799  -0.0000401   0.0001385   0.0000823   0.0000118
           13          14          15          16          17          18
    1  -0.0001891  -0.0001082   0.0005683  -0.0004121   0.0001167  -0.0000575
    2   0.0004384   0.0000950  -0.0012787   0.0014542  -0.0000952  -0.0006541
    3  -0.0013312  -0.0000322   0.0012694   0.0011225  -0.0000172  -0.0012660
           19          20          21          22          23
    1   0.0000862  -0.0001223   0.0000939  -0.0000124  -0.0000556
    2   0.0001414   0.0000506  -0.0001540  -0.0000259   0.0000114
    3  -0.0000054   0.0001030   0.0001675  -0.0000328  -0.0000923
 Max gradient component =       1.454E-03
 RMS gradient           =       4.089E-04
 Gradient time:  CPU 4.58 s  wall 4.58 s
 Geometry Optimization Parameters
   NAtoms,    NIC,     NZ,  NCons,   NDum,   NFix, NCnnct, MaxDiis
       23     166       0       1       0       0       0       0

 Cartesian Hessian Update
 Hessian Updated using BFGS Update


** CONSTRAINED OPTIMIZATION IN DELOCALIZED INTERNAL COORDINATES **
   Searching for a Minimum

   Optimization Cycle:   4

                       Coordinates (Angstroms)
     ATOM                X               Y               Z
      1  H         6.2357212065   -0.2222245304    0.1403817387
      2  H         5.2978668647    2.2294897485   -0.1382768325
      3  C         5.1996329354    0.0760193217    0.0577810460
      4  C         4.6844031802    1.3373077234   -0.0862394617
      5  S         3.9480811656   -1.1243485424    0.1077505573
      6  C         3.2623815050    1.3474136974   -0.1718727142
      7  H         2.6756976508    2.2490120857   -0.3088410483
      8  C         2.6962804559    0.0906394687   -0.0906536289
      9  H         1.3301585023   -2.3882999543   -0.6747822430
     10  C         1.2962226292   -0.2848568119   -0.1449911705
     11  C         0.7363926797   -1.5150302974   -0.4283324482
     12  S         0.0370561600    0.8926139493    0.1789297043
     13  C        -0.6833476881   -1.5129368074   -0.4143988358
     14  H        -1.2897090583   -2.3799157844   -0.6513503929
     15  C        -1.2305110118   -0.2831096761   -0.1150163351
     16  C        -2.6293815701    0.1086049311   -0.0544655548
     17  H        -2.6608155280    2.0828613077   -0.9438654639
     18  C        -3.2226220527    1.2777359971   -0.4837135172
     19  S        -3.8374846051   -0.9820558477    0.6006600119
     20  C        -4.6353333188    1.2982622089   -0.2945975481
     21  C        -5.1134338779    0.1445981844    0.2704777601
     22  H        -5.2701526997    2.1293505779   -0.5799831568
     23  H        -6.1365489249   -0.1101553597    0.5112838034
   Point Group: c1    Number of degrees of freedom:    63


   Energy is  -1656.663871319

              Constraints and their Current Values
                                        Value     Constraint
   Dihedral:       13  15  16  18     -140.000     -140.000
 Hessian Updated using BFGS Update

 62 Hessian modes will be used to form the next step
  Hessian Eigenvalues:
     0.010281    0.044953    0.045000    0.045000    0.045000    0.045000
     0.045000    0.045000    0.045001    0.045001    0.045002    0.045002
     0.045003    0.045007    0.045009    0.045014    0.045018    0.045111
     0.045585    0.159783    0.159904    0.159947    0.159958    0.159993
     0.159998    0.160177    0.161367    0.221286    0.223091    0.229123
     0.237673    0.239779    0.247833    0.249768    0.249983    0.250090
     0.250884    0.293466    0.293636    0.294935    0.295249    0.312570
     0.313368    0.354741    0.354749    0.354756    0.354850    0.355164
     0.355314    0.358375    0.358586    0.383886    0.391293    0.405867
     0.407773    0.417055    0.459709    0.462057    0.480154    0.487440
     0.497425    0.497580

 Minimum Search - Taking Simple RFO Step
 Searching for Lamda that Minimizes Along All modes
 Value Taken    Lamda =  -0.00000595
 Step Taken.  Stepsize is  0.018343

                             Maximum     Tolerance    Cnvgd?
         Gradient           0.000275      0.000300     YES
         Displacement       0.008754      0.001200      NO
         Energy change     -0.000008      0.000001      NO


 New Cartesian Coordinates Obtained by Inverse Iteration

 Displacement from previous Coordinates is:  0.054237
 ----------------------------------------------------------------
             Standard Nuclear Orientation (Angstroms)
    I     Atom           X                Y                Z
 ----------------------------------------------------------------
    1      H       6.2357346696    -0.2220269313     0.1365533769
    2      H       5.2976005231     2.2295844398    -0.1424697812
    3      C       5.1995672695     0.0761953286     0.0549397861
    4      C       4.6841957350     1.3374283986    -0.0892696565
    5      S       3.9481472635    -1.1242502254     0.1067504571
    6      C       3.2621632344     1.3474910316    -0.1736164625
    7      H       2.6753500386     2.2490201989    -0.3105120286
    8      C       2.6961830834     0.0906709196    -0.0912550370
    9      H       1.3289863469    -2.3885101961    -0.6729193022
   10      C       1.2962837547    -0.2847749092    -0.1441917292
   11      C       0.7357907315    -1.5149579901    -0.4260712903
   12      S       0.0376190677     0.8929456286     0.1818624546
   13      C      -0.6836252568    -1.5130204338    -0.4091027630
   14      H      -1.2894301784    -2.3807368190    -0.6448198762
   15      C      -1.2307388706    -0.2831694475    -0.1081214856
   16      C      -2.6287122014     0.1089277095    -0.0494568120
   17      H      -2.6579317646     2.0874505248    -0.9315137007
   18      C      -3.2207070858     1.2795244997    -0.4774985448
   19      S      -3.8402741901    -0.9853973004     0.5937572833
   20      C      -4.6341994501     1.2985746153    -0.2958686506
   21      C      -5.1149004831     0.1424157918     0.2616558508
   22      H      -5.2676622236     2.1310418477    -0.5802823137
   23      H      -6.1388854133    -0.1134510915     0.4973344954
 ----------------------------------------------------------------
 Nuclear Repulsion Energy =  1172.7786905679 hartrees
 There are       64 alpha and       64 beta electrons
 Applying Cartesian multipole field
    Component          Value
    ---------          -----
     (2,0,0)        1.00000E-12
     (0,2,0)        2.00000E-11
     (0,0,2)       -3.00000E-11
 Nucleus-field energy     =     0.0000000144 hartrees
 Requested basis set is 6-31++G(d,p)
 There are 110 shells and 345 basis functions
 A cutoff of  1.0D-12 yielded   4683 shell pairs
 There are     47614 function pairs

 Q-Chem warning in module /project/projectdirs/jcesr/qchem/qc44/cnl_qc441/compile/cori/qc_src/libqints/qchem/aobasis.C, line 68:

 Using reconstructed effective core potential

 Smallest overlap matrix eigenvalue = 7.61E-08
 Linear dependence detected in AO basis
 Number of orthogonalized atomic orbitals = 342
 Maximum deviation from orthogonality = 4.504E-11
 Guess MOs from SCF MO coefficient file
 Reading MOs from coefficient file
 Reading MOs from coefficient file
 A restricted hybrid HF-DFT SCF calculation will be
 performed using Pulay DIIS extrapolation
 Exchange:     0.2000 Hartree-Fock + 0.0800 Slater + 0.7200 B88
 Correlation:  0.1900 VWN1RPA + 0.8100 LYP
 Using SG-1 standard quadrature grid
 SCF converges when DIIS error is below 1.0E-08
 Geometry optimization detected.  Setting ReadMinima to 0
 Setting SaveMinima to 0
 ---------------------------------------
  Cycle       Energy         DIIS Error
 ---------------------------------------
    1   -1656.6631517942      1.39E-04
    2   -1656.6638701103      1.50E-05
    3   -1656.6638562592      3.32E-05
    4   -1656.6638746068      3.45E-06
    5   -1656.6638747344      1.90E-06
    6   -1656.6638747795      7.91E-07
    7   -1656.6638747893      2.83E-07
    8   -1656.6638747918      6.99E-08
    9   -1656.6638747888      2.65E-08
   10   -1656.6638747891      7.75E-09 Convergence criterion met
 ---------------------------------------
 SCF time:  CPU 10.97 s  wall 10.19 s
 SCF   energy in the final basis set = -1656.6638747891
 Total energy in the final basis set = -1656.6638747891
 
 --------------------------------------------------------------
 
                    Orbital Energies (a.u.)
 --------------------------------------------------------------
 
 Alpha MOs
 -- Occupied --
-88.922 -88.921 -88.921 -10.241 -10.241 -10.241 -10.240 -10.226
-10.226 -10.206 -10.206 -10.206 -10.206 -10.205 -10.205  -7.981
 -7.981  -7.981  -5.945  -5.945  -5.945  -5.942  -5.941  -5.941
 -5.938  -5.938  -5.938  -0.907  -0.892  -0.876  -0.787  -0.756
 -0.745  -0.745  -0.733  -0.698  -0.617  -0.596  -0.570  -0.560
 -0.537  -0.535  -0.529  -0.501  -0.462  -0.422  -0.422  -0.417
 -0.415  -0.408  -0.402  -0.399  -0.387  -0.377  -0.370  -0.360
 -0.351  -0.344  -0.291  -0.266  -0.263  -0.261  -0.250  -0.204
 -- Virtual --
 -0.069  -0.031  -0.008  -0.006  -0.004   0.005   0.006   0.009
  0.010   0.018   0.024   0.027   0.030   0.038   0.040   0.041
  0.047   0.051   0.052   0.054   0.056   0.062   0.073   0.076
  0.081   0.087   0.090   0.093   0.099   0.105   0.107   0.109
  0.114   0.121   0.123   0.126   0.127   0.128   0.132   0.134
  0.135   0.138   0.140   0.144   0.149   0.152   0.156   0.159
  0.162   0.169   0.171   0.175   0.179   0.182   0.187   0.192
  0.194   0.200   0.204   0.210   0.212   0.215   0.217   0.221
  0.229   0.231   0.238   0.243   0.248   0.251   0.261   0.264
  0.269   0.270   0.274   0.276   0.285   0.296   0.305   0.313
  0.316   0.324   0.327   0.340   0.353   0.356   0.361   0.368
  0.377   0.380   0.394   0.398   0.450   0.456   0.462   0.495
  0.513   0.518   0.528   0.534   0.564   0.569   0.575   0.577
  0.592   0.616   0.619   0.625   0.631   0.653   0.658   0.662
  0.666   0.673   0.684   0.686   0.707   0.712   0.721   0.722
  0.724   0.732   0.742   0.753   0.768   0.776   0.782   0.786
  0.817   0.822   0.825   0.833   0.837   0.846   0.869   0.886
  0.931   0.933   0.938   0.944   0.955   0.957   0.963   0.968
  0.977   0.977   0.981   0.995   1.000   1.003   1.027   1.028
  1.045   1.051   1.072   1.077   1.087   1.097   1.106   1.113
  1.119   1.151   1.158   1.174   1.178   1.196   1.217   1.246
  1.256   1.267   1.292   1.308   1.329   1.342   1.349   1.354
  1.360   1.363   1.379   1.447   1.463   1.476   1.490   1.510
  1.530   1.538   1.566   1.607   1.683   1.691   1.725   1.741
  1.795   1.834   1.860   1.865   1.884   1.896   1.902   1.920
  1.927   1.949   1.955   1.981   2.006   2.030   2.048   2.072
  2.086   2.098   2.124   2.154   2.170   2.178   2.186   2.205
  2.232   2.239   2.251   2.280   2.291   2.330   2.363   2.365
  2.420   2.437   2.443   2.452   2.459   2.468   2.480   2.499
  2.518   2.527   2.535   2.566   2.580   2.591   2.601   2.622
  2.663   2.682   2.700   2.714   2.725   2.814   2.856   2.876
  2.905   2.919   2.936   2.944   3.131   3.175   3.215   3.270
  3.270   3.324   3.414   3.415   3.669   3.729   3.739   3.974
  3.975   3.983   4.253   4.272   4.303   4.321   4.332   4.349
  4.393   4.479   4.547   4.648   4.692   4.725
 --------------------------------------------------------------
 
          Ground-State Mulliken Net Atomic Charges

     Atom                 Charge (a.u.)
  ----------------------------------------
      1 H                     0.195906
      2 H                     0.119143
      3 C                     0.023496
      4 C                    -0.379915
      5 S                    -0.101451
      6 C                     0.452559
      7 H                     0.125160
      8 C                    -0.296292
      9 H                     0.123762
     10 C                    -0.202586
     11 C                    -0.042488
     12 S                    -0.149342
     13 C                     0.120952
     14 H                     0.131458
     15 C                    -0.206449
     16 C                    -0.317559
     17 H                     0.139913
     18 C                     0.394878
     19 S                    -0.013209
     20 C                    -0.465117
     21 C                     0.037229
     22 H                     0.116380
     23 H                     0.193571
  ----------------------------------------
  Sum of atomic charges =     0.000000

 -----------------------------------------------------------------
                    Cartesian Multipole Moments
 -----------------------------------------------------------------
    Charge (ESU x 10^10)
                 0.0000
    Dipole Moment (Debye)
         X      -0.0234      Y       0.5114      Z      -0.5323
       Tot       0.7385
    Quadrupole Moments (Debye-Ang)
        XX     -90.4292     XY       0.0407     YY    -101.6361
        XZ       0.1564     YZ      -1.1411     ZZ    -115.4922
    Octopole Moments (Debye-Ang^2)
       XXX      -8.9811    XXY      19.2408    XYY      -0.7612
       YYY      11.4622    XXZ       8.9232    XYZ       5.8356
       YYZ      -7.8957    XZZ      -8.2274    YZZ       1.1782
       ZZZ       3.9726
    Hexadecapole Moments (Debye-Ang^3)
      XXXX   -6342.4549   XXXY       8.9636   XXYY   -1300.2072
      XYYY      31.3993   YYYY    -817.2155   XXXZ      29.8253
      XXYZ     -37.2320   XYYZ      29.6309   YYYZ      19.9459
      XXZZ   -1380.0875   XYZZ       4.3935   YYZZ    -186.5487
      XZZZ      59.4550   YZZZ      22.5837   ZZZZ    -222.5941
 -----------------------------------------------------------------
 Calculating analytic gradient of the SCF energy
 Gradient of SCF Energy
            1           2           3           4           5           6
    1  -0.0000021  -0.0000032  -0.0000139   0.0000143  -0.0000126  -0.0000287
    2  -0.0000003   0.0000026   0.0000096   0.0000002  -0.0000137  -0.0000127
    3   0.0000024   0.0000026  -0.0000064  -0.0000055   0.0000014   0.0000088
            7           8           9          10          11          12
    1   0.0000029   0.0000830  -0.0000000  -0.0001076   0.0000743  -0.0000247
    2   0.0000055  -0.0000083   0.0000103   0.0000588  -0.0000062  -0.0000339
    3   0.0000048  -0.0000567  -0.0000240   0.0000849   0.0000225  -0.0000400
           13          14          15          16          17          18
    1  -0.0000204  -0.0000237  -0.0000048   0.0001866   0.0000252  -0.0001908
    2   0.0003613   0.0000273  -0.0010439   0.0012631  -0.0000287  -0.0005840
    3  -0.0014569  -0.0000251   0.0015419   0.0013115  -0.0000135  -0.0013768
           19          20          21          22          23
    1   0.0000468  -0.0000239   0.0000507  -0.0000073  -0.0000202
    2   0.0000262   0.0000109  -0.0000472  -0.0000091   0.0000118
    3  -0.0000274   0.0000260   0.0000975  -0.0000087  -0.0000635
 Max gradient component =       1.542E-03
 RMS gradient           =       4.068E-04
 Gradient time:  CPU 4.58 s  wall 4.59 s
 Geometry Optimization Parameters
   NAtoms,    NIC,     NZ,  NCons,   NDum,   NFix, NCnnct, MaxDiis
       23     166       0       1       0       0       0       0

 Cartesian Hessian Update
 Hessian Updated using BFGS Update


** CONSTRAINED OPTIMIZATION IN DELOCALIZED INTERNAL COORDINATES **
   Searching for a Minimum

   Optimization Cycle:   5

                       Coordinates (Angstroms)
     ATOM                X               Y               Z
      1  H         6.2357346696   -0.2220269313    0.1365533769
      2  H         5.2976005231    2.2295844398   -0.1424697812
      3  C         5.1995672695    0.0761953286    0.0549397861
      4  C         4.6841957350    1.3374283986   -0.0892696565
      5  S         3.9481472635   -1.1242502254    0.1067504571
      6  C         3.2621632344    1.3474910316   -0.1736164625
      7  H         2.6753500386    2.2490201989   -0.3105120286
      8  C         2.6961830834    0.0906709196   -0.0912550370
      9  H         1.3289863469   -2.3885101961   -0.6729193022
     10  C         1.2962837547   -0.2847749092   -0.1441917292
     11  C         0.7357907315   -1.5149579901   -0.4260712903
     12  S         0.0376190677    0.8929456286    0.1818624546
     13  C        -0.6836252568   -1.5130204338   -0.4091027630
     14  H        -1.2894301784   -2.3807368190   -0.6448198762
     15  C        -1.2307388706   -0.2831694475   -0.1081214856
     16  C        -2.6287122014    0.1089277095   -0.0494568120
     17  H        -2.6579317646    2.0874505248   -0.9315137007
     18  C        -3.2207070858    1.2795244997   -0.4774985448
     19  S        -3.8402741901   -0.9853973004    0.5937572833
     20  C        -4.6341994501    1.2985746153   -0.2958686506
     21  C        -5.1149004831    0.1424157918    0.2616558508
     22  H        -5.2676622236    2.1310418477   -0.5802823137
     23  H        -6.1388854133   -0.1134510915    0.4973344954
   Point Group: c1    Number of degrees of freedom:    63


   Energy is  -1656.663874789

              Constraints and their Current Values
                                        Value     Constraint
   Dihedral:       13  15  16  18     -140.000     -140.000
 Hessian Updated using BFGS Update

 61 Hessian modes will be used to form the next step
  Hessian Eigenvalues:
     0.010719    0.041598    0.045000    0.045000    0.045000    0.045000
     0.045000    0.045000    0.045001    0.045001    0.045003    0.045006
     0.045009    0.045011    0.045014    0.045019    0.045049    0.045622
     0.152358    0.159908    0.159948    0.159962    0.159993    0.159998
     0.160104    0.161745    0.221299    0.223022    0.227480    0.234924
     0.240155    0.243676    0.249843    0.249989    0.250086    0.250880
     0.289019    0.293641    0.294482    0.295246    0.312569    0.313315
     0.354715    0.354743    0.354751    0.354850    0.355164    0.355311
     0.358377    0.358571    0.382833    0.384978    0.405776    0.407933
     0.415954    0.459685    0.461884    0.477573    0.484778    0.497360
     0.497582

 Minimum Search - Taking Simple RFO Step
 Searching for Lamda that Minimizes Along All modes
 Value Taken    Lamda =   0.00000000
 Step Taken.  Stepsize is  0.003213

                             Maximum     Tolerance    Cnvgd?
         Gradient           0.000096      0.000300     YES
         Displacement       0.001097      0.001200     YES
         Energy change     -0.000003      0.000001      NO

 Final energy is   -1656.66387478911     


 ******************************
 **  OPTIMIZATION CONVERGED  **
 ******************************

                       Coordinates (Angstroms)
     ATOM                X               Y               Z
      1  H         6.2357346696   -0.2220269313    0.1365533769
      2  H         5.2976005231    2.2295844398   -0.1424697812
      3  C         5.1995672695    0.0761953286    0.0549397861
      4  C         4.6841957350    1.3374283986   -0.0892696565
      5  S         3.9481472635   -1.1242502254    0.1067504571
      6  C         3.2621632344    1.3474910316   -0.1736164625
      7  H         2.6753500386    2.2490201989   -0.3105120286
      8  C         2.6961830834    0.0906709196   -0.0912550370
      9  H         1.3289863469   -2.3885101961   -0.6729193022
     10  C         1.2962837547   -0.2847749092   -0.1441917292
     11  C         0.7357907315   -1.5149579901   -0.4260712903
     12  S         0.0376190677    0.8929456286    0.1818624546
     13  C        -0.6836252568   -1.5130204338   -0.4091027630
     14  H        -1.2894301784   -2.3807368190   -0.6448198762
     15  C        -1.2307388706   -0.2831694475   -0.1081214856
     16  C        -2.6287122014    0.1089277095   -0.0494568120
     17  H        -2.6579317646    2.0874505248   -0.9315137007
     18  C        -3.2207070858    1.2795244997   -0.4774985448
     19  S        -3.8402741901   -0.9853973004    0.5937572833
     20  C        -4.6341994501    1.2985746153   -0.2958686506
     21  C        -5.1149004831    0.1424157918    0.2616558508
     22  H        -5.2676622236    2.1310418477   -0.5802823137
     23  H        -6.1388854133   -0.1134510915    0.4973344954

Z-matrix Print:
$molecule
0 1
S 
C  1 1.753873
C  2 1.379296 1 110.313006
H  3 1.084202 2 122.644010 1 -178.648616 0
C  3 1.419519 2 113.606839 1 -0.778616 0
H  5 1.084393 3 123.422676 2 -178.110705 0
C  5 1.380927 3 113.715559 2 -0.277739 0
C  7 1.450338 5 129.037307 3 -179.069353 0
C  8 1.380838 7 128.981401 5 160.401026 0
H  9 1.084364 8 122.849810 7 -0.954513 0
C  9 1.424567 8 113.527645 7 -179.730443 0
H  11 1.083992 9 123.789931 8 179.547850 0
C  11 1.370078 9 112.844254 8 0.089940 0
H  13 1.081314 11 128.483333 9 179.587314 0
C  2 1.453104 1 120.538513 3 -178.407040 0
C  15 1.379846 2 128.986948 1 38.074185 0
H  16 1.084246 15 122.640094 2 -0.282707 0
C  16 1.425241 15 113.409483 2 178.111690 0
H  18 1.084052 16 123.804420 15 -179.504454 0
C  18 1.370624 16 112.854267 15 -0.345497 0
H  20 1.081461 18 128.337754 16 -179.328560 0
S  20 1.734049 18 111.637319 16 0.723879 0
S  13 1.734879 11 111.640568 9 -0.592084 0
$end

 
 --------------------------------------------------------------
 
                    Orbital Energies (a.u.)
 --------------------------------------------------------------
 
 Alpha MOs
 -- Occupied --
-88.922 -88.921 -88.921 -10.241 -10.241 -10.241 -10.240 -10.226
-10.226 -10.206 -10.206 -10.206 -10.206 -10.205 -10.205  -7.981
 -7.981  -7.981  -5.945  -5.945  -5.945  -5.942  -5.941  -5.941
 -5.938  -5.938  -5.938  -0.907  -0.892  -0.876  -0.787  -0.756
 -0.745  -0.745  -0.733  -0.698  -0.617  -0.596  -0.570  -0.560
 -0.537  -0.535  -0.529  -0.501  -0.462  -0.422  -0.422  -0.417
 -0.415  -0.408  -0.402  -0.399  -0.387  -0.377  -0.370  -0.360
 -0.351  -0.344  -0.291  -0.266  -0.263  -0.261  -0.250  -0.204
 -- Virtual --
 -0.069  -0.031  -0.008  -0.006  -0.004   0.005   0.006   0.009
  0.010   0.018   0.024   0.027   0.030   0.038   0.040   0.041
  0.047   0.051   0.052   0.054   0.056   0.062   0.073   0.076
  0.081   0.087   0.090   0.093   0.099   0.105   0.107   0.109
  0.114   0.121   0.123   0.126   0.127   0.128   0.132   0.134
  0.135   0.138   0.140   0.144   0.149   0.152   0.156   0.159
  0.162   0.169   0.171   0.175   0.179   0.182   0.187   0.192
  0.194   0.200   0.204   0.210   0.212   0.215   0.217   0.221
  0.229   0.231   0.238   0.243   0.248   0.251   0.261   0.264
  0.269   0.270   0.274   0.276   0.285   0.296   0.305   0.313
  0.316   0.324   0.327   0.340   0.353   0.356   0.361   0.368
  0.377   0.380   0.394   0.398   0.450   0.456   0.462   0.495
  0.513   0.518   0.528   0.534   0.564   0.569   0.575   0.577
  0.592   0.616   0.619   0.625   0.631   0.653   0.658   0.662
  0.666   0.673   0.684   0.686   0.707   0.712   0.721   0.722
  0.724   0.732   0.742   0.753   0.768   0.776   0.782   0.786
  0.817   0.822   0.825   0.833   0.837   0.846   0.869   0.886
  0.931   0.933   0.938   0.944   0.955   0.957   0.963   0.968
  0.977   0.977   0.981   0.995   1.000   1.003   1.027   1.028
  1.045   1.051   1.072   1.077   1.087   1.097   1.106   1.113
  1.119   1.151   1.158   1.174   1.178   1.196   1.217   1.246
  1.256   1.267   1.292   1.308   1.329   1.342   1.349   1.354
  1.360   1.363   1.379   1.447   1.463   1.476   1.490   1.510
  1.530   1.538   1.566   1.607   1.683   1.691   1.725   1.741
  1.795   1.834   1.860   1.865   1.884   1.896   1.902   1.920
  1.927   1.949   1.955   1.981   2.006   2.030   2.048   2.072
  2.086   2.098   2.124   2.154   2.170   2.178   2.186   2.205
  2.232   2.239   2.251   2.280   2.291   2.330   2.363   2.365
  2.420   2.437   2.443   2.452   2.459   2.468   2.480   2.499
  2.518   2.527   2.535   2.566   2.580   2.591   2.601   2.622
  2.663   2.682   2.700   2.714   2.725   2.814   2.856   2.876
  2.905   2.919   2.936   2.944   3.131   3.175   3.215   3.270
  3.270   3.324   3.414   3.415   3.669   3.729   3.739   3.974
  3.975   3.983   4.253   4.272   4.303   4.321   4.332   4.349
  4.393   4.479   4.547   4.648   4.692   4.725
 --------------------------------------------------------------
 
          Ground-State Mulliken Net Atomic Charges

     Atom                 Charge (a.u.)
  ----------------------------------------
      1 H                     0.195906
      2 H                     0.119143
      3 C                     0.023496
      4 C                    -0.379915
      5 S                    -0.101451
      6 C                     0.452559
      7 H                     0.125160
      8 C                    -0.296292
      9 H                     0.123762
     10 C                    -0.202586
     11 C                    -0.042488
     12 S                    -0.149342
     13 C                     0.120952
     14 H                     0.131458
     15 C                    -0.206449
     16 C                    -0.317559
     17 H                     0.139913
     18 C                     0.394878
     19 S                    -0.013209
     20 C                    -0.465117
     21 C                     0.037229
     22 H                     0.116380
     23 H                     0.193571
  ----------------------------------------
  Sum of atomic charges =     0.000000

 -----------------------------------------------------------------
                    Cartesian Multipole Moments
 -----------------------------------------------------------------
    Charge (ESU x 10^10)
                 0.0000
    Dipole Moment (Debye)
         X      -0.0234      Y       0.5114      Z      -0.5323
       Tot       0.7385
    Quadrupole Moments (Debye-Ang)
        XX     -90.4292     XY       0.0407     YY    -101.6361
        XZ       0.1564     YZ      -1.1411     ZZ    -115.4922
    Octopole Moments (Debye-Ang^2)
       XXX      -8.9811    XXY      19.2408    XYY      -0.7612
       YYY      11.4622    XXZ       8.9232    XYZ       5.8356
       YYZ      -7.8957    XZZ      -8.2274    YZZ       1.1782
       ZZZ       3.9726
    Hexadecapole Moments (Debye-Ang^3)
      XXXX   -6342.4549   XXXY       8.9636   XXYY   -1300.2072
      XYYY      31.3993   YYYY    -817.2155   XXXZ      29.8253
      XXYZ     -37.2320   XYYZ      29.6309   YYYZ      19.9459
      XXZZ   -1380.0875   XYZZ       4.3935   YYZZ    -186.5487
      XZZZ      59.4550   YZZZ      22.5837   ZZZZ    -222.5941
 -----------------------------------------------------------------
Archival summary:
1\1\nid00584\OPT\ProcedureUnspecified\BasisUnspecified\3128\bwood\TueMay3010:54:042017TueMay3010:54:042017\0\\#,OPT,ProcedureUnspecified,BasisUnspecified,\\0,1\S\C,1,1.75387\C,2,1.3793,1,110.313\H,3,1.0842,2,122.644,1,-178.649,0\C,3,1.41952,2,113.607,1,-0.778616,0\H,5,1.08439,3,123.423,2,-178.111,0\C,5,1.38093,3,113.716,2,-0.277739,0\C,7,1.45034,5,129.037,3,-179.069,0\C,8,1.38084,7,128.981,5,160.401,0\H,9,1.08436,8,122.85,7,-0.954513,0\C,9,1.42457,8,113.528,7,-179.73,0\H,11,1.08399,9,123.79,8,179.548,0\C,11,1.37008,9,112.844,8,0.08994,0\H,13,1.08131,11,128.483,9,179.587,0\C,2,1.4531,1,120.539,3,-178.407,0\C,15,1.37985,2,128.987,1,38.0742,0\H,16,1.08425,15,122.64,2,-0.282707,0\C,16,1.42524,15,113.409,2,178.112,0\H,18,1.08405,16,123.804,15,-179.504,0\C,18,1.37062,16,112.854,15,-0.345497,0\H,20,1.08146,18,128.338,16,-179.329,0\S,20,1.73405,18,111.637,16,0.723879,0\S,13,1.73488,11,111.641,9,-0.592084,0\\\@

 Total job time:  83.84s(wall), 88.25s(cpu) 
 Tue May 30 10:54:04 2017

        *************************************************************
        *                                                           *
        *  Thank you very much for using Q-Chem.  Have a nice day.  *
        *                                                           *
        *************************************************************


0 sent ACK to 0 
now end server 0 ... 
