srun -N 1 --ntasks-per-node 22 --cpus-per-task 2 --cpu_bind=cores --nodelist nid00479 /global/project/projectdirs/jcesr/qchem/qc44/cnl_qc441/dist/exe/qcprog.cori.haswell.exe .pt_nn_neutral_130.0.in.36646.qcin.1 /dev/shm/eg_qchem/qchem36646/
Process 4 of 22 is on nid00479 - thread support 0
Process 5 of 22 is on nid00479 - thread support 0
Process 6 of 22 is on nid00479 - thread support 0
Process 1 of 22 is on nid00479 - thread support 0
Process 3 of 22 is on nid00479 - thread support 0
Process 21 of 22 is on nid00479 - thread support 0
Process 2 of 22 is on nid00479 - thread support 0
Process 0 of 22 is on nid00479 - thread support 0
initial socket setup ...start
initial socket setup ...done 
now start server 0 ... 
nid00479 10.128.1
Q-Chem Developer Version! Running on 10.128.1.*
                  Welcome to Q-Chem
     A Quantum Leap Into The Future Of Chemistry


 Q-Chem 4.4, Q-Chem, Inc., Pleasanton, CA (2016)

 Y. Shao,  Z. Gan,  E. Epifanovsky,  A. T. B. Gilbert,  M. Wormit,  
 J. Kussmann,  A. W. Lange,  A. Behn,  J. Deng,  X. Feng,  D. Ghosh,  
 M. Goldey,  P. R. Horn,  L. D. Jacobson,  I. Kaliman,  F. Rob,  
 R. Z. Khaliullin,  T. Kus,  A. Landau,  J. Liu,  E. I. Proynov,  Y. M. Rhee,  
 R. M. Richard,  M. A. Rohrdanz,  R. P. Steele,  E. J. Sundstrom,  
 H. L. Woodcock III,  P. M. Zimmerman,  D. Zuev,  B. Albrecht,  E. Alguire,  
 B. Austin,  S. A. Baeppler,  G. J. O. Beran,  Y. A. Bernard,  
 E. J. Berquist,  K. Brandhorst,  K. B. Bravaya,  S. T. Brown,  D. Casanova,  
 C.-M. Chang,  Y. Chen,  S. H. Chien,  K. D. Closser,  M. P. Coons,  
 D. L. Crittenden,  S. Dasgupta,  M. Diedenhofen,  R. A. DiStasio Jr.,  
 H. Do,  A. D. Dutoi,  R. G. Edgar,  P.-T. Fang,  S. Fatehi,  Q. Feng,  
 L. Fusti-Molnar,  A. Ghysels,  A. Golubeva-Zadorozhnaya,  J. Gomes,  
 A. Gunina,  M. W. D. Hanson-Heine,  P. H. P. Harbach,  A. W. Hauser,  
 J. E. Herr,  E. G. Hohenstein,  Z. C. Holden,  K. Hui,  T.-C. Jagau,  H. Ji,  
 B. Kaduk,  K. Khistyaev,  Jaehoon Kim,  Jihan Kim,  R. A. King,  
 P. Klunzinger,  K. Koh,  D. Kosenkov,  T. Kowalczyk,  C. M. Krauter,  
 A. Kunitsa,  K. U. Lao,  A. Laurent,  K. V. Lawler,  J. Lee,  D. Lefrancois,  
 S. Lehtola,  S. V. Levchenko,  C. Y. Lin,  Y.-S. Lin,  F. Liu,  E. Livshits,  
 R. C. Lochan,  A. Luenser,  P. Manohar,  S. F. Manzer,  S.-P. Mao,  Y. Mao,  
 N. Mardirossian,  A. V. Marenich,  L. A. Martinez-Martinez,  S. A. Maurer,  
 N. J. Mayhall,  J.-M. Mewes,  A. F. Morrison,  K. Nanda,  T. S. Nguyen-Beck,  
 C. M. Oana,  R. Olivares-Amaya,  D. P. O'Neill,  J. A. Parkhill,  
 T. M. Perrine,  R. Peverati,  P. A. Pieniazek,  F. Plasser,  A. Prociuk,  
 D. R. Rehn,  E. Rosta,  N. J. Russ,  N. Sergueev,  S. M. Sharada,  
 S. Sharma,  D. W. Small,  A. Sodt,  T. Stauch,  T. Stein,  D. Stuck,  
 Y.-C. Su,  A. J. W. Thom,  T. Tsuchimochi,  L. Vogt,  O. Vydrov,  T. Wang,  
 M. A. Watson,  J. Wenzel,  A. White,  C. F. Williams,  V. Vanovschi,  
 K. Yao,  S. Yeganeh,  S. R. Yost,  Z.-Q. You,  I. Y. Zhang,  X. Zhang,  
 Y. Zhao,  B. R. Brooks,  G. K. L. Chan,  D. M. Chipman,  C. J. Cramer,  
 W. A. Goddard III,  M. S. Gordon,  W. J. Hehre,  A. Klamt,  
 H. F. Schaefer III,  M. W. Schmidt,  C. D. Sherrill,  D. G. Truhlar,  
 A. Warshel,  X. Xu,  A. Aspuru-Guzik,  R. Baer,  A. T. Bell,  N. A. Besley,  
 J.-D. Chai,  A. Dreuw,  B. D. Dunietz,  T. R. Furlani,  S. R. Gwaltney,  
 C.-P. Hsu,  Y. Jung,  J. Kong,  D. S. Lambrecht,  W. Liang,  C. Ochsenfeld,  
 V. A. Rassolov,  L. V. Slipchenko,  J. E. Subotnik,  T. Van Voorhis,  
 J. M. Herbert,  A. I. Krylov,  P. M. W. Gill,  M. Head-Gordon

 Contributors to earlier versions of Q-Chem not listed above: 
 R. D. Adamson,  J. Baker,  E. F. C. Byrd,  A. K. Chakraborty,  C.-L. Cheng,  
 H. Dachsel,  R. J. Doerksen,  G. Hawkins,  A. Heyden,  S. Hirata,  
 G. Kedziora,  F. J. Keil,  C. Kelley,  P. P. Korambath,  W. Kurlancheek,  
 A. M. Lee,  M. S. Lee,  D. Liotard,  I. Lotan,  P. E. Maslen,  N. Nair,  
 D. Neuhauser,  R. Olson,  B. Peters,  J. Ritchie,  N. E. Schultz,  
 N. Shenvi,  A. C. Simmonett,  K. S. Thanthiriwatte,  Q. Wu,  W. Zhang

 Please cite Q-Chem as follows:
 Y. Shao et al., Mol. Phys. 113, 184-215 (2015)
 DOI: 10.1080/00268976.2014.952696

 Q-Chem 4.4.2 for Intel X86 EM64T Linux

 Parts of Q-Chem use Armadillo 5.200.1 (Boston Tea Smuggler).
 http://arma.sourceforge.net/

 Q-Chem begins on Tue May 30 10:52:44 2017  

Host: nid00478
0

     Scratch files written to /dev/shm/eg_qchem/qchem36646.0//
 Parallel job on  22  processors

Checking the input file for inconsistencies... 	...done.

--------------------------------------------------------------
User input:
--------------------------------------------------------------
$molecule
 0  1
 H           6.23254100       -0.22338900        0.17638100
 H           5.29752400        2.22850500       -0.10953100
 C           5.19733500        0.07486000        0.08356300
 C           4.68347900        1.33634400       -0.06443600
 S           3.94559900       -1.12581000        0.11905200
 C           3.26267300        1.34659400       -0.16511200
 H           2.67740100        2.24810800       -0.30841700
 C           2.69562400        0.08941900       -0.09094600
 H           1.33241900       -2.39005500       -0.68762600
 C           1.29739300       -0.28590200       -0.16150800
 C           0.73808300       -1.51455700       -0.45078400
 S           0.03601800        0.89451200        0.14982500
 C          -0.68041100       -1.51067300       -0.44936800
 H          -1.28012400       -2.38277100       -0.68510300
 C          -1.23220500       -0.27900200       -0.15852500
 C          -2.62830100        0.10383400       -0.08465000
 H          -2.79417753        1.14264604        1.81293855
 C          -3.29063501        0.78520636        0.91762920
 S          -3.74192351       -0.29463643       -1.38241229
 C          -4.67291595        0.99495991        0.64501848
 C          -5.06180595        0.47647206       -0.56213864
 H          -5.34693631        1.51731693        1.31425792
 H          -6.04157974        0.49753432       -1.01910356
$end


$rem
         jobtype = opt
        exchange = b3lyp
           basis = 6-31++g**
  max_scf_cycles = 150
      mem_static = 281
       mem_total = 2818
      sym_ignore = true
        symmetry = false
          thresh = 12
$end


$opt
CONSTRAINT
tors 13 15 16 18 130.0
ENDCONSTRAINT
$end

--------------------------------------------------------------
 ----------------------------------------------------------------
             Standard Nuclear Orientation (Angstroms)
    I     Atom           X                Y                Z
 ----------------------------------------------------------------
    1      H       6.2325410000    -0.2233890000     0.1763810000
    2      H       5.2975240000     2.2285050000    -0.1095310000
    3      C       5.1973350000     0.0748600000     0.0835630000
    4      C       4.6834790000     1.3363440000    -0.0644360000
    5      S       3.9455990000    -1.1258100000     0.1190520000
    6      C       3.2626730000     1.3465940000    -0.1651120000
    7      H       2.6774010000     2.2481080000    -0.3084170000
    8      C       2.6956240000     0.0894190000    -0.0909460000
    9      H       1.3324190000    -2.3900550000    -0.6876260000
   10      C       1.2973930000    -0.2859020000    -0.1615080000
   11      C       0.7380830000    -1.5145570000    -0.4507840000
   12      S       0.0360180000     0.8945120000     0.1498250000
   13      C      -0.6804110000    -1.5106730000    -0.4493680000
   14      H      -1.2801240000    -2.3827710000    -0.6851030000
   15      C      -1.2322050000    -0.2790020000    -0.1585250000
   16      C      -2.6283010000     0.1038340000    -0.0846500000
   17      H      -2.7941775300     1.1426460400     1.8129385500
   18      C      -3.2906350100     0.7852063600     0.9176292000
   19      S      -3.7419235100    -0.2946364300    -1.3824122900
   20      C      -4.6729159500     0.9949599100     0.6450184800
   21      C      -5.0618059500     0.4764720600    -0.5621386400
   22      H      -5.3469363100     1.5173169300     1.3142579200
   23      H      -6.0415797400     0.4975343200    -1.0191035600
 ----------------------------------------------------------------
 Nuclear Repulsion Energy =  1172.7855921844 hartrees
 There are       64 alpha and       64 beta electrons
 Requested basis set is 6-31++G(d,p)
 There are 110 shells and 345 basis functions

 Total QAlloc Memory Limit   2818 MB
 Mega-Array Size       275 MB
 MEM_STATIC part       281 MB
 A cutoff of  1.0D-12 yielded   4687 shell pairs
 There are     47667 function pairs

 Q-Chem warning in module /project/projectdirs/jcesr/qchem/qc44/cnl_qc441/compile/cori/qc_src/libqints/qchem/aobasis.C, line 68:

 Using reconstructed effective core potential

 
 -------------------------------------------------------
 OpenMP Integral Computing Module                       
 Release: version 1.0, May 2013, Q-Chem Inc. Pittsburgh 
 -------------------------------------------------------
 Integral Job Info:
 Integral job number is                      11
 Integral operator is                         1
 short-range coefficients                     0
 long-range coefficients              100000000
 Omega coefficients                           0
 if combine SR and LR in K                    0
 Integral screening is                        0
 Integral computing path is                   2
 max size of driver memory is            800000
 size of driver memory is                593474
 size of scratch memory is             15166112
 max col of scratch BK array               1296
 max len of scratch array in speh3          155
 max len of scratch index in speh4           18
 max int batch size is                      520
 min int batch size is                       52
 fixed nKL is                                52
 max L of basis functions is                  2
 order of int derivative is                   0
 number of shells is                        110
 number of basis is                         345
 number of cartesian basis is               345
 number of contracted shell pairs          4687
 number of primitive shell pairs          14634
 maxK2 (contraction) of shell pair           36
 max number of K2 of shell pair               1
 max number of CS2 of shell pair            521
 max number of PS2 of shell pair           3030
 mem total for path MDJ                  101288
 -------------------------------------------------------
 Smallest overlap matrix eigenvalue = 7.92E-08
 Linear dependence detected in AO basis
 Number of orthogonalized atomic orbitals = 343
 Maximum deviation from orthogonality = 1.368E-10

 Scale SEOQF with 1.000000e-02/1.000000e-01/1.000000e-01

 Standard Electronic Orientation quadrupole field applied
 Nucleus-field energy     =     0.0000000083 hartrees
 Guess from superposition of atomic densities
 Warning:  Energy on first SCF cycle will be non-variational
 A restricted hybrid HF-DFT SCF calculation will be
 performed using Pulay DIIS extrapolation
 Exchange:     0.2000 Hartree-Fock + 0.0800 Slater + 0.7200 B88
 Correlation:  0.1900 VWN1RPA + 0.8100 LYP
 Using SG-1 standard quadrature grid
 SCF converges when DIIS error is below 1.0E-08
 ---------------------------------------
  Cycle       Energy         DIIS Error
 ---------------------------------------
    1   -1660.2844817599      3.67E-02
    2   -1656.4151094505      3.85E-03
    3   -1656.0799287149      5.80E-03
    4   -1656.6435298533      1.06E-03
    5   -1656.6570210496      5.87E-04
    6   -1656.6621353611      1.75E-04
    7   -1656.6625930869      6.82E-05
    8   -1656.6626628328      1.28E-05
    9   -1656.6626651580      4.62E-06
   10   -1656.6626654695      1.99E-06
   11   -1656.6626655398      3.47E-07
   12   -1656.6626655403      2.47E-07
   13   -1656.6626655413      6.53E-08
   14   -1656.6626655445      2.17E-08
   15   -1656.6626655434      7.59E-09 Convergence criterion met
 ---------------------------------------
 SCF time:  CPU 16.48 s  wall 15.09 s
 SCF   energy in the final basis set = -1656.6626655434
 Total energy in the final basis set = -1656.6626655434
 
 --------------------------------------------------------------
 
                    Orbital Energies (a.u.)
 --------------------------------------------------------------
 
 Alpha MOs
 -- Occupied --
-88.921 -88.921 -88.921 -10.241 -10.240 -10.239 -10.239 -10.226
-10.226 -10.206 -10.206 -10.205 -10.205 -10.205 -10.205  -7.980
 -7.980  -7.980  -5.945  -5.945  -5.945  -5.941  -5.941  -5.941
 -5.938  -5.938  -5.937  -0.906  -0.892  -0.876  -0.787  -0.755
 -0.745  -0.744  -0.733  -0.697  -0.617  -0.596  -0.569  -0.561
 -0.537  -0.535  -0.528  -0.501  -0.462  -0.422  -0.420  -0.417
 -0.416  -0.407  -0.402  -0.401  -0.384  -0.376  -0.370  -0.359
 -0.350  -0.345  -0.289  -0.266  -0.262  -0.261  -0.246  -0.207
 -- Virtual --
 -0.066  -0.033  -0.008  -0.007  -0.003   0.002   0.006   0.009
  0.012   0.017   0.023   0.026   0.030   0.032   0.039   0.042
  0.046   0.049   0.052   0.056   0.058   0.062   0.069   0.077
  0.085   0.088   0.088   0.095   0.102   0.104   0.107   0.110
  0.112   0.116   0.121   0.121   0.126   0.127   0.129   0.132
  0.134   0.142   0.143   0.145   0.148   0.151   0.153   0.157
  0.160   0.162   0.170   0.173   0.176   0.182   0.186   0.188
  0.195   0.198   0.205   0.209   0.213   0.217   0.221   0.222
  0.227   0.230   0.235   0.245   0.253   0.256   0.259   0.260
  0.268   0.269   0.273   0.276   0.283   0.291   0.293   0.297
  0.314   0.320   0.328   0.333   0.339   0.350   0.354   0.362
  0.366   0.376   0.382   0.394   0.401   0.453   0.454   0.461
  0.496   0.507   0.521   0.531   0.534   0.556   0.573   0.576
  0.582   0.599   0.614   0.628   0.629   0.648   0.656   0.658
  0.662   0.668   0.676   0.688   0.700   0.711   0.714   0.721
  0.726   0.730   0.734   0.749   0.753   0.771   0.775   0.787
  0.792   0.803   0.817   0.824   0.832   0.835   0.846   0.871
  0.895   0.931   0.934   0.936   0.954   0.958   0.961   0.963
  0.968   0.972   0.981   0.984   0.994   0.996   1.011   1.025
  1.034   1.043   1.047   1.061   1.077   1.092   1.099   1.106
  1.109   1.122   1.153   1.162   1.171   1.185   1.195   1.219
  1.255   1.261   1.266   1.293   1.305   1.331   1.347   1.350
  1.354   1.361   1.365   1.381   1.443   1.456   1.482   1.496
  1.515   1.538   1.541   1.560   1.607   1.682   1.693   1.718
  1.761   1.797   1.838   1.852   1.873   1.884   1.892   1.906
  1.919   1.923   1.949   1.961   1.989   2.005   2.028   2.062
  2.073   2.089   2.092   2.113   2.146   2.176   2.179   2.193
  2.202   2.229   2.241   2.260   2.283   2.295   2.333   2.364
  2.367   2.421   2.433   2.444   2.456   2.457   2.471   2.484
  2.502   2.519   2.530   2.535   2.552   2.583   2.590   2.598
  2.624   2.664   2.680   2.701   2.711   2.733   2.813   2.861
  2.875   2.893   2.918   2.937   2.945   3.134   3.175   3.212
  3.271   3.272   3.327   3.414   3.416   3.674   3.731   3.736
  3.973   3.978   3.982   4.255   4.276   4.305   4.320   4.329
  4.355   4.398   4.480   4.546   4.646   4.694   4.726
 --------------------------------------------------------------
 
          Ground-State Mulliken Net Atomic Charges

     Atom                 Charge (a.u.)
  ----------------------------------------
      1 H                     0.196328
      2 H                     0.119342
      3 C                     0.034427
      4 C                    -0.398327
      5 S                    -0.117266
      6 C                     0.547508
      7 H                     0.127617
      8 C                    -0.473368
      9 H                     0.119899
     10 C                    -0.004712
     11 C                    -0.205115
     12 S                    -0.122247
     13 C                     0.135097
     14 H                     0.130088
     15 C                    -0.110047
     16 C                    -0.520736
     17 H                     0.141845
     18 C                     0.405264
     19 S                    -0.007350
     20 C                    -0.357343
     21 C                     0.045951
     22 H                     0.118600
     23 H                     0.194547
  ----------------------------------------
  Sum of atomic charges =     0.000000

 -----------------------------------------------------------------
                    Cartesian Multipole Moments
 -----------------------------------------------------------------
    Charge (ESU x 10^10)
                 0.0000
    Dipole Moment (Debye)
         X      -0.0353      Y       0.3345      Z       0.2052
       Tot       0.3941
    Quadrupole Moments (Debye-Ang)
        XX     -90.4871     XY      -0.3573     YY    -104.6447
        XZ      -0.2828     YZ       2.9146     ZZ    -112.2477
    Octopole Moments (Debye-Ang^2)
       XXX      -7.9493    XXY      21.8710    XYY      10.3129
       YYY     -14.1537    XXZ      14.8556    XYZ     -10.2219
       YYZ      15.3140    XZZ     -23.6358    YZZ      -1.7048
       ZZZ      55.8540
    Hexadecapole Moments (Debye-Ang^3)
      XXXX   -6332.8134   XXXY      21.4613   XXYY   -1320.9044
      XYYY     146.2423   YYYY    -699.5592   XXXZ     -52.1420
      XXYZ       6.0064   XYYZ     -67.5185   YYYZ     -53.1401
      XXZZ   -1327.0510   XYZZ      17.8354   YYZZ    -191.3568
      XZZZ    -154.5171   YZZZ     -57.4363   ZZZZ    -393.1220
 -----------------------------------------------------------------
 Calculating analytic gradient of the SCF energy
 Gradient of SCF Energy
            1           2           3           4           5           6
    1  -0.0000309   0.0000064   0.0000849  -0.0001273  -0.0001406   0.0002609
    2  -0.0000149  -0.0000046   0.0000961   0.0000094  -0.0001833   0.0004292
    3   0.0000742   0.0000011  -0.0000120  -0.0000994  -0.0000214   0.0001315
            7           8           9          10          11          12
    1   0.0000097  -0.0011033  -0.0000653   0.0012296  -0.0010422  -0.0001186
    2  -0.0000081  -0.0000756   0.0000788  -0.0005019  -0.0005255   0.0003701
    3   0.0000046  -0.0007352  -0.0001476  -0.0018398   0.0015797   0.0010415
           13          14          15          16          17          18
    1   0.0013079   0.0005962  -0.0054285   0.0063924  -0.0004032  -0.0019579
    2  -0.0020086  -0.0000868   0.0037395  -0.0002643   0.0015093  -0.0026098
    3   0.0033718  -0.0013560  -0.0017368  -0.0028598  -0.0003339   0.0025594
           19          20          21          22          23
    1  -0.0000152   0.0002357  -0.0002147   0.0000793   0.0004446
    2  -0.0012280  -0.0015008   0.0021592   0.0001041   0.0005164
    3  -0.0001793   0.0007593   0.0003150  -0.0001222  -0.0003948
 Max gradient component =       6.392E-03
 RMS gradient           =       1.508E-03
 Gradient time:  CPU 4.65 s  wall 4.60 s
 Geometry Optimization Parameters
   NAtoms,    NIC,     NZ,  NCons,   NDum,   NFix, NCnnct, MaxDiis
       23     166       0       1       0       0       0       0


** CONSTRAINED OPTIMIZATION IN DELOCALIZED INTERNAL COORDINATES **
   Searching for a Minimum

   Optimization Cycle:   1

                       Coordinates (Angstroms)
     ATOM                X               Y               Z
      1  H         6.2325410000   -0.2233890000    0.1763810000
      2  H         5.2975240000    2.2285050000   -0.1095310000
      3  C         5.1973350000    0.0748600000    0.0835630000
      4  C         4.6834790000    1.3363440000   -0.0644360000
      5  S         3.9455990000   -1.1258100000    0.1190520000
      6  C         3.2626730000    1.3465940000   -0.1651120000
      7  H         2.6774010000    2.2481080000   -0.3084170000
      8  C         2.6956240000    0.0894190000   -0.0909460000
      9  H         1.3324190000   -2.3900550000   -0.6876260000
     10  C         1.2973930000   -0.2859020000   -0.1615080000
     11  C         0.7380830000   -1.5145570000   -0.4507840000
     12  S         0.0360180000    0.8945120000    0.1498250000
     13  C        -0.6804110000   -1.5106730000   -0.4493680000
     14  H        -1.2801240000   -2.3827710000   -0.6851030000
     15  C        -1.2322050000   -0.2790020000   -0.1585250000
     16  C        -2.6283010000    0.1038340000   -0.0846500000
     17  H        -2.7941775300    1.1426460400    1.8129385500
     18  C        -3.2906350100    0.7852063600    0.9176292000
     19  S        -3.7419235100   -0.2946364300   -1.3824122900
     20  C        -4.6729159500    0.9949599100    0.6450184800
     21  C        -5.0618059500    0.4764720600   -0.5621386400
     22  H        -5.3469363100    1.5173169300    1.3142579200
     23  H        -6.0415797400    0.4975343200   -1.0191035600
   Point Group: c1    Number of degrees of freedom:    63


   Energy is  -1656.662665543

              Constraints and their Current Values
                                        Value     Constraint
   Dihedral:       13  15  16  18      130.000      130.000

 Attempting to Generate Delocalized Internal Coordinates

 62 Hessian modes will be used to form the next step
  Hessian Eigenvalues:
     0.045000    0.045000    0.045000    0.045000    0.045000    0.045000
     0.045000    0.045000    0.045000    0.045001    0.045002    0.045002
     0.045003    0.045003    0.045009    0.045010    0.045011    0.045018
     0.045019    0.159886    0.159939    0.159955    0.159957    0.159992
     0.159993    0.160000    0.160000    0.221281    0.221281    0.226855
     0.237826    0.237826    0.245311    0.249998    0.249998    0.250000
     0.250000    0.293636    0.293684    0.294746    0.294936    0.312571
     0.312615    0.354732    0.354740    0.354742    0.354756    0.355161
     0.355164    0.358372    0.358373    0.383080    0.383176    0.405793
     0.405832    0.413732    0.458107    0.461989    0.461995    0.485493
     0.497291    0.497294

 Minimum Search - Taking Simple RFO Step
 Searching for Lamda that Minimizes Along All modes
 Value Taken    Lamda =  -0.00050209
 Step Taken.  Stepsize is  0.094663

                             Maximum     Tolerance    Cnvgd?
         Gradient           0.002466      0.000300      NO
         Displacement       0.040785      0.001200      NO
         Energy change     *********      0.000001      NO


 New Cartesian Coordinates Obtained by Inverse Iteration

 Displacement from previous Coordinates is:  0.351808
 ----------------------------------------------------------------
             Standard Nuclear Orientation (Angstroms)
    I     Atom           X                Y                Z
 ----------------------------------------------------------------
    1      H       6.2297477909    -0.2391484704     0.2271424892
    2      H       5.3129936632     2.2161271642    -0.0873031677
    3      C       5.1976630227     0.0643337424     0.1176963349
    4      C       4.6933051925     1.3277097568    -0.0455885968
    5      S       3.9385294679    -1.1285788787     0.1420857905
    6      C       3.2741609345     1.3451668707    -0.1683207852
    7      H       2.6963796252     2.2490061550    -0.3267319894
    8      C       2.6987662513     0.0922444971    -0.0946698957
    9      H       1.3301230310    -2.3818555867    -0.7018907810
   10      C       1.2981529992    -0.2748671263    -0.1857341233
   11      C       0.7367438033    -1.5017305583    -0.4798006323
   12      S       0.0383682683     0.9130885903     0.0956180157
   13      C      -0.6832344253    -1.4952775113    -0.4798064418
   14      H      -1.2889533082    -2.3686599701    -0.6942263523
   15      C      -1.2313479598    -0.2631388014    -0.1944332952
   16      C      -2.6330026616     0.1205782588    -0.1034244602
   17      H      -2.7658256370     1.1738340722     1.7830709252
   18      C      -3.2794830897     0.8107579527     0.8998837114
   19      S      -3.7666343237    -0.3050590988    -1.3743255473
   20      C      -4.6717195550     0.9959400401     0.6558690093
   21      C      -5.0830457011     0.4402812903    -0.5277584704
   22      H      -5.3396665400     1.5123293280     1.3359187624
   23      H      -6.0769468485     0.4264344734    -0.9542658398
 ----------------------------------------------------------------
 Nuclear Repulsion Energy =  1172.2714519989 hartrees
 There are       64 alpha and       64 beta electrons
 Applying Cartesian multipole field
    Component          Value
    ---------          -----
     (2,0,0)        1.00000E-12
     (0,2,0)        2.00000E-11
     (0,0,2)       -3.00000E-11
 Nucleus-field energy     =     0.0000000084 hartrees
 Requested basis set is 6-31++G(d,p)
 There are 110 shells and 345 basis functions
 A cutoff of  1.0D-12 yielded   4684 shell pairs
 There are     47638 function pairs

 Q-Chem warning in module /project/projectdirs/jcesr/qchem/qc44/cnl_qc441/compile/cori/qc_src/libqints/qchem/aobasis.C, line 68:

 Using reconstructed effective core potential

 Smallest overlap matrix eigenvalue = 8.17E-08
 Linear dependence detected in AO basis
 Number of orthogonalized atomic orbitals = 343
 Maximum deviation from orthogonality = 8.802E-11
 Guess MOs from SCF MO coefficient file
 Reading MOs from coefficient file
 Reading MOs from coefficient file
 A restricted hybrid HF-DFT SCF calculation will be
 performed using Pulay DIIS extrapolation
 Exchange:     0.2000 Hartree-Fock + 0.0800 Slater + 0.7200 B88
 Correlation:  0.1900 VWN1RPA + 0.8100 LYP
 Using SG-1 standard quadrature grid
 SCF converges when DIIS error is below 1.0E-08
 Geometry optimization detected.  Setting ReadMinima to 0
 Setting SaveMinima to 0
 ---------------------------------------
  Cycle       Energy         DIIS Error
 ---------------------------------------
    1   -1656.6651410239      8.18E-04
    2   -1656.6627370144      1.16E-04
    3   -1656.6619481441      2.52E-04
    4   -1656.6629766869      2.92E-05
    5   -1656.6629875456      1.37E-05
    6   -1656.6629904221      3.86E-06
    7   -1656.6629906468      1.27E-06
    8   -1656.6629906697      4.98E-07
    9   -1656.6629906731      1.28E-07
   10   -1656.6629906734      5.36E-08
   11   -1656.6629906723      1.93E-08
   12   -1656.6629906726      6.88E-09 Convergence criterion met
 ---------------------------------------
 SCF time:  CPU 13.41 s  wall 12.30 s
 SCF   energy in the final basis set = -1656.6629906726
 Total energy in the final basis set = -1656.6629906726
 
 --------------------------------------------------------------
 
                    Orbital Energies (a.u.)
 --------------------------------------------------------------
 
 Alpha MOs
 -- Occupied --
-88.921 -88.921 -88.921 -10.241 -10.240 -10.240 -10.239 -10.226
-10.226 -10.206 -10.206 -10.205 -10.205 -10.205 -10.205  -7.981
 -7.980  -7.980  -5.945  -5.945  -5.945  -5.941  -5.941  -5.941
 -5.938  -5.938  -5.937  -0.906  -0.892  -0.876  -0.786  -0.755
 -0.745  -0.744  -0.733  -0.697  -0.617  -0.595  -0.569  -0.561
 -0.536  -0.535  -0.528  -0.501  -0.462  -0.422  -0.420  -0.417
 -0.415  -0.407  -0.402  -0.401  -0.385  -0.377  -0.370  -0.359
 -0.350  -0.345  -0.289  -0.266  -0.262  -0.261  -0.247  -0.207
 -- Virtual --
 -0.066  -0.033  -0.007  -0.007  -0.002   0.002   0.007   0.009
  0.012   0.017   0.023   0.026   0.030   0.032   0.039   0.042
  0.046   0.049   0.051   0.056   0.058   0.062   0.069   0.077
  0.085   0.087   0.088   0.095   0.102   0.105   0.107   0.110
  0.112   0.116   0.121   0.121   0.126   0.127   0.130   0.132
  0.134   0.142   0.144   0.145   0.147   0.151   0.153   0.157
  0.160   0.162   0.170   0.172   0.176   0.182   0.186   0.188
  0.194   0.197   0.205   0.210   0.213   0.217   0.220   0.222
  0.226   0.229   0.235   0.245   0.252   0.256   0.259   0.260
  0.268   0.269   0.272   0.275   0.282   0.290   0.293   0.297
  0.313   0.320   0.328   0.333   0.339   0.350   0.354   0.362
  0.367   0.375   0.381   0.395   0.401   0.454   0.455   0.462
  0.496   0.507   0.521   0.531   0.534   0.556   0.572   0.576
  0.582   0.599   0.614   0.627   0.629   0.648   0.656   0.657
  0.662   0.667   0.677   0.688   0.701   0.711   0.715   0.721
  0.726   0.731   0.734   0.749   0.754   0.771   0.776   0.787
  0.792   0.802   0.817   0.824   0.832   0.835   0.846   0.870
  0.894   0.931   0.935   0.936   0.954   0.959   0.961   0.963
  0.968   0.971   0.981   0.984   0.994   0.996   1.010   1.025
  1.034   1.043   1.047   1.061   1.077   1.092   1.099   1.107
  1.109   1.120   1.153   1.162   1.171   1.185   1.198   1.217
  1.254   1.261   1.265   1.294   1.310   1.330   1.346   1.349
  1.354   1.360   1.365   1.380   1.444   1.454   1.482   1.496
  1.513   1.536   1.541   1.560   1.606   1.682   1.693   1.718
  1.759   1.794   1.836   1.856   1.872   1.884   1.891   1.905
  1.918   1.923   1.950   1.961   1.988   2.004   2.027   2.062
  2.073   2.091   2.093   2.113   2.147   2.176   2.179   2.193
  2.201   2.229   2.239   2.260   2.283   2.293   2.331   2.364
  2.367   2.421   2.434   2.444   2.455   2.458   2.468   2.484
  2.502   2.520   2.530   2.535   2.549   2.582   2.590   2.599
  2.623   2.665   2.678   2.702   2.710   2.731   2.811   2.860
  2.873   2.892   2.917   2.937   2.944   3.133   3.174   3.211
  3.270   3.272   3.326   3.413   3.415   3.674   3.730   3.736
  3.973   3.977   3.982   4.255   4.275   4.305   4.320   4.329
  4.355   4.397   4.481   4.547   4.646   4.694   4.725
 --------------------------------------------------------------
 
          Ground-State Mulliken Net Atomic Charges

     Atom                 Charge (a.u.)
  ----------------------------------------
      1 H                     0.196274
      2 H                     0.119343
      3 C                     0.035511
      4 C                    -0.400327
      5 S                    -0.113678
      6 C                     0.536544
      7 H                     0.127066
      8 C                    -0.477295
      9 H                     0.119454
     10 C                    -0.003860
     11 C                    -0.203521
     12 S                    -0.129726
     13 C                     0.159556
     14 H                     0.131804
     15 C                    -0.123534
     16 C                    -0.509600
     17 H                     0.142235
     18 C                     0.405240
     19 S                    -0.008860
     20 C                    -0.358764
     21 C                     0.043141
     22 H                     0.118490
     23 H                     0.194507
  ----------------------------------------
  Sum of atomic charges =     0.000000

 -----------------------------------------------------------------
                    Cartesian Multipole Moments
 -----------------------------------------------------------------
    Charge (ESU x 10^10)
                 0.0000
    Dipole Moment (Debye)
         X      -0.0350      Y       0.2965      Z       0.2559
       Tot       0.3932
    Quadrupole Moments (Debye-Ang)
        XX     -90.3301     XY      -0.0944     YY    -104.6871
        XZ      -0.3214     YZ       2.8975     ZZ    -112.3636
    Octopole Moments (Debye-Ang^2)
       XXX      -8.6400    XXY      19.5907    XYY      10.9264
       YYY     -14.9230    XXZ      17.4835    XYZ     -10.7945
       YYZ      16.0588    XZZ     -22.5417    YZZ      -2.0534
       ZZZ      57.7460
    Hexadecapole Moments (Debye-Ang^3)
      XXXX   -6338.3817   XXXY      31.3449   XXYY   -1326.3957
      XYYY     143.7236   YYYY    -699.3023   XXXZ     -56.7351
      XXYZ       8.0161   XYYZ     -69.8774   YYYZ     -54.2019
      XXZZ   -1333.7079   XYZZ      17.5459   YYZZ    -190.7580
      XZZZ    -162.4021   YZZZ     -58.1884   ZZZZ    -392.2237
 -----------------------------------------------------------------
 Calculating analytic gradient of the SCF energy
 Gradient of SCF Energy
            1           2           3           4           5           6
    1   0.0000049   0.0000076   0.0000865  -0.0000706   0.0001012   0.0001124
    2  -0.0000067  -0.0000047   0.0000339  -0.0000510  -0.0000214   0.0001253
    3   0.0000077  -0.0000121  -0.0000260   0.0000245   0.0000249   0.0000644
            7           8           9          10          11          12
    1  -0.0000007  -0.0004231   0.0000029   0.0007595  -0.0004153   0.0001434
    2  -0.0000289   0.0000859   0.0000099  -0.0001126  -0.0000354   0.0000401
    3  -0.0000316  -0.0002070  -0.0000449  -0.0004273   0.0002791  -0.0003104
           13          14          15          16          17          18
    1   0.0003502   0.0001098  -0.0012068   0.0014079   0.0000212  -0.0008126
    2  -0.0006978   0.0000970   0.0003348   0.0012675   0.0007804  -0.0026463
    3   0.0028784  -0.0007684  -0.0016552  -0.0003783  -0.0003095   0.0013485
           19          20          21          22          23
    1  -0.0000952   0.0002507  -0.0004023  -0.0000013   0.0000694
    2   0.0005019  -0.0001006   0.0002821   0.0000665   0.0000802
    3  -0.0002639  -0.0000856   0.0001353  -0.0000345  -0.0002079
 Max gradient component =       2.878E-03
 RMS gradient           =       6.583E-04
 Gradient time:  CPU 4.59 s  wall 4.58 s
 Geometry Optimization Parameters
   NAtoms,    NIC,     NZ,  NCons,   NDum,   NFix, NCnnct, MaxDiis
       23     166       0       1       0       0       0       0

 Cartesian Hessian Update
 Hessian Updated using BFGS Update


** CONSTRAINED OPTIMIZATION IN DELOCALIZED INTERNAL COORDINATES **
   Searching for a Minimum

   Optimization Cycle:   2

                       Coordinates (Angstroms)
     ATOM                X               Y               Z
      1  H         6.2297477909   -0.2391484704    0.2271424892
      2  H         5.3129936632    2.2161271642   -0.0873031677
      3  C         5.1976630227    0.0643337424    0.1176963349
      4  C         4.6933051925    1.3277097568   -0.0455885968
      5  S         3.9385294679   -1.1285788787    0.1420857905
      6  C         3.2741609345    1.3451668707   -0.1683207852
      7  H         2.6963796252    2.2490061550   -0.3267319894
      8  C         2.6987662513    0.0922444971   -0.0946698957
      9  H         1.3301230310   -2.3818555867   -0.7018907810
     10  C         1.2981529992   -0.2748671263   -0.1857341233
     11  C         0.7367438033   -1.5017305583   -0.4798006323
     12  S         0.0383682683    0.9130885903    0.0956180157
     13  C        -0.6832344253   -1.4952775113   -0.4798064418
     14  H        -1.2889533082   -2.3686599701   -0.6942263523
     15  C        -1.2313479598   -0.2631388014   -0.1944332952
     16  C        -2.6330026616    0.1205782588   -0.1034244602
     17  H        -2.7658256370    1.1738340722    1.7830709252
     18  C        -3.2794830897    0.8107579527    0.8998837114
     19  S        -3.7666343237   -0.3050590988   -1.3743255473
     20  C        -4.6717195550    0.9959400401    0.6558690093
     21  C        -5.0830457011    0.4402812903   -0.5277584704
     22  H        -5.3396665400    1.5123293280    1.3359187624
     23  H        -6.0769468485    0.4264344734   -0.9542658398
   Point Group: c1    Number of degrees of freedom:    63


   Energy is  -1656.662990673

              Constraints and their Current Values
                                        Value     Constraint
   Dihedral:       13  15  16  18      130.000      130.000
 Hessian Updated using BFGS Update

 53 Hessian modes will be used to form the next step
  Hessian Eigenvalues:
     0.027060    0.045000    0.045000    0.045002    0.045007    0.045009
     0.045009    0.045015    0.045018    0.051426    0.159065    0.159898
     0.159945    0.159958    0.159992    0.159993    0.159999    0.160291
     0.221277    0.221632    0.226807    0.237618    0.238146    0.246012
     0.249637    0.249998    0.250000    0.250358    0.293167    0.293680
     0.294636    0.294945    0.312572    0.312898    0.354735    0.354737
     0.354742    0.354756    0.355164    0.355167    0.358372    0.358415
     0.383104    0.393207    0.405831    0.406678    0.415174    0.458629
     0.461871    0.463694    0.485242    0.497284    0.497568

 Minimum Search - Taking Simple RFO Step
 Searching for Lamda that Minimizes Along All modes
 Value Taken    Lamda =  -0.00013494
 Step Taken.  Stepsize is  0.068377

                             Maximum     Tolerance    Cnvgd?
         Gradient           0.000880      0.000300      NO
         Displacement       0.030267      0.001200      NO
         Energy change     -0.000325      0.000001      NO


 New Cartesian Coordinates Obtained by Inverse Iteration

 Displacement from previous Coordinates is:  0.260829
 ----------------------------------------------------------------
             Standard Nuclear Orientation (Angstroms)
    I     Atom           X                Y                Z
 ----------------------------------------------------------------
    1      H       6.2225751207    -0.2526443103     0.2631098433
    2      H       5.3218708721     2.2062688025    -0.0691585341
    3      C       5.1932804322     0.0556195381     0.1415334871
    4      C       4.6973466147     1.3210681599    -0.0314257907
    5      S       3.9281289192    -1.1309626900     0.1558740322
    6      C       3.2796800176     1.3450392205    -0.1696686640
    7      H       2.7081085914     2.2512671584    -0.3370009476
    8      C       2.6976392688     0.0953409065    -0.0979978870
    9      H       1.3279321608    -2.3749142577    -0.7103819008
   10      C       1.2958692175    -0.2654481571    -0.2032227527
   11      C       0.7347626966    -1.4917898219    -0.4998990285
   12      S       0.0383379087     0.9277981619     0.0615712215
   13      C      -0.6855467374    -1.4831670000    -0.5043498251
   14      H      -1.2943357172    -2.3583638996    -0.7018374146
   15      C      -1.2305967622    -0.2494163747    -0.2239728285
   16      C      -2.6332749942     0.1336336052    -0.1206661665
   17      H      -2.7421721314     1.1994482459     1.7582766376
   18      C      -3.2675304320     0.8316794113     0.8840241188
   19      S      -3.7828666233    -0.3243157359    -1.3646532940
   20      C      -4.6666460294     0.9954048955     0.6641309485
   21      C      -5.0923533508     0.4141365403    -0.5022464704
   22      H      -5.3296273100     1.5078701255     1.3519474695
   23      H      -6.0955077324     0.3759636655    -0.9049815942
 ----------------------------------------------------------------
 Nuclear Repulsion Energy =  1172.3772630867 hartrees
 There are       64 alpha and       64 beta electrons
 Applying Cartesian multipole field
    Component          Value
    ---------          -----
     (2,0,0)        1.00000E-12
     (0,2,0)        2.00000E-11
     (0,0,2)       -3.00000E-11
 Nucleus-field energy     =     0.0000000084 hartrees
 Requested basis set is 6-31++G(d,p)
 There are 110 shells and 345 basis functions
 A cutoff of  1.0D-12 yielded   4688 shell pairs
 There are     47734 function pairs

 Q-Chem warning in module /project/projectdirs/jcesr/qchem/qc44/cnl_qc441/compile/cori/qc_src/libqints/qchem/aobasis.C, line 68:

 Using reconstructed effective core potential

 Smallest overlap matrix eigenvalue = 8.22E-08
 Linear dependence detected in AO basis
 Number of orthogonalized atomic orbitals = 343
 Maximum deviation from orthogonality = 8.910E-11
 Guess MOs from SCF MO coefficient file
 Reading MOs from coefficient file
 Reading MOs from coefficient file
 A restricted hybrid HF-DFT SCF calculation will be
 performed using Pulay DIIS extrapolation
 Exchange:     0.2000 Hartree-Fock + 0.0800 Slater + 0.7200 B88
 Correlation:  0.1900 VWN1RPA + 0.8100 LYP
 Using SG-1 standard quadrature grid
 SCF converges when DIIS error is below 1.0E-08
 Geometry optimization detected.  Setting ReadMinima to 0
 Setting SaveMinima to 0
 ---------------------------------------
  Cycle       Energy         DIIS Error
 ---------------------------------------
    1   -1656.6652853362      6.31E-04
    2   -1656.6629304743      8.77E-05
    3   -1656.6625167522      1.84E-04
    4   -1656.6630652854      2.36E-05
    5   -1656.6630726376      1.04E-05
    6   -1656.6630742947      3.04E-06
    7   -1656.6630744323      1.01E-06
    8   -1656.6630744454      3.76E-07
    9   -1656.6630744473      1.09E-07
   10   -1656.6630744477      3.97E-08
   11   -1656.6630744466      1.61E-08
   12   -1656.6630744478      5.15E-09 Convergence criterion met
 ---------------------------------------
 SCF time:  CPU 13.35 s  wall 12.25 s
 SCF   energy in the final basis set = -1656.6630744478
 Total energy in the final basis set = -1656.6630744478
 
 --------------------------------------------------------------
 
                    Orbital Energies (a.u.)
 --------------------------------------------------------------
 
 Alpha MOs
 -- Occupied --
-88.921 -88.921 -88.921 -10.241 -10.240 -10.240 -10.239 -10.226
-10.226 -10.206 -10.206 -10.205 -10.205 -10.205 -10.205  -7.981
 -7.980  -7.980  -5.945  -5.945  -5.945  -5.941  -5.941  -5.941
 -5.938  -5.938  -5.937  -0.906  -0.892  -0.876  -0.786  -0.755
 -0.745  -0.744  -0.733  -0.697  -0.616  -0.595  -0.569  -0.561
 -0.536  -0.535  -0.528  -0.501  -0.462  -0.422  -0.420  -0.417
 -0.415  -0.407  -0.402  -0.401  -0.385  -0.377  -0.370  -0.360
 -0.351  -0.345  -0.289  -0.266  -0.262  -0.261  -0.247  -0.207
 -- Virtual --
 -0.066  -0.033  -0.007  -0.006  -0.002   0.003   0.007   0.009
  0.012   0.017   0.023   0.026   0.030   0.033   0.039   0.042
  0.046   0.049   0.052   0.056   0.058   0.062   0.068   0.077
  0.085   0.087   0.088   0.095   0.102   0.105   0.107   0.110
  0.112   0.116   0.121   0.121   0.127   0.127   0.130   0.132
  0.134   0.141   0.144   0.145   0.147   0.151   0.152   0.157
  0.160   0.162   0.170   0.172   0.176   0.183   0.186   0.188
  0.194   0.197   0.205   0.211   0.213   0.217   0.220   0.222
  0.226   0.229   0.234   0.245   0.252   0.256   0.259   0.260
  0.268   0.269   0.272   0.275   0.281   0.290   0.293   0.298
  0.313   0.320   0.328   0.333   0.340   0.351   0.355   0.361
  0.367   0.375   0.381   0.395   0.400   0.454   0.456   0.463
  0.496   0.507   0.521   0.532   0.534   0.556   0.572   0.576
  0.582   0.598   0.614   0.626   0.629   0.648   0.656   0.657
  0.662   0.667   0.677   0.687   0.700   0.711   0.715   0.721
  0.726   0.731   0.734   0.749   0.754   0.772   0.777   0.787
  0.792   0.803   0.817   0.824   0.832   0.835   0.847   0.870
  0.894   0.931   0.936   0.936   0.954   0.960   0.961   0.963
  0.968   0.970   0.981   0.985   0.994   0.996   1.010   1.025
  1.035   1.043   1.047   1.061   1.077   1.092   1.098   1.107
  1.109   1.119   1.153   1.162   1.172   1.186   1.200   1.215
  1.254   1.260   1.265   1.295   1.312   1.329   1.346   1.349
  1.354   1.360   1.366   1.382   1.445   1.454   1.482   1.496
  1.512   1.535   1.541   1.560   1.604   1.682   1.692   1.718
  1.758   1.793   1.835   1.858   1.871   1.884   1.891   1.905
  1.918   1.923   1.950   1.960   1.988   2.004   2.027   2.062
  2.074   2.093   2.094   2.113   2.148   2.176   2.180   2.194
  2.201   2.230   2.239   2.260   2.282   2.293   2.330   2.364
  2.367   2.421   2.436   2.444   2.454   2.459   2.467   2.484
  2.502   2.521   2.530   2.536   2.548   2.582   2.590   2.600
  2.623   2.666   2.677   2.702   2.710   2.731   2.810   2.860
  2.873   2.891   2.917   2.936   2.943   3.133   3.174   3.211
  3.270   3.272   3.326   3.413   3.415   3.674   3.730   3.737
  3.973   3.977   3.982   4.255   4.274   4.306   4.320   4.328
  4.355   4.396   4.481   4.547   4.646   4.694   4.725
 --------------------------------------------------------------
 
          Ground-State Mulliken Net Atomic Charges

     Atom                 Charge (a.u.)
  ----------------------------------------
      1 H                     0.196183
      2 H                     0.119314
      3 C                     0.035765
      4 C                    -0.400241
      5 S                    -0.112414
      6 C                     0.529925
      7 H                     0.126714
      8 C                    -0.477211
      9 H                     0.118909
     10 C                    -0.005876
     11 C                    -0.204399
     12 S                    -0.134454
     13 C                     0.176440
     14 H                     0.133029
     15 C                    -0.133736
     16 C                    -0.496588
     17 H                     0.142281
     18 C                     0.404255
     19 S                    -0.010996
     20 C                    -0.360785
     21 C                     0.041423
     22 H                     0.118373
     23 H                     0.194089
  ----------------------------------------
  Sum of atomic charges =     0.000000

 -----------------------------------------------------------------
                    Cartesian Multipole Moments
 -----------------------------------------------------------------
    Charge (ESU x 10^10)
                 0.0000
    Dipole Moment (Debye)
         X      -0.0413      Y       0.2627      Z       0.3034
       Tot       0.4034
    Quadrupole Moments (Debye-Ang)
        XX     -90.3191     XY       0.1121     YY    -104.6816
        XZ      -0.3658     YZ       2.9074     ZZ    -112.4454
    Octopole Moments (Debye-Ang^2)
       XXX      -8.9007    XXY      17.8447    XYY      11.3659
       YYY     -15.2256    XXZ      19.5658    XYZ     -11.2121
       YYZ      16.5814    XZZ     -21.6732    YZZ      -2.2190
       ZZZ      59.0921
    Hexadecapole Moments (Debye-Ang^3)
      XXXX   -6336.4411   XXXY      37.3157   XXYY   -1327.8007
      XYYY     140.0621   YYYY    -699.9317   XXXZ     -60.7835
      XXYZ       9.4530   XYYZ     -71.0739   YYYZ     -55.6647
      XXZZ   -1336.1216   XYZZ      16.7968   YYZZ    -190.3425
      XZZZ    -167.5043   YZZZ     -59.4937   ZZZZ    -391.3936
 -----------------------------------------------------------------
 Calculating analytic gradient of the SCF energy
 Gradient of SCF Energy
            1           2           3           4           5           6
    1  -0.0000049  -0.0000042  -0.0000772  -0.0000434   0.0000604   0.0000184
    2  -0.0000056   0.0000081  -0.0000195   0.0000195  -0.0000500  -0.0000271
    3  -0.0000114  -0.0000143  -0.0000044   0.0000176   0.0000138   0.0000125
            7           8           9          10          11          12
    1   0.0000033   0.0000365  -0.0000045  -0.0001615   0.0000051   0.0000941
    2   0.0000013   0.0000498  -0.0000583   0.0000368   0.0000602   0.0003003
    3  -0.0000313   0.0001061   0.0000829   0.0000910  -0.0003577  -0.0005678
           13          14          15          16          17          18
    1  -0.0000669  -0.0000667   0.0006484  -0.0004833   0.0001143  -0.0003394
    2  -0.0002447   0.0000745  -0.0009137   0.0021491   0.0001941  -0.0021069
    3   0.0022659  -0.0002256  -0.0018507   0.0002567  -0.0001344   0.0008243
           19          20          21          22          23
    1   0.0000320   0.0000587   0.0001977  -0.0000109  -0.0000060
    2   0.0004591   0.0003791  -0.0001453  -0.0000702  -0.0000905
    3  -0.0003859  -0.0001212  -0.0000526   0.0000847   0.0000018
 Max gradient component =       2.266E-03
 RMS gradient           =       5.569E-04
 Gradient time:  CPU 4.62 s  wall 4.57 s
 Geometry Optimization Parameters
   NAtoms,    NIC,     NZ,  NCons,   NDum,   NFix, NCnnct, MaxDiis
       23     166       0       1       0       0       0       0

 Cartesian Hessian Update
 Hessian Updated using BFGS Update


** CONSTRAINED OPTIMIZATION IN DELOCALIZED INTERNAL COORDINATES **
   Searching for a Minimum

   Optimization Cycle:   3

                       Coordinates (Angstroms)
     ATOM                X               Y               Z
      1  H         6.2225751207   -0.2526443103    0.2631098433
      2  H         5.3218708721    2.2062688025   -0.0691585341
      3  C         5.1932804322    0.0556195381    0.1415334871
      4  C         4.6973466147    1.3210681599   -0.0314257907
      5  S         3.9281289192   -1.1309626900    0.1558740322
      6  C         3.2796800176    1.3450392205   -0.1696686640
      7  H         2.7081085914    2.2512671584   -0.3370009476
      8  C         2.6976392688    0.0953409065   -0.0979978870
      9  H         1.3279321608   -2.3749142577   -0.7103819008
     10  C         1.2958692175   -0.2654481571   -0.2032227527
     11  C         0.7347626966   -1.4917898219   -0.4998990285
     12  S         0.0383379087    0.9277981619    0.0615712215
     13  C        -0.6855467374   -1.4831670000   -0.5043498251
     14  H        -1.2943357172   -2.3583638996   -0.7018374146
     15  C        -1.2305967622   -0.2494163747   -0.2239728285
     16  C        -2.6332749942    0.1336336052   -0.1206661665
     17  H        -2.7421721314    1.1994482459    1.7582766376
     18  C        -3.2675304320    0.8316794113    0.8840241188
     19  S        -3.7828666233   -0.3243157359   -1.3646532940
     20  C        -4.6666460294    0.9954048955    0.6641309485
     21  C        -5.0923533508    0.4141365403   -0.5022464704
     22  H        -5.3296273100    1.5078701255    1.3519474695
     23  H        -6.0955077324    0.3759636655   -0.9049815942
   Point Group: c1    Number of degrees of freedom:    63


   Energy is  -1656.663074448

              Constraints and their Current Values
                                        Value     Constraint
   Dihedral:       13  15  16  18      130.000      130.000
 Hessian Updated using BFGS Update

 55 Hessian modes will be used to form the next step
  Hessian Eigenvalues:
     0.017193    0.045000    0.045001    0.045001    0.045003    0.045003
     0.045008    0.045009    0.045014    0.045018    0.046096    0.054358
     0.159649    0.159910    0.159950    0.159960    0.159992    0.159999
     0.160050    0.161071    0.221286    0.221930    0.226847    0.237807
     0.240102    0.249439    0.249869    0.249998    0.250186    0.256618
     0.293499    0.293673    0.294610    0.294903    0.312573    0.312905
     0.354732    0.354738    0.354746    0.354758    0.355164    0.355166
     0.358372    0.358425    0.383045    0.399680    0.405941    0.406676
     0.415184    0.459127    0.461996    0.470190    0.488118    0.497280
     0.497999

 Minimum Search - Taking Simple RFO Step
 Searching for Lamda that Minimizes Along All modes
 Value Taken    Lamda =  -0.00003843
 Step Taken.  Stepsize is  0.042421

                             Maximum     Tolerance    Cnvgd?
         Gradient           0.000481      0.000300      NO
         Displacement       0.015414      0.001200      NO
         Energy change     -0.000084      0.000001      NO


 New Cartesian Coordinates Obtained by Inverse Iteration

 Displacement from previous Coordinates is:  0.135658
 ----------------------------------------------------------------
             Standard Nuclear Orientation (Angstroms)
    I     Atom           X                Y                Z
 ----------------------------------------------------------------
    1      H       6.2205512620    -0.2589800481     0.2779368109
    2      H       5.3265366894     2.2017282005    -0.0586275398
    3      C       5.1924808611     0.0514303484     0.1514772835
    4      C       4.6999700152     1.3178621134    -0.0239037445
    5      S       3.9245171208    -1.1322666271     0.1600853986
    6      C       3.2828337082     1.3448195423    -0.1684571979
    7      H       2.7139043300     2.2523154867    -0.3379102851
    8      C       2.6977671895     0.0964243565    -0.0992723623
    9      H       1.3266175486    -2.3714951713    -0.7146801472
   10      C       1.2954972138    -0.2616299017    -0.2102513249
   11      C       0.7337454815    -1.4872320639    -0.5084204299
   12      S       0.0384085161     0.9329215378     0.0501938150
   13      C      -0.6868281318    -1.4768388870    -0.5176178405
   14      H      -1.2962937681    -2.3530292510    -0.7082337681
   15      C      -1.2311816563    -0.2418567180    -0.2404592299
   16      C      -2.6332252921     0.1407868888    -0.1312435148
   17      H      -2.7309639263     1.2164460119     1.7426527254
   18      C      -3.2618332004     0.8437443515     0.8738920053
   19      S      -3.7933629416    -0.3390783811    -1.3566836557
   20      C      -4.6646240273     0.9952065992     0.6675818824
   21      C      -5.0988398755     0.3997389520    -0.4883582832
   22      H      -5.3242106690     1.5084129604     1.3580266040
   23      H      -6.1063924477     0.3500858898    -0.8787225412
 ----------------------------------------------------------------
 Nuclear Repulsion Energy =  1172.3063589931 hartrees
 There are       64 alpha and       64 beta electrons
 Applying Cartesian multipole field
    Component          Value
    ---------          -----
     (2,0,0)        1.00000E-12
     (0,2,0)        2.00000E-11
     (0,0,2)       -3.00000E-11
 Nucleus-field energy     =     0.0000000085 hartrees
 Requested basis set is 6-31++G(d,p)
 There are 110 shells and 345 basis functions
 A cutoff of  1.0D-12 yielded   4687 shell pairs
 There are     47730 function pairs

 Q-Chem warning in module /project/projectdirs/jcesr/qchem/qc44/cnl_qc441/compile/cori/qc_src/libqints/qchem/aobasis.C, line 68:

 Using reconstructed effective core potential

 Smallest overlap matrix eigenvalue = 8.22E-08
 Linear dependence detected in AO basis
 Number of orthogonalized atomic orbitals = 343
 Maximum deviation from orthogonality = 1.375E-10
 Guess MOs from SCF MO coefficient file
 Reading MOs from coefficient file
 Reading MOs from coefficient file
 A restricted hybrid HF-DFT SCF calculation will be
 performed using Pulay DIIS extrapolation
 Exchange:     0.2000 Hartree-Fock + 0.0800 Slater + 0.7200 B88
 Correlation:  0.1900 VWN1RPA + 0.8100 LYP
 Using SG-1 standard quadrature grid
 SCF converges when DIIS error is below 1.0E-08
 Geometry optimization detected.  Setting ReadMinima to 0
 Setting SaveMinima to 0
 ---------------------------------------
  Cycle       Energy         DIIS Error
 ---------------------------------------
    1   -1656.6624976202      3.53E-04
    2   -1656.6630614000      4.55E-05
    3   -1656.6629497649      9.56E-05
    4   -1656.6630985575      1.23E-05
    5   -1656.6631005382      5.51E-06
    6   -1656.6631009933      1.67E-06
    7   -1656.6631010347      5.88E-07
    8   -1656.6631010409      1.97E-07
    9   -1656.6631010404      6.31E-08
   10   -1656.6631010398      2.04E-08
   11   -1656.6631010389      9.19E-09 Convergence criterion met
 ---------------------------------------
 SCF time:  CPU 12.27 s  wall 11.26 s
 SCF   energy in the final basis set = -1656.6631010389
 Total energy in the final basis set = -1656.6631010389
 
 --------------------------------------------------------------
 
                    Orbital Energies (a.u.)
 --------------------------------------------------------------
 
 Alpha MOs
 -- Occupied --
-88.921 -88.921 -88.921 -10.241 -10.240 -10.240 -10.239 -10.226
-10.226 -10.206 -10.206 -10.205 -10.205 -10.205 -10.205  -7.981
 -7.981  -7.980  -5.945  -5.945  -5.945  -5.941  -5.941  -5.941
 -5.938  -5.938  -5.937  -0.906  -0.892  -0.876  -0.786  -0.755
 -0.745  -0.744  -0.733  -0.697  -0.616  -0.595  -0.569  -0.561
 -0.536  -0.535  -0.528  -0.501  -0.462  -0.422  -0.420  -0.417
 -0.415  -0.407  -0.402  -0.401  -0.385  -0.377  -0.370  -0.360
 -0.351  -0.345  -0.290  -0.266  -0.262  -0.261  -0.247  -0.207
 -- Virtual --
 -0.066  -0.032  -0.007  -0.006  -0.002   0.003   0.007   0.009
  0.012   0.017   0.023   0.026   0.030   0.033   0.039   0.042
  0.046   0.049   0.052   0.056   0.058   0.062   0.068   0.077
  0.086   0.087   0.088   0.094   0.102   0.105   0.107   0.110
  0.112   0.116   0.121   0.121   0.127   0.127   0.130   0.132
  0.134   0.141   0.144   0.145   0.148   0.151   0.152   0.156
  0.160   0.162   0.170   0.172   0.176   0.183   0.186   0.188
  0.194   0.197   0.205   0.212   0.213   0.217   0.221   0.221
  0.226   0.229   0.234   0.245   0.252   0.256   0.259   0.260
  0.269   0.269   0.272   0.275   0.280   0.290   0.293   0.298
  0.313   0.320   0.327   0.333   0.340   0.351   0.355   0.361
  0.367   0.374   0.380   0.395   0.400   0.454   0.456   0.463
  0.497   0.508   0.521   0.532   0.535   0.556   0.572   0.576
  0.582   0.597   0.614   0.626   0.629   0.648   0.656   0.657
  0.662   0.667   0.677   0.686   0.700   0.710   0.715   0.721
  0.726   0.730   0.734   0.748   0.754   0.772   0.778   0.787
  0.792   0.803   0.817   0.824   0.832   0.835   0.847   0.870
  0.894   0.931   0.936   0.936   0.954   0.960   0.961   0.963
  0.968   0.970   0.981   0.985   0.994   0.996   1.010   1.026
  1.035   1.043   1.047   1.061   1.077   1.092   1.098   1.107
  1.108   1.118   1.153   1.162   1.171   1.185   1.201   1.215
  1.254   1.260   1.265   1.295   1.312   1.329   1.345   1.349
  1.354   1.361   1.365   1.383   1.444   1.454   1.481   1.496
  1.512   1.535   1.542   1.561   1.603   1.681   1.692   1.718
  1.756   1.793   1.835   1.859   1.870   1.884   1.891   1.905
  1.918   1.923   1.950   1.960   1.988   2.004   2.027   2.062
  2.074   2.094   2.095   2.112   2.148   2.176   2.180   2.194
  2.200   2.230   2.238   2.260   2.282   2.293   2.330   2.364
  2.367   2.421   2.436   2.444   2.454   2.459   2.466   2.484
  2.502   2.522   2.530   2.536   2.548   2.582   2.591   2.600
  2.622   2.666   2.677   2.703   2.710   2.731   2.809   2.859
  2.873   2.891   2.917   2.936   2.943   3.133   3.174   3.211
  3.270   3.272   3.326   3.413   3.415   3.674   3.730   3.736
  3.973   3.977   3.982   4.256   4.274   4.306   4.319   4.328
  4.354   4.396   4.481   4.547   4.646   4.694   4.725
 --------------------------------------------------------------
 
          Ground-State Mulliken Net Atomic Charges

     Atom                 Charge (a.u.)
  ----------------------------------------
      1 H                     0.196227
      2 H                     0.119339
      3 C                     0.036262
      4 C                    -0.399152
      5 S                    -0.112336
      6 C                     0.527905
      7 H                     0.126723
      8 C                    -0.474142
      9 H                     0.118602
     10 C                    -0.011947
     11 C                    -0.203761
     12 S                    -0.137490
     13 C                     0.181837
     14 H                     0.133538
     15 C                    -0.135975
     16 C                    -0.488285
     17 H                     0.142111
     18 C                     0.403551
     19 S                    -0.013485
     20 C                    -0.364264
     21 C                     0.042491
     22 H                     0.118250
     23 H                     0.193998
  ----------------------------------------
  Sum of atomic charges =     0.000000

 -----------------------------------------------------------------
                    Cartesian Multipole Moments
 -----------------------------------------------------------------
    Charge (ESU x 10^10)
                 0.0000
    Dipole Moment (Debye)
         X      -0.0416      Y       0.2482      Z       0.3297
       Tot       0.4147
    Quadrupole Moments (Debye-Ang)
        XX     -90.2714     XY       0.2061     YY    -104.6783
        XZ      -0.3907     YZ       2.9316     ZZ    -112.5118
    Octopole Moments (Debye-Ang^2)
       XXX      -8.9961    XXY      17.1455    XYY      11.5286
       YYY     -15.0752    XXZ      20.5077    XYZ     -11.3875
       YYZ      16.8034    XZZ     -21.1474    YZZ      -2.2145
       ZZZ      59.5905
    Hexadecapole Moments (Debye-Ang^3)
      XXXX   -6337.0734   XXXY      39.4341   XXYY   -1328.9645
      XYYY     137.4916   YYYY    -700.5179   XXXZ     -62.4938
      XXYZ      10.1830   XYYZ     -71.4450   YYYZ     -56.8355
      XXZZ   -1338.3872   XYZZ      16.2211   YYZZ    -189.9989
      XZZZ    -169.6397   YZZZ     -60.7683   ZZZZ    -390.3847
 -----------------------------------------------------------------
 Calculating analytic gradient of the SCF energy
 Gradient of SCF Energy
            1           2           3           4           5           6
    1   0.0000089   0.0000026  -0.0000088   0.0000465   0.0000116  -0.0000423
    2   0.0000039  -0.0000057  -0.0000267   0.0000051   0.0000645  -0.0000822
    3  -0.0000037  -0.0000044   0.0000104   0.0000034  -0.0000015  -0.0000102
            7           8           9          10          11          12
    1   0.0000023   0.0001592   0.0000101  -0.0002501   0.0002864   0.0000011
    2   0.0000020  -0.0000220  -0.0000199   0.0000904   0.0001106  -0.0000132
    3  -0.0000132   0.0001517   0.0001418   0.0000559  -0.0003628  -0.0003808
           13          14          15          16          17          18
    1  -0.0002553  -0.0000848   0.0005103  -0.0002260   0.0000905  -0.0001529
    2  -0.0002267   0.0000511  -0.0008012   0.0024138  -0.0000909  -0.0018034
    3   0.0019770   0.0000782  -0.0021721   0.0000038  -0.0000282   0.0007857
           19          20          21          22          23
    1   0.0000387  -0.0001670   0.0001165  -0.0000263  -0.0000712
    2   0.0003129   0.0003136  -0.0000505  -0.0001362  -0.0000895
    3  -0.0000247  -0.0001864  -0.0001638   0.0000573   0.0000867
 Max gradient component =       2.414E-03
 RMS gradient           =       5.428E-04
 Gradient time:  CPU 4.57 s  wall 4.57 s
 Geometry Optimization Parameters
   NAtoms,    NIC,     NZ,  NCons,   NDum,   NFix, NCnnct, MaxDiis
       23     166       0       1       0       0       0       0

 Cartesian Hessian Update
 Hessian Updated using BFGS Update


** CONSTRAINED OPTIMIZATION IN DELOCALIZED INTERNAL COORDINATES **
   Searching for a Minimum

   Optimization Cycle:   4

                       Coordinates (Angstroms)
     ATOM                X               Y               Z
      1  H         6.2205512620   -0.2589800481    0.2779368109
      2  H         5.3265366894    2.2017282005   -0.0586275398
      3  C         5.1924808611    0.0514303484    0.1514772835
      4  C         4.6999700152    1.3178621134   -0.0239037445
      5  S         3.9245171208   -1.1322666271    0.1600853986
      6  C         3.2828337082    1.3448195423   -0.1684571979
      7  H         2.7139043300    2.2523154867   -0.3379102851
      8  C         2.6977671895    0.0964243565   -0.0992723623
      9  H         1.3266175486   -2.3714951713   -0.7146801472
     10  C         1.2954972138   -0.2616299017   -0.2102513249
     11  C         0.7337454815   -1.4872320639   -0.5084204299
     12  S         0.0384085161    0.9329215378    0.0501938150
     13  C        -0.6868281318   -1.4768388870   -0.5176178405
     14  H        -1.2962937681   -2.3530292510   -0.7082337681
     15  C        -1.2311816563   -0.2418567180   -0.2404592299
     16  C        -2.6332252921    0.1407868888   -0.1312435148
     17  H        -2.7309639263    1.2164460119    1.7426527254
     18  C        -3.2618332004    0.8437443515    0.8738920053
     19  S        -3.7933629416   -0.3390783811   -1.3566836557
     20  C        -4.6646240273    0.9952065992    0.6675818824
     21  C        -5.0988398755    0.3997389520   -0.4883582832
     22  H        -5.3242106690    1.5084129604    1.3580266040
     23  H        -6.1063924477    0.3500858898   -0.8787225412
   Point Group: c1    Number of degrees of freedom:    63


   Energy is  -1656.663101039

              Constraints and their Current Values
                                        Value     Constraint
   Dihedral:       13  15  16  18      130.000      130.000
 Hessian Updated using BFGS Update

 61 Hessian modes will be used to form the next step
  Hessian Eigenvalues:
     0.011429    0.045000    0.045000    0.045000    0.045000    0.045000
     0.045001    0.045001    0.045001    0.045002    0.045003    0.045004
     0.045009    0.045014    0.045018    0.045125    0.047126    0.049443
     0.159904    0.159949    0.159959    0.159992    0.159999    0.160013
     0.160195    0.160905    0.221285    0.222001    0.226847    0.237880
     0.240638    0.249849    0.249956    0.250025    0.251119    0.257739
     0.293656    0.293958    0.294827    0.295302    0.312577    0.312877
     0.354737    0.354744    0.354750    0.354796    0.355164    0.355222
     0.358373    0.358462    0.383808    0.390369    0.405838    0.408433
     0.422256    0.458587    0.461996    0.463278    0.485969    0.497272
     0.497873

 Minimum Search - Taking Simple RFO Step
 Searching for Lamda that Minimizes Along All modes
 Value Taken    Lamda =  -0.00002178
 Step Taken.  Stepsize is  0.036843

                             Maximum     Tolerance    Cnvgd?
         Gradient           0.000355      0.000300      NO
         Displacement       0.015560      0.001200      NO
         Energy change     -0.000027      0.000001      NO


 New Cartesian Coordinates Obtained by Inverse Iteration

 Displacement from previous Coordinates is:  0.100598
 ----------------------------------------------------------------
             Standard Nuclear Orientation (Angstroms)
    I     Atom           X                Y                Z
 ----------------------------------------------------------------
    1      H       6.2186792879    -0.2623242769     0.2854932386
    2      H       5.3274604482     2.1994872106    -0.0505882167
    3      C       5.1911804436     0.0490497385     0.1568732119
    4      C       4.7001126375     1.3160799045    -0.0183408702
    5      S       3.9222625447    -1.1337424044     0.1615098531
    6      C       3.2833586216     1.3444011076    -0.1659415767
    7      H       2.7154474042     2.2525478524    -0.3352950656
    8      C       2.6972331882     0.0963272548    -0.0992663163
    9      H       1.3246839816    -2.3699812915    -0.7188307525
   10      C       1.2950382796    -0.2603948189    -0.2129599363
   11      C       0.7324602694    -1.4851877241    -0.5129619387
   12      S       0.0388019582     0.9354198519     0.0463865350
   13      C      -0.6877521752    -1.4727645150    -0.5272178757
   14      H      -1.2972389637    -2.3492405262    -0.7164338434
   15      C      -1.2314619783    -0.2364286604    -0.2526293154
   16      C      -2.6321290908     0.1460904068    -0.1394328433
   17      H      -2.7221409749     1.2328024140     1.7294336278
   18      C      -3.2567231569     0.8531104691     0.8659987237
   19      S      -3.8001045768    -0.3525645685    -1.3498473877
   20      C      -4.6616373201     0.9952709235     0.6698998096
   21      C      -5.1021306493     0.3880223633    -0.4774621230
   22      H      -5.3180702331     1.5122294416     1.3605727599
   23      H      -6.1122559458     0.3313060372    -0.8599550381
 ----------------------------------------------------------------
 Nuclear Repulsion Energy =  1172.3561998322 hartrees
 There are       64 alpha and       64 beta electrons
 Applying Cartesian multipole field
    Component          Value
    ---------          -----
     (2,0,0)        1.00000E-12
     (0,2,0)        2.00000E-11
     (0,0,2)       -3.00000E-11
 Nucleus-field energy     =     0.0000000085 hartrees
 Requested basis set is 6-31++G(d,p)
 There are 110 shells and 345 basis functions
 A cutoff of  1.0D-12 yielded   4687 shell pairs
 There are     47730 function pairs

 Q-Chem warning in module /project/projectdirs/jcesr/qchem/qc44/cnl_qc441/compile/cori/qc_src/libqints/qchem/aobasis.C, line 68:

 Using reconstructed effective core potential

 Smallest overlap matrix eigenvalue = 8.19E-08
 Linear dependence detected in AO basis
 Number of orthogonalized atomic orbitals = 343
 Maximum deviation from orthogonality = 1.429E-10
 Guess MOs from SCF MO coefficient file
 Reading MOs from coefficient file
 Reading MOs from coefficient file
 A restricted hybrid HF-DFT SCF calculation will be
 performed using Pulay DIIS extrapolation
 Exchange:     0.2000 Hartree-Fock + 0.0800 Slater + 0.7200 B88
 Correlation:  0.1900 VWN1RPA + 0.8100 LYP
 Using SG-1 standard quadrature grid
 SCF converges when DIIS error is below 1.0E-08
 Geometry optimization detected.  Setting ReadMinima to 0
 Setting SaveMinima to 0
 ---------------------------------------
  Cycle       Energy         DIIS Error
 ---------------------------------------
    1   -1656.6624120187      2.78E-04
    2   -1656.6630950137      3.14E-05
    3   -1656.6630415164      6.62E-05
    4   -1656.6631136332      8.57E-06
    5   -1656.6631145814      3.99E-06
    6   -1656.6631148091      1.45E-06
    7   -1656.6631148412      5.05E-07
    8   -1656.6631148473      1.76E-07
    9   -1656.6631148458      5.26E-08
   10   -1656.6631148432      1.60E-08
   11   -1656.6631148436      7.83E-09 Convergence criterion met
 ---------------------------------------
 SCF time:  CPU 12.22 s  wall 11.22 s
 SCF   energy in the final basis set = -1656.6631148436
 Total energy in the final basis set = -1656.6631148436
 
 --------------------------------------------------------------
 
                    Orbital Energies (a.u.)
 --------------------------------------------------------------
 
 Alpha MOs
 -- Occupied --
-88.921 -88.921 -88.921 -10.241 -10.240 -10.240 -10.239 -10.226
-10.226 -10.206 -10.206 -10.205 -10.205 -10.205 -10.205  -7.981
 -7.981  -7.980  -5.945  -5.945  -5.945  -5.941  -5.941  -5.941
 -5.938  -5.938  -5.937  -0.906  -0.892  -0.876  -0.786  -0.755
 -0.745  -0.744  -0.733  -0.697  -0.616  -0.596  -0.569  -0.561
 -0.536  -0.535  -0.528  -0.501  -0.462  -0.422  -0.420  -0.417
 -0.415  -0.407  -0.402  -0.401  -0.385  -0.377  -0.370  -0.360
 -0.350  -0.345  -0.290  -0.266  -0.262  -0.261  -0.247  -0.206
 -- Virtual --
 -0.067  -0.032  -0.007  -0.006  -0.002   0.003   0.007   0.009
  0.012   0.017   0.023   0.026   0.030   0.033   0.039   0.042
  0.046   0.049   0.052   0.056   0.058   0.062   0.068   0.077
  0.086   0.087   0.088   0.094   0.102   0.105   0.107   0.110
  0.112   0.116   0.121   0.121   0.127   0.127   0.130   0.132
  0.134   0.141   0.144   0.145   0.148   0.151   0.152   0.156
  0.160   0.162   0.170   0.172   0.176   0.183   0.186   0.188
  0.194   0.197   0.204   0.212   0.213   0.217   0.221   0.222
  0.226   0.229   0.234   0.245   0.252   0.256   0.259   0.260
  0.269   0.269   0.273   0.275   0.280   0.290   0.294   0.298
  0.313   0.320   0.328   0.333   0.341   0.351   0.356   0.361
  0.367   0.374   0.380   0.395   0.400   0.454   0.456   0.464
  0.497   0.508   0.521   0.533   0.535   0.556   0.572   0.576
  0.582   0.596   0.614   0.625   0.629   0.648   0.656   0.658
  0.662   0.667   0.677   0.686   0.699   0.710   0.715   0.721
  0.726   0.729   0.734   0.748   0.754   0.772   0.778   0.787
  0.792   0.804   0.818   0.825   0.832   0.836   0.847   0.870
  0.894   0.931   0.936   0.936   0.954   0.960   0.960   0.963
  0.968   0.970   0.981   0.985   0.994   0.996   1.010   1.026
  1.035   1.043   1.047   1.061   1.077   1.093   1.098   1.107
  1.108   1.118   1.152   1.162   1.171   1.185   1.202   1.215
  1.254   1.260   1.265   1.295   1.312   1.329   1.345   1.349
  1.354   1.361   1.365   1.384   1.444   1.454   1.480   1.495
  1.511   1.535   1.542   1.563   1.602   1.681   1.692   1.717
  1.755   1.793   1.835   1.858   1.870   1.884   1.891   1.906
  1.918   1.923   1.950   1.960   1.987   2.005   2.027   2.062
  2.073   2.093   2.096   2.112   2.149   2.176   2.180   2.194
  2.200   2.230   2.238   2.260   2.281   2.293   2.331   2.364
  2.367   2.421   2.436   2.444   2.454   2.459   2.466   2.484
  2.502   2.522   2.530   2.536   2.548   2.583   2.591   2.601
  2.622   2.666   2.677   2.703   2.710   2.732   2.809   2.859
  2.873   2.891   2.917   2.936   2.944   3.133   3.174   3.211
  3.270   3.272   3.326   3.413   3.415   3.674   3.730   3.737
  3.973   3.977   3.982   4.256   4.275   4.306   4.319   4.328
  4.354   4.396   4.481   4.547   4.646   4.694   4.725
 --------------------------------------------------------------
 
          Ground-State Mulliken Net Atomic Charges

     Atom                 Charge (a.u.)
  ----------------------------------------
      1 H                     0.196215
      2 H                     0.119377
      3 C                     0.036238
      4 C                    -0.397256
      5 S                    -0.112419
      6 C                     0.528294
      7 H                     0.126778
      8 C                    -0.470648
      9 H                     0.118476
     10 C                    -0.020714
     11 C                    -0.201052
     12 S                    -0.140439
     13 C                     0.184100
     14 H                     0.133770
     15 C                    -0.136171
     16 C                    -0.481787
     17 H                     0.141800
     18 C                     0.402202
     19 S                    -0.015034
     20 C                    -0.366578
     21 C                     0.042837
     22 H                     0.118137
     23 H                     0.193872
  ----------------------------------------
  Sum of atomic charges =     0.000000

 -----------------------------------------------------------------
                    Cartesian Multipole Moments
 -----------------------------------------------------------------
    Charge (ESU x 10^10)
                 0.0000
    Dipole Moment (Debye)
         X      -0.0412      Y       0.2429      Z       0.3427
       Tot       0.4221
    Quadrupole Moments (Debye-Ang)
        XX     -90.2766     XY       0.2513     YY    -104.6532
        XZ      -0.3994     YZ       2.9759     ZZ    -112.5602
    Octopole Moments (Debye-Ang^2)
       XXX      -8.9845    XXY      16.7992    XYY      11.5503
       YYY     -14.7019    XXZ      20.9897    XYZ     -11.5110
       YYZ      16.9008    XZZ     -20.7683    YZZ      -2.1498
       ZZZ      59.7062
    Hexadecapole Moments (Debye-Ang^3)
      XXXX   -6336.7938   XXXY      40.1732   XXYY   -1328.9703
      XYYY     135.1004   YYYY    -701.2844   XXXZ     -63.5298
      XXYZ      10.7725   XYYZ     -71.6063   YYYZ     -57.9153
      XXZZ   -1339.5917   XYZZ      15.6977   YYZZ    -189.6820
      XZZZ    -170.7296   YZZZ     -62.0989   ZZZZ    -389.2927
 -----------------------------------------------------------------
 Calculating analytic gradient of the SCF energy
 Gradient of SCF Energy
            1           2           3           4           5           6
    1  -0.0000021  -0.0000035  -0.0000257   0.0000187  -0.0000271  -0.0000367
    2   0.0000017  -0.0000004  -0.0000189   0.0000162   0.0000030  -0.0000398
    3   0.0000061   0.0000017   0.0000038  -0.0000147   0.0000099  -0.0000305
            7           8           9          10          11          12
    1   0.0000024   0.0001474  -0.0000007  -0.0001912   0.0001545  -0.0000336
    2   0.0000089  -0.0000357  -0.0000188   0.0000935   0.0000370  -0.0000325
    3   0.0000058   0.0001103   0.0001064  -0.0000679  -0.0001677  -0.0000425
           13          14          15          16          17          18
    1  -0.0000838  -0.0000269  -0.0000499   0.0004226   0.0000045  -0.0003184
    2  -0.0004088  -0.0000212  -0.0004192   0.0025926  -0.0001666  -0.0016622
    3   0.0019130   0.0002026  -0.0025970  -0.0004081   0.0000664   0.0009722
           19          20          21          22          23
    1   0.0000414  -0.0000581   0.0001132  -0.0000139  -0.0000329
    2   0.0000275   0.0001463   0.0000337  -0.0000800  -0.0000563
    3   0.0000052  -0.0000744  -0.0001251   0.0000353   0.0000892
 Max gradient component =       2.597E-03
 RMS gradient           =       5.640E-04
 Gradient time:  CPU 4.68 s  wall 4.57 s
 Geometry Optimization Parameters
   NAtoms,    NIC,     NZ,  NCons,   NDum,   NFix, NCnnct, MaxDiis
       23     166       0       1       0       0       0       0

 Cartesian Hessian Update
 Hessian Updated using BFGS Update


** CONSTRAINED OPTIMIZATION IN DELOCALIZED INTERNAL COORDINATES **
   Searching for a Minimum

   Optimization Cycle:   5

                       Coordinates (Angstroms)
     ATOM                X               Y               Z
      1  H         6.2186792879   -0.2623242769    0.2854932386
      2  H         5.3274604482    2.1994872106   -0.0505882167
      3  C         5.1911804436    0.0490497385    0.1568732119
      4  C         4.7001126375    1.3160799045   -0.0183408702
      5  S         3.9222625447   -1.1337424044    0.1615098531
      6  C         3.2833586216    1.3444011076   -0.1659415767
      7  H         2.7154474042    2.2525478524   -0.3352950656
      8  C         2.6972331882    0.0963272548   -0.0992663163
      9  H         1.3246839816   -2.3699812915   -0.7188307525
     10  C         1.2950382796   -0.2603948189   -0.2129599363
     11  C         0.7324602694   -1.4851877241   -0.5129619387
     12  S         0.0388019582    0.9354198519    0.0463865350
     13  C        -0.6877521752   -1.4727645150   -0.5272178757
     14  H        -1.2972389637   -2.3492405262   -0.7164338434
     15  C        -1.2314619783   -0.2364286604   -0.2526293154
     16  C        -2.6321290908    0.1460904068   -0.1394328433
     17  H        -2.7221409749    1.2328024140    1.7294336278
     18  C        -3.2567231569    0.8531104691    0.8659987237
     19  S        -3.8001045768   -0.3525645685   -1.3498473877
     20  C        -4.6616373201    0.9952709235    0.6698998096
     21  C        -5.1021306493    0.3880223633   -0.4774621230
     22  H        -5.3180702331    1.5122294416    1.3605727599
     23  H        -6.1122559458    0.3313060372   -0.8599550381
   Point Group: c1    Number of degrees of freedom:    63


   Energy is  -1656.663114844

              Constraints and their Current Values
                                        Value     Constraint
   Dihedral:       13  15  16  18      130.000      130.000
 Hessian Updated using BFGS Update

 62 Hessian modes will be used to form the next step
  Hessian Eigenvalues:
     0.009907    0.038233    0.045000    0.045000    0.045000    0.045000
     0.045000    0.045000    0.045001    0.045001    0.045002    0.045003
     0.045004    0.045006    0.045010    0.045014    0.045020    0.045583
     0.051875    0.159011    0.159915    0.159952    0.159961    0.159994
     0.159999    0.160239    0.160504    0.221285    0.222001    0.226829
     0.237861    0.240975    0.249383    0.249949    0.250126    0.250635
     0.258344    0.293513    0.293714    0.294726    0.295086    0.312582
     0.312942    0.354737    0.354741    0.354750    0.354795    0.355164
     0.355217    0.358372    0.358478    0.383782    0.390422    0.405814
     0.408806    0.421567    0.458554    0.461805    0.463371    0.485192
     0.497284    0.498017

 Minimum Search - Taking Simple RFO Step
 Searching for Lamda that Minimizes Along All modes
 Value Taken    Lamda =  -0.00000602
 Step Taken.  Stepsize is  0.017684

                             Maximum     Tolerance    Cnvgd?
         Gradient           0.000150      0.000300     YES
         Displacement       0.007616      0.001200      NO
         Energy change     -0.000014      0.000001      NO


 New Cartesian Coordinates Obtained by Inverse Iteration

 Displacement from previous Coordinates is:  0.038496
 ----------------------------------------------------------------
             Standard Nuclear Orientation (Angstroms)
    I     Atom           X                Y                Z
 ----------------------------------------------------------------
    1      H       6.2189560113    -0.2627362482     0.2862008471
    2      H       5.3273850017     2.1991882477    -0.0479404473
    3      C       5.1914263110     0.0486184156     0.1577515389
    4      C       4.7001328878     1.3156837706    -0.0164447258
    5      S       3.9225975950    -1.1343214114     0.1613035974
[...]
    5   -1656.6631197910      4.82E-07
    6   -1656.6631197936      2.53E-07
    7   -1656.6631197951      6.80E-08
    8   -1656.6631197962      2.05E-08
    9   -1656.6631197971      7.40E-09 Convergence criterion met
 ---------------------------------------
 SCF time:  CPU 9.91 s  wall 9.08 s
 SCF   energy in the final basis set = -1656.6631197971
 Total energy in the final basis set = -1656.6631197971
 
 --------------------------------------------------------------
 
                    Orbital Energies (a.u.)
 --------------------------------------------------------------
 
 Alpha MOs
 -- Occupied --
-88.921 -88.921 -88.921 -10.241 -10.240 -10.240 -10.239 -10.226
-10.226 -10.206 -10.206 -10.206 -10.205 -10.205 -10.205  -7.981
 -7.981  -7.980  -5.945  -5.945  -5.945  -5.941  -5.941  -5.941
 -5.938  -5.938  -5.937  -0.906  -0.892  -0.876  -0.786  -0.755
 -0.745  -0.744  -0.733  -0.697  -0.617  -0.596  -0.570  -0.561
 -0.536  -0.535  -0.528  -0.501  -0.462  -0.422  -0.420  -0.417
 -0.415  -0.407  -0.402  -0.401  -0.385  -0.377  -0.370  -0.360
 -0.350  -0.345  -0.290  -0.266  -0.263  -0.261  -0.247  -0.206
 -- Virtual --
 -0.067  -0.032  -0.007  -0.006  -0.002   0.003   0.007   0.009
  0.011   0.017   0.023   0.027   0.030   0.033   0.039   0.042
  0.046   0.049   0.052   0.055   0.058   0.062   0.069   0.077
  0.086   0.087   0.088   0.094   0.102   0.105   0.107   0.110
  0.112   0.116   0.121   0.121   0.127   0.127   0.130   0.132
  0.134   0.141   0.144   0.145   0.148   0.151   0.152   0.156
  0.161   0.162   0.170   0.172   0.176   0.183   0.186   0.188
  0.193   0.197   0.204   0.212   0.213   0.217   0.221   0.222
  0.226   0.229   0.234   0.245   0.252   0.256   0.259   0.260
  0.269   0.270   0.273   0.275   0.280   0.290   0.293   0.298
  0.313   0.320   0.328   0.333   0.341   0.351   0.356   0.361
  0.367   0.374   0.380   0.395   0.400   0.454   0.457   0.464
  0.497   0.508   0.521   0.533   0.535   0.556   0.572   0.576
  0.582   0.596   0.614   0.625   0.630   0.648   0.656   0.658
  0.662   0.667   0.677   0.686   0.698   0.710   0.715   0.721
  0.726   0.729   0.734   0.748   0.754   0.772   0.779   0.787
  0.793   0.804   0.818   0.825   0.832   0.836   0.847   0.870
  0.894   0.931   0.935   0.936   0.954   0.960   0.960   0.963
  0.967   0.970   0.981   0.985   0.994   0.996   1.010   1.026
  1.035   1.044   1.047   1.061   1.076   1.092   1.098   1.107
  1.108   1.117   1.152   1.162   1.171   1.185   1.202   1.215
  1.254   1.260   1.265   1.295   1.312   1.329   1.346   1.348
  1.354   1.360   1.365   1.384   1.444   1.454   1.480   1.496
  1.512   1.535   1.541   1.564   1.602   1.681   1.692   1.717
  1.755   1.793   1.835   1.858   1.870   1.884   1.891   1.906
  1.918   1.923   1.950   1.960   1.987   2.005   2.027   2.062
  2.073   2.093   2.096   2.111   2.149   2.176   2.180   2.194
  2.200   2.230   2.237   2.259   2.281   2.293   2.331   2.364
  2.367   2.421   2.436   2.444   2.454   2.458   2.466   2.484
  2.501   2.522   2.530   2.536   2.548   2.583   2.591   2.601
  2.623   2.666   2.677   2.702   2.710   2.732   2.809   2.859
  2.872   2.890   2.917   2.936   2.944   3.133   3.174   3.211
  3.270   3.272   3.326   3.413   3.415   3.673   3.730   3.737
  3.973   3.977   3.982   4.256   4.275   4.306   4.319   4.327
  4.354   4.396   4.481   4.547   4.646   4.694   4.725
 --------------------------------------------------------------
 
          Ground-State Mulliken Net Atomic Charges

     Atom                 Charge (a.u.)
  ----------------------------------------
      1 H                     0.196226
      2 H                     0.119423
      3 C                     0.036464
      4 C                    -0.396321
      5 S                    -0.112689
      6 C                     0.530829
      7 H                     0.126821
      8 C                    -0.468476
      9 H                     0.118605
     10 C                    -0.029350
     11 C                    -0.195626
     12 S                    -0.142580
     13 C                     0.182276
     14 H                     0.133671
     15 C                    -0.134232
     16 C                    -0.478596
     17 H                     0.141415
     18 C                     0.400566
     19 S                    -0.015694
     20 C                    -0.367742
     21 C                     0.043034
     22 H                     0.118078
     23 H                     0.193896
  ----------------------------------------
  Sum of atomic charges =     0.000000

 -----------------------------------------------------------------
                    Cartesian Multipole Moments
 -----------------------------------------------------------------
    Charge (ESU x 10^10)
                 0.0000
    Dipole Moment (Debye)
         X      -0.0397      Y       0.2489      Z       0.3373
       Tot       0.4210
    Quadrupole Moments (Debye-Ang)
        XX     -90.2776     XY       0.2396     YY    -104.6314
        XZ      -0.3917     YZ       3.0198     ZZ    -112.5875
    Octopole Moments (Debye-Ang^2)
       XXX      -8.9297    XXY      16.8684    XYY      11.4624
       YYY     -14.2657    XXZ      20.9305    XYZ     -11.5621
       YYZ      16.8527    XZZ     -20.5928    YZZ      -2.0718
       ZZZ      59.4634
    Hexadecapole Moments (Debye-Ang^3)
      XXXX   -6337.9315   XXXY      39.5737   XXYY   -1328.9894
      XYYY     133.6015   YYYY    -701.7778   XXXZ     -63.5474
      XXYZ      11.0613   XYYZ     -71.6052   YYYZ     -58.4783
      XXZZ   -1340.5294   XYZZ      15.3845   YYZZ    -189.4005
      XZZZ    -170.7132   YZZZ     -62.9415   ZZZZ    -388.3544
 -----------------------------------------------------------------
 Calculating analytic gradient of the SCF energy
 Gradient of SCF Energy
            1           2           3           4           5           6
    1  -0.0000023   0.0000006  -0.0000008  -0.0000050  -0.0000057   0.0000068
    2  -0.0000019  -0.0000013   0.0000031  -0.0000020  -0.0000094   0.0000090
    3   0.0000077  -0.0000017   0.0000011  -0.0000013   0.0000125  -0.0000215
            7           8           9          10          11          12
    1   0.0000002  -0.0000108  -0.0000012   0.0000275  -0.0000409   0.0000024
    2  -0.0000015  -0.0000103  -0.0000003   0.0000079  -0.0000195  -0.0000113
    3   0.0000015   0.0000187  -0.0000069  -0.0000400   0.0000452   0.0000394
           13          14          15          16          17          18
    1   0.0001001   0.0000075  -0.0004499   0.0008414  -0.0000195  -0.0004757
    2  -0.0004889  -0.0000200  -0.0003273   0.0028154  -0.0000312  -0.0018980
    3   0.0021978   0.0000590  -0.0029516  -0.0004892   0.0000246   0.0011034
           19          20          21          22          23
    1  -0.0000010   0.0000298  -0.0000102   0.0000021   0.0000046
    2  -0.0000219  -0.0000376   0.0000221   0.0000294  -0.0000044
    3   0.0000069   0.0000290  -0.0000106  -0.0000210  -0.0000029
 Max gradient component =       2.952E-03
 RMS gradient           =       6.375E-04
 Gradient time:  CPU 4.67 s  wall 4.58 s
 Geometry Optimization Parameters
   NAtoms,    NIC,     NZ,  NCons,   NDum,   NFix, NCnnct, MaxDiis
       23     166       0       1       0       0       0       0

 Cartesian Hessian Update
 Hessian Updated using BFGS Update


** CONSTRAINED OPTIMIZATION IN DELOCALIZED INTERNAL COORDINATES **
   Searching for a Minimum

   Optimization Cycle:   7

                       Coordinates (Angstroms)
     ATOM                X               Y               Z
      1  H         6.2190011445   -0.2627685909    0.2856394492
      2  H         5.3270185875    2.1992042491   -0.0472232180
      3  C         5.1913946866    0.0485201887    0.1576776240
      4  C         4.6998897985    1.3156051008   -0.0158334972
      5  S         3.9227877465   -1.1346528288    0.1610920592
      6  C         3.2831421224    1.3437803175   -0.1631314250
      7  H         2.7149553224    2.2519472529   -0.3313612475
      8  C         2.6972485381    0.0954311262   -0.0979349046
      9  H         1.3234488417   -2.3698319483   -0.7220925182
     10  C         1.2952788409   -0.2614018818   -0.2113022855
     11  C         0.7318036126   -1.4853288762   -0.5132553012
     12  S         0.0394784342    0.9353274238    0.0472381744
     13  C        -0.6881194595   -1.4713911059   -0.5307404865
     14  H        -1.2975030531   -2.3468648711   -0.7249328444
     15  C        -1.2316275335   -0.2344520900   -0.2574654437
     16  C        -2.6315893807    0.1483757205   -0.1424678980
     17  H        -2.7183832139    1.2450930682    1.7212414537
     18  C        -3.2549029489    0.8574074599    0.8625639342
     19  S        -3.8033048457   -0.3601828439   -1.3454131537
     20  C        -4.6607492018    0.9949978775    0.6710239269
     21  C        -5.1041341726    0.3812345694   -0.4717138252
     22  H        -5.3153029977    1.5166515521    1.3599729688
     23  H        -6.1147568686    0.3228153202   -0.8525768816
   Point Group: c1    Number of degrees of freedom:    63


   Energy is  -1656.663119797

              Constraints and their Current Values
                                        Value     Constraint
   Dihedral:       13  15  16  18      130.000      130.000
 Hessian Updated using BFGS Update

 61 Hessian modes will be used to form the next step
  Hessian Eigenvalues:
     0.009923    0.021061    0.045000    0.045000    0.045000    0.045000
     0.045001    0.045001    0.045002    0.045002    0.045003    0.045006
     0.045010    0.045014    0.045016    0.045263    0.046246    0.048877
     0.159777    0.159930    0.159961    0.159982    0.159997    0.160006
     0.160226    0.160509    0.221316    0.222067    0.226890    0.238046
     0.241731    0.248622    0.249970    0.250048    0.251052    0.265768
     0.293379    0.293667    0.294664    0.294991    0.312587    0.312983
     0.354738    0.354749    0.354752    0.354820    0.355165    0.355224
     0.358376    0.358500    0.383781    0.391669    0.405950    0.409395
     0.425752    0.458687    0.462084    0.463870    0.486272    0.497258
     0.498690

 Minimum Search - Taking Simple RFO Step
 Searching for Lamda that Minimizes Along All modes
 Value Taken    Lamda =   0.00000000
 Step Taken.  Stepsize is  0.002969

                             Maximum     Tolerance    Cnvgd?
         Gradient           0.000050      0.000300     YES
         Displacement       0.001147      0.001200     YES
         Energy change     -0.000001      0.000001      NO

 Final energy is   -1656.66311979705     


 ******************************
 **  OPTIMIZATION CONVERGED  **
 ******************************

                       Coordinates (Angstroms)
     ATOM                X               Y               Z
      1  H         6.2190011445   -0.2627685909    0.2856394492
      2  H         5.3270185875    2.1992042491   -0.0472232180
      3  C         5.1913946866    0.0485201887    0.1576776240
      4  C         4.6998897985    1.3156051008   -0.0158334972
      5  S         3.9227877465   -1.1346528288    0.1610920592
      6  C         3.2831421224    1.3437803175   -0.1631314250
      7  H         2.7149553224    2.2519472529   -0.3313612475
      8  C         2.6972485381    0.0954311262   -0.0979349046
      9  H         1.3234488417   -2.3698319483   -0.7220925182
     10  C         1.2952788409   -0.2614018818   -0.2113022855
     11  C         0.7318036126   -1.4853288762   -0.5132553012
     12  S         0.0394784342    0.9353274238    0.0472381744
     13  C        -0.6881194595   -1.4713911059   -0.5307404865
     14  H        -1.2975030531   -2.3468648711   -0.7249328444
     15  C        -1.2316275335   -0.2344520900   -0.2574654437
     16  C        -2.6315893807    0.1483757205   -0.1424678980
     17  H        -2.7183832139    1.2450930682    1.7212414537
     18  C        -3.2549029489    0.8574074599    0.8625639342
     19  S        -3.8033048457   -0.3601828439   -1.3454131537
     20  C        -4.6607492018    0.9949978775    0.6710239269
     21  C        -5.1041341726    0.3812345694   -0.4717138252
     22  H        -5.3153029977    1.5166515521    1.3599729688
     23  H        -6.1147568686    0.3228153202   -0.8525768816

Z-matrix Print:
$molecule
0 1
S 
C  1 1.753864
C  2 1.380825 1 110.172979
H  3 1.084437 2 122.849435 1 179.332290 0
C  3 1.420099 2 113.704139 1 -0.345108 0
H  5 1.084211 3 123.797763 2 -178.465110 0
C  5 1.378441 3 113.616273 2 0.686401 0
C  2 1.451103 1 120.828390 3 -179.991453 0
C  8 1.380542 2 128.953731 1 -19.786483 0
H  9 1.084391 8 122.837209 2 -0.899998 0
C  9 1.424663 8 113.532558 2 -179.692826 0
H  11 1.083985 9 123.794169 8 179.565202 0
C  11 1.370105 9 112.837908 8 0.154172 0
H  13 1.081319 11 128.472228 9 179.517851 0
C  7 1.455910 5 129.105771 3 -177.609152 0
C  15 1.378889 7 128.862178 5 130.000000 0
H  16 1.084196 15 122.509288 7 1.320227 0
C  16 1.425490 15 113.422368 7 -177.249219 0
H  18 1.084073 16 123.815707 15 179.727584 0
C  18 1.370819 16 112.816638 15 0.526397 0
H  20 1.081586 18 128.312630 16 179.447719 0
S  20 1.733553 18 111.648993 16 -0.720635 0
S  13 1.734726 11 111.633820 9 -0.621426 0
$end

 
 --------------------------------------------------------------
 
                    Orbital Energies (a.u.)
 --------------------------------------------------------------
 
 Alpha MOs
 -- Occupied --
-88.921 -88.921 -88.921 -10.241 -10.240 -10.240 -10.239 -10.226
-10.226 -10.206 -10.206 -10.206 -10.205 -10.205 -10.205  -7.981
 -7.981  -7.980  -5.945  -5.945  -5.945  -5.941  -5.941  -5.941
 -5.938  -5.938  -5.937  -0.906  -0.892  -0.876  -0.786  -0.755
 -0.745  -0.744  -0.733  -0.697  -0.617  -0.596  -0.570  -0.561
 -0.536  -0.535  -0.528  -0.501  -0.462  -0.422  -0.420  -0.417
 -0.415  -0.407  -0.402  -0.401  -0.385  -0.377  -0.370  -0.360
 -0.350  -0.345  -0.290  -0.266  -0.263  -0.261  -0.247  -0.206
 -- Virtual --
 -0.067  -0.032  -0.007  -0.006  -0.002   0.003   0.007   0.009
  0.011   0.017   0.023   0.027   0.030   0.033   0.039   0.042
  0.046   0.049   0.052   0.055   0.058   0.062   0.069   0.077
  0.086   0.087   0.088   0.094   0.102   0.105   0.107   0.110
  0.112   0.116   0.121   0.121   0.127   0.127   0.130   0.132
  0.134   0.141   0.144   0.145   0.148   0.151   0.152   0.156
  0.161   0.162   0.170   0.172   0.176   0.183   0.186   0.188
  0.193   0.197   0.204   0.212   0.213   0.217   0.221   0.222
  0.226   0.229   0.234   0.245   0.252   0.256   0.259   0.260
  0.269   0.270   0.273   0.275   0.280   0.290   0.293   0.298
  0.313   0.320   0.328   0.333   0.341   0.351   0.356   0.361
  0.367   0.374   0.380   0.395   0.400   0.454   0.457   0.464
  0.497   0.508   0.521   0.533   0.535   0.556   0.572   0.576
  0.582   0.596   0.614   0.625   0.630   0.648   0.656   0.658
  0.662   0.667   0.677   0.686   0.698   0.710   0.715   0.721
  0.726   0.729   0.734   0.748   0.754   0.772   0.779   0.787
  0.793   0.804   0.818   0.825   0.832   0.836   0.847   0.870
  0.894   0.931   0.935   0.936   0.954   0.960   0.960   0.963
  0.967   0.970   0.981   0.985   0.994   0.996   1.010   1.026
  1.035   1.044   1.047   1.061   1.076   1.092   1.098   1.107
  1.108   1.117   1.152   1.162   1.171   1.185   1.202   1.215
  1.254   1.260   1.265   1.295   1.312   1.329   1.346   1.348
  1.354   1.360   1.365   1.384   1.444   1.454   1.480   1.496
  1.512   1.535   1.541   1.564   1.602   1.681   1.692   1.717
  1.755   1.793   1.835   1.858   1.870   1.884   1.891   1.906
  1.918   1.923   1.950   1.960   1.987   2.005   2.027   2.062
  2.073   2.093   2.096   2.111   2.149   2.176   2.180   2.194
  2.200   2.230   2.237   2.259   2.281   2.293   2.331   2.364
  2.367   2.421   2.436   2.444   2.454   2.458   2.466   2.484
  2.501   2.522   2.530   2.536   2.548   2.583   2.591   2.601
  2.623   2.666   2.677   2.702   2.710   2.732   2.809   2.859
  2.872   2.890   2.917   2.936   2.944   3.133   3.174   3.211
  3.270   3.272   3.326   3.413   3.415   3.673   3.730   3.737
  3.973   3.977   3.982   4.256   4.275   4.306   4.319   4.327
  4.354   4.396   4.481   4.547   4.646   4.694   4.725
 --------------------------------------------------------------
 
          Ground-State Mulliken Net Atomic Charges

     Atom                 Charge (a.u.)
  ----------------------------------------
      1 H                     0.196226
      2 H                     0.119423
      3 C                     0.036464
      4 C                    -0.396321
      5 S                    -0.112689
      6 C                     0.530829
      7 H                     0.126821
      8 C                    -0.468476
      9 H                     0.118605
     10 C                    -0.029350
     11 C                    -0.195626
     12 S                    -0.142580
     13 C                     0.182276
     14 H                     0.133671
     15 C                    -0.134232
     16 C                    -0.478596
     17 H                     0.141415
     18 C                     0.400566
     19 S                    -0.015694
     20 C                    -0.367742
     21 C                     0.043034
     22 H                     0.118078
     23 H                     0.193896
  ----------------------------------------
  Sum of atomic charges =     0.000000

 -----------------------------------------------------------------
                    Cartesian Multipole Moments
 -----------------------------------------------------------------
    Charge (ESU x 10^10)
                 0.0000
    Dipole Moment (Debye)
         X      -0.0397      Y       0.2489      Z       0.3373
       Tot       0.4210
    Quadrupole Moments (Debye-Ang)
        XX     -90.2776     XY       0.2396     YY    -104.6314
        XZ      -0.3917     YZ       3.0198     ZZ    -112.5875
    Octopole Moments (Debye-Ang^2)
       XXX      -8.9297    XXY      16.8684    XYY      11.4624
       YYY     -14.2657    XXZ      20.9305    XYZ     -11.5621
       YYZ      16.8527    XZZ     -20.5928    YZZ      -2.0718
       ZZZ      59.4634
    Hexadecapole Moments (Debye-Ang^3)
      XXXX   -6337.9315   XXXY      39.5737   XXYY   -1328.9894
      XYYY     133.6015   YYYY    -701.7778   XXXZ     -63.5474
      XXYZ      11.0613   XYYZ     -71.6052   YYYZ     -58.4783
      XXZZ   -1340.5294   XYZZ      15.3845   YYZZ    -189.4005
      XZZZ    -170.7132   YZZZ     -62.9415   ZZZZ    -388.3544
 -----------------------------------------------------------------
Archival summary:
1\1\nid00479\OPT\ProcedureUnspecified\BasisUnspecified\3128\bwood\TueMay3010:54:402017TueMay3010:54:402017\0\\#,OPT,ProcedureUnspecified,BasisUnspecified,\\0,1\S\C,1,1.75386\C,2,1.38082,1,110.173\H,3,1.08444,2,122.849,1,179.332,0\C,3,1.4201,2,113.704,1,-0.345108,0\H,5,1.08421,3,123.798,2,-178.465,0\C,5,1.37844,3,113.616,2,0.686401,0\C,2,1.4511,1,120.828,3,-179.991,0\C,8,1.38054,2,128.954,1,-19.7865,0\H,9,1.08439,8,122.837,2,-0.899998,0\C,9,1.42466,8,113.533,2,-179.693,0\H,11,1.08398,9,123.794,8,179.565,0\C,11,1.3701,9,112.838,8,0.154172,0\H,13,1.08132,11,128.472,9,179.518,0\C,7,1.45591,5,129.106,3,-177.609,0\C,15,1.37889,7,128.862,5,130,0\H,16,1.0842,15,122.509,7,1.32023,0\C,16,1.42549,15,113.422,7,-177.249,0\H,18,1.08407,16,123.816,15,179.728,0\C,18,1.37082,16,112.817,15,0.526397,0\H,20,1.08159,18,128.313,16,179.448,0\S,20,1.73355,18,111.649,16,-0.720635,0\S,13,1.73473,11,111.634,9,-0.621426,0\\\@

 Total job time:  115.93s(wall), 123.42s(cpu) 
 Tue May 30 10:54:40 2017

        *************************************************************
        *                                                           *
        *  Thank you very much for using Q-Chem.  Have a nice day.  *
        *                                                           *
        *************************************************************


0 sent ACK to 0 
now end server 0 ... 
