srun -N 1 --ntasks-per-node 22 --cpus-per-task 2 --cpu_bind=cores --nodelist nid00553 /global/project/projectdirs/jcesr/qchem/qc44/cnl_qc441/dist/exe/qcprog.cori.haswell.exe .pt_nn_neutral_50.0.in.37577.qcin.1 /dev/shm/eg_qchem/qchem37577/
Process 4 of 22 is on nid00553 - thread support 0
Process 6 of 22 is on nid00553 - thread support 0
Process 0 of 22 is on nid00553 - thread support 0
Process 1 of 22 is on nid00553 - thread support 0
Process 2 of 22 is on nid00553 - thread support 0
Process 3 of 22 is on nid00553 - thread support 0
Process 5 of 22 is on nid00553 - thread support 0
Process 21 of 22 is on nid00553 - thread support 0
initial socket setup ...start
initial socket setup ...done 
now start server 0 ... 
nid00553 10.128.2
Q-Chem Developer Version! Running on 10.128.2.*
                  Welcome to Q-Chem
     A Quantum Leap Into The Future Of Chemistry


 Q-Chem 4.4, Q-Chem, Inc., Pleasanton, CA (2016)

 Y. Shao,  Z. Gan,  E. Epifanovsky,  A. T. B. Gilbert,  M. Wormit,  
 J. Kussmann,  A. W. Lange,  A. Behn,  J. Deng,  X. Feng,  D. Ghosh,  
 M. Goldey,  P. R. Horn,  L. D. Jacobson,  I. Kaliman,  F. Rob,  
 R. Z. Khaliullin,  T. Kus,  A. Landau,  J. Liu,  E. I. Proynov,  Y. M. Rhee,  
 R. M. Richard,  M. A. Rohrdanz,  R. P. Steele,  E. J. Sundstrom,  
 H. L. Woodcock III,  P. M. Zimmerman,  D. Zuev,  B. Albrecht,  E. Alguire,  
 B. Austin,  S. A. Baeppler,  G. J. O. Beran,  Y. A. Bernard,  
 E. J. Berquist,  K. Brandhorst,  K. B. Bravaya,  S. T. Brown,  D. Casanova,  
 C.-M. Chang,  Y. Chen,  S. H. Chien,  K. D. Closser,  M. P. Coons,  
 D. L. Crittenden,  S. Dasgupta,  M. Diedenhofen,  R. A. DiStasio Jr.,  
 H. Do,  A. D. Dutoi,  R. G. Edgar,  P.-T. Fang,  S. Fatehi,  Q. Feng,  
 L. Fusti-Molnar,  A. Ghysels,  A. Golubeva-Zadorozhnaya,  J. Gomes,  
 A. Gunina,  M. W. D. Hanson-Heine,  P. H. P. Harbach,  A. W. Hauser,  
 J. E. Herr,  E. G. Hohenstein,  Z. C. Holden,  K. Hui,  T.-C. Jagau,  H. Ji,  
 B. Kaduk,  K. Khistyaev,  Jaehoon Kim,  Jihan Kim,  R. A. King,  
 P. Klunzinger,  K. Koh,  D. Kosenkov,  T. Kowalczyk,  C. M. Krauter,  
 A. Kunitsa,  K. U. Lao,  A. Laurent,  K. V. Lawler,  J. Lee,  D. Lefrancois,  
 S. Lehtola,  S. V. Levchenko,  C. Y. Lin,  Y.-S. Lin,  F. Liu,  E. Livshits,  
 R. C. Lochan,  A. Luenser,  P. Manohar,  S. F. Manzer,  S.-P. Mao,  Y. Mao,  
 N. Mardirossian,  A. V. Marenich,  L. A. Martinez-Martinez,  S. A. Maurer,  
 N. J. Mayhall,  J.-M. Mewes,  A. F. Morrison,  K. Nanda,  T. S. Nguyen-Beck,  
 C. M. Oana,  R. Olivares-Amaya,  D. P. O'Neill,  J. A. Parkhill,  
 T. M. Perrine,  R. Peverati,  P. A. Pieniazek,  F. Plasser,  A. Prociuk,  
 D. R. Rehn,  E. Rosta,  N. J. Russ,  N. Sergueev,  S. M. Sharada,  
 S. Sharma,  D. W. Small,  A. Sodt,  T. Stauch,  T. Stein,  D. Stuck,  
 Y.-C. Su,  A. J. W. Thom,  T. Tsuchimochi,  L. Vogt,  O. Vydrov,  T. Wang,  
 M. A. Watson,  J. Wenzel,  A. White,  C. F. Williams,  V. Vanovschi,  
 K. Yao,  S. Yeganeh,  S. R. Yost,  Z.-Q. You,  I. Y. Zhang,  X. Zhang,  
 Y. Zhao,  B. R. Brooks,  G. K. L. Chan,  D. M. Chipman,  C. J. Cramer,  
 W. A. Goddard III,  M. S. Gordon,  W. J. Hehre,  A. Klamt,  
 H. F. Schaefer III,  M. W. Schmidt,  C. D. Sherrill,  D. G. Truhlar,  
 A. Warshel,  X. Xu,  A. Aspuru-Guzik,  R. Baer,  A. T. Bell,  N. A. Besley,  
 J.-D. Chai,  A. Dreuw,  B. D. Dunietz,  T. R. Furlani,  S. R. Gwaltney,  
 C.-P. Hsu,  Y. Jung,  J. Kong,  D. S. Lambrecht,  W. Liang,  C. Ochsenfeld,  
 V. A. Rassolov,  L. V. Slipchenko,  J. E. Subotnik,  T. Van Voorhis,  
 J. M. Herbert,  A. I. Krylov,  P. M. W. Gill,  M. Head-Gordon

 Contributors to earlier versions of Q-Chem not listed above: 
 R. D. Adamson,  J. Baker,  E. F. C. Byrd,  A. K. Chakraborty,  C.-L. Cheng,  
 H. Dachsel,  R. J. Doerksen,  G. Hawkins,  A. Heyden,  S. Hirata,  
 G. Kedziora,  F. J. Keil,  C. Kelley,  P. P. Korambath,  W. Kurlancheek,  
 A. M. Lee,  M. S. Lee,  D. Liotard,  I. Lotan,  P. E. Maslen,  N. Nair,  
 D. Neuhauser,  R. Olson,  B. Peters,  J. Ritchie,  N. E. Schultz,  
 N. Shenvi,  A. C. Simmonett,  K. S. Thanthiriwatte,  Q. Wu,  W. Zhang

 Please cite Q-Chem as follows:
 Y. Shao et al., Mol. Phys. 113, 184-215 (2015)
 DOI: 10.1080/00268976.2014.952696

 Q-Chem 4.4.2 for Intel X86 EM64T Linux

 Parts of Q-Chem use Armadillo 5.200.1 (Boston Tea Smuggler).
 http://arma.sourceforge.net/

 Q-Chem begins on Tue May 30 10:52:42 2017  

Host: nid00478
0

     Scratch files written to /dev/shm/eg_qchem/qchem37577.0//
 Parallel job on  22  processors

Checking the input file for inconsistencies... 	...done.

--------------------------------------------------------------
User input:
--------------------------------------------------------------
$molecule
 0  1
 H           6.23254100       -0.22338900        0.17638100
 H           5.29752400        2.22850500       -0.10953100
 C           5.19733500        0.07486000        0.08356300
 C           4.68347900        1.33634400       -0.06443600
 S           3.94559900       -1.12581000        0.11905200
 C           3.26267300        1.34659400       -0.16511200
 H           2.67740100        2.24810800       -0.30841700
 C           2.69562400        0.08941900       -0.09094600
 H           1.33241900       -2.39005500       -0.68762600
 C           1.29739300       -0.28590200       -0.16150800
 C           0.73808300       -1.51455700       -0.45078400
 S           0.03601800        0.89451200        0.14982500
 C          -0.68041100       -1.51067300       -0.44936800
 H          -1.28012400       -2.38277100       -0.68510300
 C          -1.23220500       -0.27900200       -0.15852500
 C          -2.62830100        0.10383400       -0.08465000
 H          -3.52102031       -1.39148323        1.20940039
 C          -3.66141298       -0.50562658        0.60000735
 S          -3.22139082        1.51816349       -0.93965720
 C          -4.91264865        0.15837155        0.44990894
 C          -4.83237393        1.27129166       -0.34523770
 H          -5.83117066       -0.17263691        0.92085739
 H          -5.61954597        1.95964719       -0.62045418
$end


$rem
         jobtype = opt
        exchange = b3lyp
           basis = 6-31++g**
  max_scf_cycles = 150
      mem_static = 281
       mem_total = 2818
      sym_ignore = true
        symmetry = false
          thresh = 12
$end


$opt
CONSTRAINT
tors 13 15 16 18 50.0
ENDCONSTRAINT
$end

--------------------------------------------------------------
 ----------------------------------------------------------------
             Standard Nuclear Orientation (Angstroms)
    I     Atom           X                Y                Z
 ----------------------------------------------------------------
    1      H       6.2325410000    -0.2233890000     0.1763810000
    2      H       5.2975240000     2.2285050000    -0.1095310000
    3      C       5.1973350000     0.0748600000     0.0835630000
    4      C       4.6834790000     1.3363440000    -0.0644360000
    5      S       3.9455990000    -1.1258100000     0.1190520000
    6      C       3.2626730000     1.3465940000    -0.1651120000
    7      H       2.6774010000     2.2481080000    -0.3084170000
    8      C       2.6956240000     0.0894190000    -0.0909460000
    9      H       1.3324190000    -2.3900550000    -0.6876260000
   10      C       1.2973930000    -0.2859020000    -0.1615080000
   11      C       0.7380830000    -1.5145570000    -0.4507840000
   12      S       0.0360180000     0.8945120000     0.1498250000
   13      C      -0.6804110000    -1.5106730000    -0.4493680000
   14      H      -1.2801240000    -2.3827710000    -0.6851030000
   15      C      -1.2322050000    -0.2790020000    -0.1585250000
   16      C      -2.6283010000     0.1038340000    -0.0846500000
   17      H      -3.5210203100    -1.3914832300     1.2094003900
   18      C      -3.6614129800    -0.5056265800     0.6000073500
   19      S      -3.2213908200     1.5181634900    -0.9396572000
   20      C      -4.9126486500     0.1583715500     0.4499089400
   21      C      -4.8323739300     1.2712916600    -0.3452377000
   22      H      -5.8311706600    -0.1726369100     0.9208573900
   23      H      -5.6195459700     1.9596471900    -0.6204541800
 ----------------------------------------------------------------
 Nuclear Repulsion Energy =  1176.9383321591 hartrees
 There are       64 alpha and       64 beta electrons
 Requested basis set is 6-31++G(d,p)
 There are 110 shells and 345 basis functions

 Total QAlloc Memory Limit   2818 MB
 Mega-Array Size       275 MB
 MEM_STATIC part       281 MB
 A cutoff of  1.0D-12 yielded   4677 shell pairs
 There are     47704 function pairs

 Q-Chem warning in module /project/projectdirs/jcesr/qchem/qc44/cnl_qc441/compile/cori/qc_src/libqints/qchem/aobasis.C, line 68:

 Using reconstructed effective core potential

 
 -------------------------------------------------------
 OpenMP Integral Computing Module                       
 Release: version 1.0, May 2013, Q-Chem Inc. Pittsburgh 
 -------------------------------------------------------
 Integral Job Info:
 Integral job number is                      11
 Integral operator is                         1
 short-range coefficients                     0
 long-range coefficients              100000000
 Omega coefficients                           0
 if combine SR and LR in K                    0
 Integral screening is                        0
 Integral computing path is                   2
 max size of driver memory is            800000
 size of driver memory is                593474
 size of scratch memory is             15166112
 max col of scratch BK array               1296
 max len of scratch array in speh3          155
 max len of scratch index in speh4           18
 max int batch size is                      520
 min int batch size is                       52
 fixed nKL is                                52
 max L of basis functions is                  2
 order of int derivative is                   0
 number of shells is                        110
 number of basis is                         345
 number of cartesian basis is               345
 number of contracted shell pairs          4677
 number of primitive shell pairs          14609
 maxK2 (contraction) of shell pair           36
 max number of K2 of shell pair               1
 max number of CS2 of shell pair            511
 max number of PS2 of shell pair           3030
 mem total for path MDJ                  101704
 -------------------------------------------------------
 Smallest overlap matrix eigenvalue = 8.26E-08
 Linear dependence detected in AO basis
 Number of orthogonalized atomic orbitals = 343
 Maximum deviation from orthogonality = 1.681E-10

 Scale SEOQF with 1.000000e-02/1.000000e-01/1.000000e-01

 Standard Electronic Orientation quadrupole field applied
 Nucleus-field energy     =     0.0000000136 hartrees
 Guess from superposition of atomic densities
 Warning:  Energy on first SCF cycle will be non-variational
 A restricted hybrid HF-DFT SCF calculation will be
 performed using Pulay DIIS extrapolation
 Exchange:     0.2000 Hartree-Fock + 0.0800 Slater + 0.7200 B88
 Correlation:  0.1900 VWN1RPA + 0.8100 LYP
 Using SG-1 standard quadrature grid
 SCF converges when DIIS error is below 1.0E-08
 ---------------------------------------
  Cycle       Energy         DIIS Error
 ---------------------------------------
    1   -1660.2913088277      3.68E-02
    2   -1656.4255681544      3.76E-03
    3   -1656.0966335977      5.69E-03
    4   -1656.6477234097      9.13E-04
    5   -1656.6580430213      5.23E-04
    6   -1656.6617484942      1.95E-04
    7   -1656.6623185405      7.27E-05
    8   -1656.6623994179      1.37E-05
    9   -1656.6624022860      3.85E-06
   10   -1656.6624024748      1.99E-06
   11   -1656.6624025404      4.38E-07
   12   -1656.6624025455      2.25E-07
   13   -1656.6624025440      6.57E-08
   14   -1656.6624025431      2.40E-08
   15   -1656.6624025441      1.06E-08
   16   -1656.6624025430      2.53E-09 Convergence criterion met
 ---------------------------------------
 SCF time:  CPU 17.68 s  wall 16.24 s
 SCF   energy in the final basis set = -1656.6624025430
 Total energy in the final basis set = -1656.6624025430
 
 --------------------------------------------------------------
 
                    Orbital Energies (a.u.)
 --------------------------------------------------------------
 
 Alpha MOs
 -- Occupied --
-88.921 -88.921 -88.921 -10.241 -10.240 -10.239 -10.238 -10.226
-10.226 -10.207 -10.206 -10.205 -10.205 -10.205 -10.205  -7.980
 -7.980  -7.980  -5.945  -5.944  -5.944  -5.941  -5.941  -5.940
 -5.938  -5.937  -5.937  -0.906  -0.892  -0.876  -0.787  -0.755
 -0.745  -0.743  -0.733  -0.697  -0.617  -0.595  -0.568  -0.564
 -0.537  -0.534  -0.528  -0.499  -0.463  -0.421  -0.420  -0.418
 -0.415  -0.408  -0.402  -0.399  -0.385  -0.375  -0.370  -0.359
 -0.352  -0.344  -0.287  -0.266  -0.262  -0.260  -0.249  -0.206
 -- Virtual --
 -0.067  -0.033  -0.009  -0.006  -0.004   0.001   0.008   0.010
  0.015   0.018   0.023   0.028   0.032   0.033   0.037   0.044
  0.045   0.047   0.052   0.054   0.060   0.063   0.073   0.076
  0.080   0.089   0.092   0.095   0.098   0.104   0.107   0.109
  0.111   0.113   0.121   0.123   0.126   0.131   0.133   0.133
  0.136   0.138   0.141   0.146   0.148   0.150   0.152   0.152
  0.161   0.168   0.169   0.175   0.177   0.180   0.185   0.189
  0.195   0.202   0.203   0.206   0.209   0.212   0.220   0.221
  0.231   0.237   0.237   0.243   0.249   0.253   0.260   0.261
  0.263   0.269   0.272   0.275   0.288   0.298   0.300   0.310
  0.311   0.318   0.325   0.335   0.344   0.347   0.355   0.358
  0.365   0.372   0.383   0.397   0.406   0.450   0.454   0.461
  0.489   0.510   0.523   0.530   0.532   0.565   0.571   0.580
  0.583   0.595   0.609   0.619   0.631   0.648   0.655   0.657
  0.661   0.671   0.676   0.688   0.697   0.709   0.713   0.721
  0.725   0.729   0.732   0.748   0.763   0.768   0.775   0.780
  0.791   0.797   0.822   0.825   0.832   0.836   0.852   0.877
  0.900   0.928   0.941   0.944   0.957   0.958   0.959   0.962
  0.966   0.973   0.981   0.989   0.995   1.001   1.008   1.025
  1.032   1.045   1.049   1.066   1.078   1.086   1.099   1.104
  1.110   1.117   1.143   1.152   1.170   1.185   1.201   1.212
  1.243   1.261   1.268   1.293   1.311   1.335   1.347   1.351
  1.356   1.364   1.365   1.385   1.449   1.459   1.469   1.502
  1.513   1.538   1.548   1.568   1.613   1.685   1.690   1.725
  1.761   1.796   1.834   1.869   1.877   1.882   1.895   1.912
  1.916   1.917   1.945   1.953   1.965   2.013   2.021   2.049
  2.062   2.080   2.105   2.125   2.156   2.175   2.187   2.198
  2.206   2.230   2.242   2.258   2.264   2.288   2.327   2.364
  2.366   2.418   2.434   2.446   2.455   2.463   2.471   2.481
  2.504   2.521   2.531   2.537   2.556   2.584   2.597   2.612
  2.625   2.656   2.679   2.701   2.715   2.741   2.784   2.848
  2.873   2.896   2.908   2.944   2.961   3.130   3.176   3.215
  3.272   3.272   3.327   3.414   3.417   3.672   3.732   3.738
  3.959   3.980   3.993   4.258   4.281   4.311   4.317   4.332
  4.356   4.395   4.479   4.550   4.645   4.697   4.730
 --------------------------------------------------------------
 
          Ground-State Mulliken Net Atomic Charges

     Atom                 Charge (a.u.)
  ----------------------------------------
      1 H                     0.196616
      2 H                     0.119439
      3 C                     0.031563
      4 C                    -0.404778
      5 S                    -0.126583
      6 C                     0.559934
      7 H                     0.127731
      8 C                    -0.390077
      9 H                     0.125270
     10 C                    -0.105176
     11 C                    -0.035772
     12 S                    -0.142442
     13 C                     0.030218
     14 H                     0.133259
     15 C                    -0.176382
     16 C                    -0.424637
     17 H                     0.149922
     18 C                     0.421540
     19 S                    -0.045518
     20 C                    -0.399084
     21 C                     0.039326
     22 H                     0.119519
     23 H                     0.196112
  ----------------------------------------
  Sum of atomic charges =     0.000000

 -----------------------------------------------------------------
                    Cartesian Multipole Moments
 -----------------------------------------------------------------
    Charge (ESU x 10^10)
                 0.0000
    Dipole Moment (Debye)
         X      -0.2014      Y      -0.2997      Z       0.0910
       Tot       0.3724
    Quadrupole Moments (Debye-Ang)
        XX     -89.7116     XY       1.5376     YY    -102.3575
        XZ      -1.4232     YZ      -1.5105     ZZ    -114.5129
    Octopole Moments (Debye-Ang^2)
       XXX     -19.8322    XXY       3.8491    XYY      -6.8032
       YYY     -54.1466    XXZ      24.8845    XYZ       9.1480
       YYZ       6.8265    XZZ     -18.0120    YZZ     -20.6085
       ZZZ      42.4351
    Hexadecapole Moments (Debye-Ang^3)
      XXXX   -6196.5543   XXXY     163.3813   XXYY   -1251.4773
      XYYY     263.6684   YYYY    -868.8868   XXXZ     -85.1708
      XXYZ     -47.0190   XYYZ     -15.2865   YYYZ      47.4588
      XXZZ   -1326.4195   XYZZ      81.9032   YYZZ    -201.0378
      XZZZ     -74.6994   YZZZ      46.2938   ZZZZ    -280.4423
 -----------------------------------------------------------------
 Calculating analytic gradient of the SCF energy
 Gradient of SCF Energy
            1           2           3           4           5           6
    1  -0.0000139   0.0000103   0.0000319  -0.0000672   0.0000063   0.0001607
    2  -0.0000086  -0.0000031   0.0000442   0.0000405  -0.0001368   0.0003052
    3   0.0000012  -0.0000060  -0.0000193   0.0000013  -0.0000128   0.0000937
            7           8           9          10          11          12
    1   0.0000225  -0.0009709  -0.0000508   0.0010916  -0.0010387  -0.0015090
    2   0.0000020  -0.0001995   0.0000394  -0.0009395  -0.0001246   0.0005957
    3  -0.0000340  -0.0000075   0.0001179  -0.0004018  -0.0006815   0.0011792
           13          14          15          16          17          18
    1   0.0023389   0.0006742  -0.0051683   0.0058661  -0.0009803  -0.0020150
    2  -0.0005118  -0.0007428   0.0029508  -0.0005168  -0.0003932   0.0010349
    3  -0.0012339   0.0002712   0.0008165  -0.0013890  -0.0000784   0.0010742
           19          20          21          22          23
    1   0.0014685   0.0007107  -0.0008699   0.0000443   0.0002582
    2  -0.0008119  -0.0000211  -0.0005817   0.0000246  -0.0000459
    3  -0.0011435   0.0007954   0.0008933  -0.0000907  -0.0001453
 Max gradient component =       5.866E-03
 RMS gradient           =       1.232E-03
 Gradient time:  CPU 4.68 s  wall 4.65 s
 Geometry Optimization Parameters
   NAtoms,    NIC,     NZ,  NCons,   NDum,   NFix, NCnnct, MaxDiis
       23     166       0       1       0       0       0       0


** CONSTRAINED OPTIMIZATION IN DELOCALIZED INTERNAL COORDINATES **
   Searching for a Minimum

   Optimization Cycle:   1

                       Coordinates (Angstroms)
     ATOM                X               Y               Z
      1  H         6.2325410000   -0.2233890000    0.1763810000
      2  H         5.2975240000    2.2285050000   -0.1095310000
      3  C         5.1973350000    0.0748600000    0.0835630000
      4  C         4.6834790000    1.3363440000   -0.0644360000
      5  S         3.9455990000   -1.1258100000    0.1190520000
      6  C         3.2626730000    1.3465940000   -0.1651120000
      7  H         2.6774010000    2.2481080000   -0.3084170000
      8  C         2.6956240000    0.0894190000   -0.0909460000
      9  H         1.3324190000   -2.3900550000   -0.6876260000
     10  C         1.2973930000   -0.2859020000   -0.1615080000
     11  C         0.7380830000   -1.5145570000   -0.4507840000
     12  S         0.0360180000    0.8945120000    0.1498250000
     13  C        -0.6804110000   -1.5106730000   -0.4493680000
     14  H        -1.2801240000   -2.3827710000   -0.6851030000
     15  C        -1.2322050000   -0.2790020000   -0.1585250000
     16  C        -2.6283010000    0.1038340000   -0.0846500000
     17  H        -3.5210203100   -1.3914832300    1.2094003900
     18  C        -3.6614129800   -0.5056265800    0.6000073500
     19  S        -3.2213908200    1.5181634900   -0.9396572000
     20  C        -4.9126486500    0.1583715500    0.4499089400
     21  C        -4.8323739300    1.2712916600   -0.3452377000
     22  H        -5.8311706600   -0.1726369100    0.9208573900
     23  H        -5.6195459700    1.9596471900   -0.6204541800
   Point Group: c1    Number of degrees of freedom:    63


   Energy is  -1656.662402543

              Constraints and their Current Values
                                        Value     Constraint
   Dihedral:       13  15  16  18       50.000       50.000

 Attempting to Generate Delocalized Internal Coordinates

 62 Hessian modes will be used to form the next step
  Hessian Eigenvalues:
     0.045000    0.045000    0.045000    0.045000    0.045000    0.045000
     0.045000    0.045000    0.045000    0.045001    0.045002    0.045002
     0.045003    0.045003    0.045009    0.045010    0.045011    0.045018
     0.045019    0.159886    0.159939    0.159955    0.159957    0.159992
     0.159993    0.160000    0.160000    0.221281    0.221281    0.226855
     0.237826    0.237826    0.245311    0.249998    0.249998    0.250000
     0.250000    0.293636    0.293684    0.294746    0.294936    0.312571
     0.312615    0.354732    0.354740    0.354742    0.354756    0.355161
     0.355164    0.358372    0.358373    0.383080    0.383176    0.405793
     0.405832    0.413732    0.458107    0.461989    0.461995    0.485493
     0.497291    0.497294

 Minimum Search - Taking Simple RFO Step
 Searching for Lamda that Minimizes Along All modes
 Value Taken    Lamda =  -0.00031548
 Step Taken.  Stepsize is  0.048280

                             Maximum     Tolerance    Cnvgd?
         Gradient           0.003720      0.000300      NO
         Displacement       0.015607      0.001200      NO
         Energy change     *********      0.000001      NO


 New Cartesian Coordinates Obtained by Inverse Iteration

 Displacement from previous Coordinates is:  0.213044
 ----------------------------------------------------------------
             Standard Nuclear Orientation (Angstroms)
    I     Atom           X                Y                Z
 ----------------------------------------------------------------
    1      H       6.2363598720    -0.2426439966     0.1848726396
    2      H       5.3173797975     2.2132758861    -0.1184573835
    3      C       5.2031822504     0.0616429369     0.0889305204
    4      C       4.6976338314     1.3253517128    -0.0681139200
    5      S       3.9435355233    -1.1303716747     0.1309472543
    6      C       3.2769616170     1.3440444729    -0.1704404648
    7      H       2.6975547423     2.2483016592    -0.3202341864
    8      C       2.7017844908     0.0914417957    -0.0884770316
    9      H       1.3235789075    -2.3813925687    -0.6777907203
   10      C       1.3001073382    -0.2751650865    -0.1585761570
   11      C       0.7337979559    -1.5019907624    -0.4434550070
   12      S       0.0453828356     0.9130302095     0.1417041486
   13      C      -0.6861859326    -1.4892990200    -0.4480035304
   14      H      -1.2957179363    -2.3537477761    -0.6855855203
   15      C      -1.2299425068    -0.2569599729    -0.1573715241
   16      C      -2.6344771542     0.1203020693    -0.0882931359
   17      H      -3.4934525183    -1.3882294577     1.2033119027
   18      C      -3.6547704679    -0.5047433360     0.5960537587
   19      S      -3.2477943046     1.5353530640    -0.9304755083
   20      C      -4.9182833656     0.1379553967     0.4439919537
   21      C      -4.8554225853     1.2571913007    -0.3447364433
   22      H      -5.8315729894    -0.2099725698     0.9132114957
   23      H      -5.6541547209     1.9343698877    -0.6153731506
 ----------------------------------------------------------------
 Nuclear Repulsion Energy =  1175.8568315346 hartrees
 There are       64 alpha and       64 beta electrons
 Applying Cartesian multipole field
    Component          Value
    ---------          -----
     (2,0,0)        1.00000E-12
     (0,2,0)        2.00000E-11
     (0,0,2)       -3.00000E-11
 Nucleus-field energy     =     0.0000000137 hartrees
 Requested basis set is 6-31++G(d,p)
 There are 110 shells and 345 basis functions
 A cutoff of  1.0D-12 yielded   4674 shell pairs
 There are     47609 function pairs

 Q-Chem warning in module /project/projectdirs/jcesr/qchem/qc44/cnl_qc441/compile/cori/qc_src/libqints/qchem/aobasis.C, line 68:

 Using reconstructed effective core potential

 Smallest overlap matrix eigenvalue = 8.28E-08
 Linear dependence detected in AO basis
 Number of orthogonalized atomic orbitals = 343
 Maximum deviation from orthogonality = 2.724E-10
 Guess MOs from SCF MO coefficient file
 Reading MOs from coefficient file
 Reading MOs from coefficient file
 A restricted hybrid HF-DFT SCF calculation will be
 performed using Pulay DIIS extrapolation
 Exchange:     0.2000 Hartree-Fock + 0.0800 Slater + 0.7200 B88
 Correlation:  0.1900 VWN1RPA + 0.8100 LYP
 Using SG-1 standard quadrature grid
 SCF converges when DIIS error is below 1.0E-08
 Geometry optimization detected.  Setting ReadMinima to 0
 Setting SaveMinima to 0
 ---------------------------------------
  Cycle       Energy         DIIS Error
 ---------------------------------------
    1   -1656.6656175422      6.11E-04
    2   -1656.6622983039      1.33E-04
    3   -1656.6611448769      2.98E-04
    4   -1656.6625901864      2.51E-05
    5   -1656.6625992833      8.64E-06
    6   -1656.6626003402      2.89E-06
    7   -1656.6626004555      1.08E-06
    8   -1656.6626004739      3.77E-07
    9   -1656.6626004741      1.31E-07
   10   -1656.6626004758      3.15E-08
   11   -1656.6626004755      1.39E-08
   12   -1656.6626004747      4.87E-09 Convergence criterion met
 ---------------------------------------
 SCF time:  CPU 13.44 s  wall 12.29 s
 SCF   energy in the final basis set = -1656.6626004747
 Total energy in the final basis set = -1656.6626004747
 
 --------------------------------------------------------------
 
                    Orbital Energies (a.u.)
 --------------------------------------------------------------
 
 Alpha MOs
 -- Occupied --
-88.921 -88.921 -88.921 -10.241 -10.240 -10.240 -10.239 -10.226
-10.226 -10.206 -10.206 -10.206 -10.205 -10.205 -10.205  -7.980
 -7.980  -7.980  -5.945  -5.944  -5.944  -5.941  -5.941  -5.941
 -5.938  -5.937  -5.937  -0.906  -0.892  -0.876  -0.786  -0.755
 -0.745  -0.744  -0.733  -0.697  -0.616  -0.595  -0.568  -0.564
 -0.537  -0.534  -0.528  -0.499  -0.463  -0.421  -0.420  -0.418
 -0.415  -0.408  -0.402  -0.399  -0.385  -0.376  -0.370  -0.359
 -0.352  -0.344  -0.287  -0.266  -0.262  -0.260  -0.249  -0.206
 -- Virtual --
 -0.066  -0.032  -0.009  -0.006  -0.004   0.001   0.008   0.010
  0.015   0.018   0.023   0.028   0.032   0.033   0.037   0.044
  0.045   0.047   0.052   0.054   0.059   0.063   0.073   0.076
  0.080   0.089   0.092   0.094   0.098   0.104   0.107   0.109
  0.111   0.113   0.120   0.123   0.126   0.131   0.133   0.133
  0.136   0.138   0.141   0.145   0.148   0.150   0.151   0.152
  0.160   0.168   0.168   0.175   0.177   0.180   0.185   0.189
  0.195   0.201   0.203   0.206   0.209   0.211   0.219   0.220
  0.231   0.237   0.237   0.243   0.249   0.254   0.259   0.262
  0.262   0.270   0.272   0.275   0.288   0.298   0.300   0.310
  0.311   0.319   0.324   0.336   0.344   0.346   0.355   0.358
  0.366   0.372   0.382   0.397   0.406   0.451   0.454   0.460
  0.488   0.511   0.523   0.531   0.531   0.565   0.571   0.579
  0.582   0.595   0.609   0.618   0.632   0.648   0.655   0.657
  0.661   0.671   0.675   0.687   0.697   0.708   0.713   0.721
  0.725   0.729   0.732   0.747   0.761   0.767   0.774   0.780
  0.791   0.797   0.821   0.825   0.832   0.836   0.853   0.876
  0.900   0.928   0.941   0.945   0.957   0.958   0.959   0.961
  0.966   0.973   0.981   0.989   0.995   1.002   1.007   1.025
  1.032   1.044   1.048   1.066   1.078   1.087   1.099   1.104
  1.110   1.117   1.143   1.152   1.170   1.185   1.202   1.211
  1.242   1.261   1.268   1.293   1.312   1.335   1.347   1.350
  1.356   1.364   1.365   1.387   1.448   1.457   1.469   1.500
  1.513   1.537   1.546   1.568   1.612   1.685   1.690   1.725
  1.757   1.793   1.832   1.871   1.877   1.882   1.894   1.911
  1.917   1.917   1.944   1.954   1.964   2.012   2.020   2.049
  2.062   2.079   2.104   2.126   2.155   2.174   2.186   2.198
  2.206   2.229   2.241   2.257   2.264   2.287   2.327   2.364
  2.367   2.418   2.434   2.445   2.456   2.463   2.470   2.481
  2.504   2.521   2.531   2.537   2.556   2.584   2.597   2.611
  2.624   2.656   2.678   2.700   2.714   2.740   2.786   2.847
  2.874   2.894   2.906   2.942   2.959   3.130   3.176   3.215
  3.271   3.272   3.326   3.413   3.416   3.672   3.732   3.738
  3.959   3.980   3.991   4.257   4.282   4.311   4.317   4.332
  4.356   4.394   4.479   4.549   4.644   4.696   4.728
 --------------------------------------------------------------
 
          Ground-State Mulliken Net Atomic Charges

     Atom                 Charge (a.u.)
  ----------------------------------------
      1 H                     0.196725
      2 H                     0.119469
      3 C                     0.033262
      4 C                    -0.405111
      5 S                    -0.127023
      6 C                     0.560349
      7 H                     0.127792
      8 C                    -0.390472
      9 H                     0.124917
     10 C                    -0.109473
     11 C                    -0.041782
     12 S                    -0.129345
     13 C                     0.016063
     14 H                     0.134430
     15 C                    -0.159545
     16 C                    -0.417764
     17 H                     0.150954
     18 C                     0.399754
     19 S                    -0.037165
     20 C                    -0.397533
     21 C                     0.035445
     22 H                     0.119636
     23 H                     0.196415
  ----------------------------------------
  Sum of atomic charges =     0.000000

 -----------------------------------------------------------------
                    Cartesian Multipole Moments
 -----------------------------------------------------------------
    Charge (ESU x 10^10)
                 0.0000
    Dipole Moment (Debye)
         X      -0.1924      Y      -0.3123      Z       0.0873
       Tot       0.3770
    Quadrupole Moments (Debye-Ang)
        XX     -89.6000     XY       1.5748     YY    -102.4477
        XZ      -1.3880     YZ      -1.5534     ZZ    -114.5538
    Octopole Moments (Debye-Ang^2)
       XXX     -19.4196    XXY       3.1269    XYY      -6.4460
       YYY     -55.5829    XXZ      24.3965    XYZ       8.9123
       YYZ       6.7568    XZZ     -17.5949    YZZ     -21.1664
       ZZZ      42.0076
    Hexadecapole Moments (Debye-Ang^3)
      XXXX   -6218.8374   XXXY     165.7852   XXYY   -1256.9282
      XYYY     267.4003   YYYY    -870.2022   XXXZ     -84.6206
      XXYZ     -47.5602   XYYZ     -16.7649   YYYZ      49.0120
      XXZZ   -1332.7545   XYZZ      83.4643   YYZZ    -200.7985
      XZZZ     -77.8514   YZZZ      48.3645   ZZZZ    -278.6021
 -----------------------------------------------------------------
 Calculating analytic gradient of the SCF energy
 Gradient of SCF Energy
            1           2           3           4           5           6
    1   0.0000020   0.0000082   0.0000469  -0.0000570   0.0000967   0.0001317
    2   0.0000003  -0.0000044   0.0000031  -0.0000149  -0.0000035   0.0000709
    3  -0.0000011  -0.0000042  -0.0000080   0.0000179  -0.0000333   0.0000834
            7           8           9          10          11          12
    1   0.0000059  -0.0003445  -0.0000132   0.0008900  -0.0005804  -0.0000116
    2  -0.0000131   0.0000299  -0.0000001   0.0000514   0.0001355   0.0000162
    3  -0.0000370  -0.0000318   0.0000066   0.0000324  -0.0000906   0.0004252
           13          14          15          16          17          18
    1   0.0005978   0.0001396  -0.0010682   0.0004700  -0.0002421   0.0000138
    2   0.0006523  -0.0001953  -0.0004826  -0.0016528  -0.0001761   0.0013646
    3  -0.0014978   0.0002133   0.0016528  -0.0013447  -0.0001558   0.0011707
           19          20          21          22          23
    1  -0.0000966   0.0005137  -0.0005526   0.0000233   0.0000266
    2  -0.0001122  -0.0000081   0.0002682   0.0000189   0.0000519
    3  -0.0003087   0.0000974  -0.0001350   0.0000354  -0.0000872
 Max gradient component =       1.653E-03
 RMS gradient           =       5.058E-04
 Gradient time:  CPU 4.74 s  wall 4.66 s
 Geometry Optimization Parameters
   NAtoms,    NIC,     NZ,  NCons,   NDum,   NFix, NCnnct, MaxDiis
       23     166       0       1       0       0       0       0

 Cartesian Hessian Update
 Hessian Updated using BFGS Update


** CONSTRAINED OPTIMIZATION IN DELOCALIZED INTERNAL COORDINATES **
   Searching for a Minimum

   Optimization Cycle:   2

                       Coordinates (Angstroms)
     ATOM                X               Y               Z
      1  H         6.2363598720   -0.2426439966    0.1848726396
      2  H         5.3173797975    2.2132758861   -0.1184573835
      3  C         5.2031822504    0.0616429369    0.0889305204
      4  C         4.6976338314    1.3253517128   -0.0681139200
      5  S         3.9435355233   -1.1303716747    0.1309472543
      6  C         3.2769616170    1.3440444729   -0.1704404648
      7  H         2.6975547423    2.2483016592   -0.3202341864
      8  C         2.7017844908    0.0914417957   -0.0884770316
      9  H         1.3235789075   -2.3813925687   -0.6777907203
     10  C         1.3001073382   -0.2751650865   -0.1585761570
     11  C         0.7337979559   -1.5019907624   -0.4434550070
     12  S         0.0453828356    0.9130302095    0.1417041486
     13  C        -0.6861859326   -1.4892990200   -0.4480035304
     14  H        -1.2957179363   -2.3537477761   -0.6855855203
     15  C        -1.2299425068   -0.2569599729   -0.1573715241
     16  C        -2.6344771542    0.1203020693   -0.0882931359
     17  H        -3.4934525183   -1.3882294577    1.2033119027
     18  C        -3.6547704679   -0.5047433360    0.5960537587
     19  S        -3.2477943046    1.5353530640   -0.9304755083
     20  C        -4.9182833656    0.1379553967    0.4439919537
     21  C        -4.8554225853    1.2571913007   -0.3447364433
     22  H        -5.8315729894   -0.2099725698    0.9132114957
     23  H        -5.6541547209    1.9343698877   -0.6153731506
   Point Group: c1    Number of degrees of freedom:    63


   Energy is  -1656.662600475

              Constraints and their Current Values
                                        Value     Constraint
   Dihedral:       13  15  16  18       50.000       50.000
 Hessian Updated using BFGS Update

 54 Hessian modes will be used to form the next step
  Hessian Eigenvalues:
     0.037997    0.045000    0.045001    0.045001    0.045002    0.045008
     0.045009    0.045009    0.045017    0.045018    0.045778    0.151837
     0.159902    0.159945    0.159958    0.159992    0.159994    0.160000
     0.160056    0.193114    0.221281    0.223068    0.227403    0.237828
     0.239662    0.249991    0.249999    0.250000    0.252990    0.293612
     0.294163    0.294683    0.299011    0.312570    0.313669    0.354733
     0.354740    0.354746    0.354758    0.355163    0.355164    0.358372
     0.358418    0.383150    0.398046    0.405832    0.407719    0.416321
     0.459641    0.461898    0.477133    0.490352    0.497285    0.498067

 Minimum Search - Taking Simple RFO Step
 Searching for Lamda that Minimizes Along All modes
 Value Taken    Lamda =  -0.00006710
 Step Taken.  Stepsize is  0.030944

                             Maximum     Tolerance    Cnvgd?
         Gradient           0.001500      0.000300      NO
         Displacement       0.013475      0.001200      NO
         Energy change     -0.000198      0.000001      NO


 New Cartesian Coordinates Obtained by Inverse Iteration

 Displacement from previous Coordinates is:  0.125259
 ----------------------------------------------------------------
             Standard Nuclear Orientation (Angstroms)
    I     Atom           X                Y                Z
 ----------------------------------------------------------------
    1      H       6.2349780707    -0.2542241718     0.1894205536
    2      H       5.3259009383     2.2039077533    -0.1263456167
    3      C       5.2030403914     0.0536802729     0.0917223911
    4      C       4.7026922844     1.3186616166    -0.0717910589
    5      S       3.9387417972    -1.1331997861     0.1394363930
    6      C       3.2820824514     1.3424103160    -0.1744036764
    7      H       2.7061006790     2.2481666020    -0.3284463742
    8      C       2.7023774472     0.0925271515    -0.0864353570
    9      H       1.3177570480    -2.3764394935    -0.6704726969
   10      C       1.2989678239    -0.2687621069    -0.1556340557
   11      C       0.7303924825    -1.4950009995    -0.4375727978
   12      S       0.0498285195     0.9262559172     0.1389566899
   13      C      -0.6898161882    -1.4760525347    -0.4450881354
   14      H      -1.3050344526    -2.3356221531    -0.6852841441
   15      C      -1.2276869224    -0.2416351232    -0.1543863094
   16      C      -2.6349459356     0.1313454211    -0.0915571088
   17      H      -3.4754250148    -1.3882081931     1.1964308857
   18      C      -3.6484015223    -0.5058038517     0.5909262959
   19      S      -3.2575308124     1.5468812343    -0.9245465953
   20      C      -4.9185058660     0.1242886434     0.4392512592
   21      C      -4.8628890499     1.2485357789    -0.3427539577
   22      H      -5.8293395239    -0.2338512405     0.9056418058
   23      H      -5.6677999657     1.9198831172    -0.6094283998
 ----------------------------------------------------------------
 Nuclear Repulsion Energy =  1175.7496351921 hartrees
 There are       64 alpha and       64 beta electrons
 Applying Cartesian multipole field
    Component          Value
    ---------          -----
     (2,0,0)        1.00000E-12
     (0,2,0)        2.00000E-11
     (0,0,2)       -3.00000E-11
 Nucleus-field energy     =     0.0000000137 hartrees
 Requested basis set is 6-31++G(d,p)
 There are 110 shells and 345 basis functions
 A cutoff of  1.0D-12 yielded   4674 shell pairs
 There are     47609 function pairs

 Q-Chem warning in module /project/projectdirs/jcesr/qchem/qc44/cnl_qc441/compile/cori/qc_src/libqints/qchem/aobasis.C, line 68:

 Using reconstructed effective core potential

 Smallest overlap matrix eigenvalue = 8.15E-08
 Linear dependence detected in AO basis
 Number of orthogonalized atomic orbitals = 343
 Maximum deviation from orthogonality = 1.592E-10
 Guess MOs from SCF MO coefficient file
 Reading MOs from coefficient file
 Reading MOs from coefficient file
 A restricted hybrid HF-DFT SCF calculation will be
 performed using Pulay DIIS extrapolation
 Exchange:     0.2000 Hartree-Fock + 0.0800 Slater + 0.7200 B88
 Correlation:  0.1900 VWN1RPA + 0.8100 LYP
 Using SG-1 standard quadrature grid
 SCF converges when DIIS error is below 1.0E-08
 Geometry optimization detected.  Setting ReadMinima to 0
 Setting SaveMinima to 0
 ---------------------------------------
  Cycle       Energy         DIIS Error
 ---------------------------------------
    1   -1656.6660799278      3.79E-04
    2   -1656.6625357082      7.70E-05
    3   -1656.6621540084      1.72E-04
    4   -1656.6626331959      1.60E-05
    5   -1656.6626369876      4.84E-06
    6   -1656.6626373024      1.93E-06
    7   -1656.6626373568      6.35E-07
    8   -1656.6626373623      2.26E-07
    9   -1656.6626373635      7.95E-08
   10   -1656.6626373651      2.03E-08
   11   -1656.6626373645      8.10E-09 Convergence criterion met
 ---------------------------------------
 SCF time:  CPU 12.33 s  wall 11.34 s
 SCF   energy in the final basis set = -1656.6626373645
 Total energy in the final basis set = -1656.6626373645
 
 --------------------------------------------------------------
 
                    Orbital Energies (a.u.)
 --------------------------------------------------------------
 
 Alpha MOs
 -- Occupied --
-88.921 -88.921 -88.921 -10.241 -10.240 -10.239 -10.239 -10.226
-10.226 -10.206 -10.206 -10.205 -10.205 -10.205 -10.205  -7.980
 -7.980  -7.980  -5.945  -5.945  -5.944  -5.941  -5.941  -5.941
 -5.938  -5.937  -5.937  -0.906  -0.892  -0.876  -0.786  -0.755
 -0.745  -0.744  -0.733  -0.697  -0.616  -0.594  -0.568  -0.564
 -0.537  -0.534  -0.528  -0.499  -0.463  -0.421  -0.420  -0.418
 -0.415  -0.408  -0.402  -0.399  -0.385  -0.376  -0.370  -0.359
 -0.352  -0.344  -0.287  -0.266  -0.262  -0.260  -0.249  -0.206
 -- Virtual --
 -0.066  -0.032  -0.009  -0.006  -0.003   0.001   0.008   0.010
  0.015   0.018   0.023   0.028   0.032   0.033   0.037   0.044
  0.045   0.047   0.052   0.054   0.059   0.063   0.073   0.076
  0.080   0.089   0.092   0.094   0.098   0.105   0.107   0.109
  0.111   0.113   0.120   0.123   0.126   0.131   0.133   0.133
  0.136   0.138   0.141   0.145   0.148   0.150   0.151   0.152
  0.160   0.168   0.168   0.175   0.177   0.180   0.185   0.189
  0.195   0.201   0.203   0.207   0.209   0.211   0.220   0.220
  0.231   0.237   0.237   0.243   0.249   0.254   0.259   0.262
  0.262   0.270   0.272   0.275   0.289   0.298   0.300   0.309
  0.311   0.319   0.324   0.336   0.344   0.346   0.355   0.358
  0.366   0.371   0.382   0.397   0.405   0.451   0.454   0.460
  0.487   0.511   0.523   0.531   0.531   0.565   0.571   0.579
  0.582   0.595   0.610   0.618   0.632   0.648   0.655   0.657
  0.662   0.671   0.674   0.687   0.697   0.708   0.713   0.721
  0.725   0.729   0.732   0.747   0.760   0.767   0.775   0.780
  0.791   0.797   0.821   0.825   0.832   0.836   0.853   0.876
  0.900   0.928   0.941   0.945   0.957   0.958   0.959   0.961
  0.967   0.973   0.981   0.989   0.996   1.002   1.007   1.025
  1.032   1.044   1.048   1.066   1.078   1.087   1.099   1.103
  1.109   1.118   1.142   1.152   1.171   1.184   1.202   1.211
  1.242   1.261   1.268   1.293   1.313   1.335   1.346   1.350
  1.357   1.364   1.365   1.389   1.447   1.456   1.470   1.498
  1.512   1.537   1.546   1.569   1.611   1.685   1.690   1.725
  1.755   1.792   1.832   1.873   1.876   1.883   1.895   1.911
  1.917   1.918   1.944   1.956   1.965   2.012   2.020   2.050
  2.062   2.080   2.105   2.127   2.155   2.175   2.187   2.198
  2.207   2.228   2.242   2.257   2.265   2.287   2.326   2.364
  2.367   2.419   2.434   2.444   2.456   2.464   2.470   2.481
  2.505   2.521   2.531   2.537   2.556   2.584   2.596   2.611
  2.624   2.657   2.677   2.700   2.715   2.740   2.787   2.846
  2.874   2.893   2.906   2.942   2.957   3.130   3.176   3.214
  3.271   3.272   3.325   3.413   3.416   3.673   3.732   3.738
  3.959   3.981   3.991   4.257   4.282   4.311   4.317   4.333
  4.355   4.393   4.478   4.549   4.645   4.696   4.728
 --------------------------------------------------------------
 
          Ground-State Mulliken Net Atomic Charges

     Atom                 Charge (a.u.)
  ----------------------------------------
      1 H                     0.196666
      2 H                     0.119445
      3 C                     0.033676
      4 C                    -0.405232
      5 S                    -0.127512
      6 C                     0.560494
      7 H                     0.127598
      8 C                    -0.390826
      9 H                     0.124827
     10 C                    -0.109341
     11 C                    -0.047952
     12 S                    -0.121106
     13 C                     0.008695
     14 H                     0.135121
     15 C                    -0.152711
     16 C                    -0.406526
     17 H                     0.151403
     18 C                     0.380708
     19 S                    -0.030930
     20 C                    -0.391860
     21 C                     0.029429
     22 H                     0.119855
     23 H                     0.196077
  ----------------------------------------
  Sum of atomic charges =     0.000000

 -----------------------------------------------------------------
                    Cartesian Multipole Moments
 -----------------------------------------------------------------
    Charge (ESU x 10^10)
                 0.0000
    Dipole Moment (Debye)
         X      -0.1927      Y      -0.3160      Z       0.0809
       Tot       0.3789
    Quadrupole Moments (Debye-Ang)
        XX     -89.6416     XY       1.5984     YY    -102.4743
        XZ      -1.3776     YZ      -1.5793     ZZ    -114.5676
    Octopole Moments (Debye-Ang^2)
       XXX     -19.3162    XXY       2.3894    XYY      -6.2478
       YYY     -56.5460    XXZ      24.1092    XYZ       8.7269
       YYZ       6.6393    XZZ     -17.3426    YZZ     -21.5174
       ZZZ      41.5462
    Hexadecapole Moments (Debye-Ang^3)
      XXXX   -6223.5649   XXXY     168.3707   XXYY   -1258.3412
      XYYY     269.0812   YYYY    -871.5402   XXXZ     -85.2743
      XXYZ     -47.6542   XYYZ     -17.7063   YYYZ      50.0268
      XXZZ   -1334.2359   XYZZ      84.2313   YYZZ    -200.6886
      XZZZ     -79.5537   YZZZ      49.7520   ZZZZ    -277.0870
 -----------------------------------------------------------------
 Calculating analytic gradient of the SCF energy
 Gradient of SCF Energy
            1           2           3           4           5           6
    1  -0.0000049  -0.0000073  -0.0000655  -0.0000463   0.0000464   0.0000133
    2  -0.0000016   0.0000068  -0.0000305   0.0000196  -0.0000536  -0.0000107
    3   0.0000006  -0.0000028  -0.0000042  -0.0000051  -0.0000324   0.0000682
            7           8           9          10          11          12
    1  -0.0000051  -0.0000154  -0.0000127  -0.0001130  -0.0000249   0.0002516
    2  -0.0000004   0.0000334  -0.0000606   0.0001167  -0.0000591   0.0003365
    3  -0.0000220  -0.0000629  -0.0000608   0.0001204   0.0001384   0.0001612
           13          14          15          16          17          18
    1   0.0000116  -0.0000258   0.0005228  -0.0011672  -0.0000021   0.0005039
    2   0.0007894  -0.0000201  -0.0008906  -0.0015513  -0.0000697   0.0013523
    3  -0.0017288   0.0000972   0.0026785  -0.0022475  -0.0000919   0.0013711
           19          20          21          22          23
    1  -0.0000918  -0.0000312   0.0002453   0.0000002   0.0000181
    2   0.0003390  -0.0001535  -0.0000442  -0.0000291  -0.0000186
    3  -0.0003030  -0.0000760  -0.0001397   0.0001057   0.0000358
 Max gradient component =       2.678E-03
 RMS gradient           =       6.055E-04
 Gradient time:  CPU 4.74 s  wall 4.62 s
 Geometry Optimization Parameters
   NAtoms,    NIC,     NZ,  NCons,   NDum,   NFix, NCnnct, MaxDiis
       23     166       0       1       0       0       0       0

 Cartesian Hessian Update
 Hessian Updated using BFGS Update


** CONSTRAINED OPTIMIZATION IN DELOCALIZED INTERNAL COORDINATES **
   Searching for a Minimum

   Optimization Cycle:   3

                       Coordinates (Angstroms)
     ATOM                X               Y               Z
      1  H         6.2349780707   -0.2542241718    0.1894205536
      2  H         5.3259009383    2.2039077533   -0.1263456167
      3  C         5.2030403914    0.0536802729    0.0917223911
      4  C         4.7026922844    1.3186616166   -0.0717910589
      5  S         3.9387417972   -1.1331997861    0.1394363930
      6  C         3.2820824514    1.3424103160   -0.1744036764
      7  H         2.7061006790    2.2481666020   -0.3284463742
      8  C         2.7023774472    0.0925271515   -0.0864353570
      9  H         1.3177570480   -2.3764394935   -0.6704726969
     10  C         1.2989678239   -0.2687621069   -0.1556340557
     11  C         0.7303924825   -1.4950009995   -0.4375727978
     12  S         0.0498285195    0.9262559172    0.1389566899
     13  C        -0.6898161882   -1.4760525347   -0.4450881354
     14  H        -1.3050344526   -2.3356221531   -0.6852841441
     15  C        -1.2276869224   -0.2416351232   -0.1543863094
     16  C        -2.6349459356    0.1313454211   -0.0915571088
     17  H        -3.4754250148   -1.3882081931    1.1964308857
     18  C        -3.6484015223   -0.5058038517    0.5909262959
     19  S        -3.2575308124    1.5468812343   -0.9245465953
     20  C        -4.9185058660    0.1242886434    0.4392512592
     21  C        -4.8628890499    1.2485357789   -0.3427539577
     22  H        -5.8293395239   -0.2338512405    0.9056418058
     23  H        -5.6677999657    1.9198831172   -0.6094283998
   Point Group: c1    Number of degrees of freedom:    63


   Energy is  -1656.662637365

              Constraints and their Current Values
                                        Value     Constraint
   Dihedral:       13  15  16  18       50.000       50.000
 Hessian Updated using BFGS Update

 57 Hessian modes will be used to form the next step
  Hessian Eigenvalues:
     0.031109    0.045000    0.045000    0.045000    0.045001    0.045001
     0.045002    0.045003    0.045007    0.045008    0.045009    0.045016
     0.045017    0.045104    0.046722    0.152668    0.159920    0.159954
     0.159958    0.159993    0.160051    0.160549    0.186724    0.221287
     0.223487    0.227406    0.237844    0.240747    0.249998    0.250000
     0.250033    0.271188    0.293593    0.294079    0.295085    0.297997
     0.312572    0.313823    0.354740    0.354746    0.354758    0.354801
     0.355164    0.355255    0.358372    0.358564    0.383487    0.399850
     0.405953    0.408111    0.417655    0.459576    0.462165    0.477039
     0.493428    0.497283    0.500806

 Minimum Search - Taking Simple RFO Step
 Searching for Lamda that Minimizes Along All modes
 Value Taken    Lamda =  -0.00000782
 Step Taken.  Stepsize is  0.012228

                             Maximum     Tolerance    Cnvgd?
         Gradient           0.000491      0.000300      NO
         Displacement       0.006951      0.001200      NO
         Energy change     -0.000037      0.000001      NO


 New Cartesian Coordinates Obtained by Inverse Iteration

 Displacement from previous Coordinates is:  0.027148
 ----------------------------------------------------------------
             Standard Nuclear Orientation (Angstroms)
    I     Atom           X                Y                Z
 ----------------------------------------------------------------
    1      H       6.2356958706    -0.2550486049     0.1901563481
    2      H       5.3275532193     2.2028383404    -0.1298672950
    3      C       5.2038665043     0.0531218956     0.0920849689
    4      C       4.7039701504     1.3179627379    -0.0736379766
    5      S       3.9388706135    -1.1330151580     0.1421684338
    6      C       3.2832474420     1.3420972582    -0.1760554486
    7      H       2.7076617535     2.2478651785    -0.3314671597
    8      C       2.7029319791     0.0926243924    -0.0858319639
    9      H       1.3171127626    -2.3757864239    -0.6684480373
   10      C       1.2991880495    -0.2682677326    -0.1545268170
   11      C       0.7299699140    -1.4942744151    -0.4356653703
   12      S       0.0503177468     0.9272097976     0.1397127442
   13      C      -0.6904572966    -1.4745457489    -0.4428674277
   14      H      -1.3063528541    -2.3331945915    -0.6844789822
   15      C      -1.2277183782    -0.2394918351    -0.1518915619
   16      C      -2.6349915823     0.1326265107    -0.0922556983
   17      H      -3.4747135848    -1.3903811927     1.1924053418
   18      C      -3.6486310684    -0.5074846133     0.5879212520
   19      S      -3.2584205953     1.5496073140    -0.9207174168
   20      C      -4.9193822468     0.1221322952     0.4371985001
   21      C      -4.8642639171     1.2487725742    -0.3411798614
   22      H      -5.8304423311    -0.2379068774     0.9014880678
   23      H      -5.6695274708     1.9202830687    -0.6066046500
 ----------------------------------------------------------------
 Nuclear Repulsion Energy =  1175.7070191733 hartrees
 There are       64 alpha and       64 beta electrons
 Applying Cartesian multipole field
    Component          Value
    ---------          -----
     (2,0,0)        1.00000E-12
     (0,2,0)        2.00000E-11
     (0,0,2)       -3.00000E-11
 Nucleus-field energy     =     0.0000000138 hartrees
 Requested basis set is 6-31++G(d,p)
 There are 110 shells and 345 basis functions
 A cutoff of  1.0D-12 yielded   4674 shell pairs
 There are     47609 function pairs

 Q-Chem warning in module /project/projectdirs/jcesr/qchem/qc44/cnl_qc441/compile/cori/qc_src/libqints/qchem/aobasis.C, line 68:

 Using reconstructed effective core potential

 Smallest overlap matrix eigenvalue = 8.13E-08
 Linear dependence detected in AO basis
 Number of orthogonalized atomic orbitals = 343
 Maximum deviation from orthogonality = 1.364E-10
 Guess MOs from SCF MO coefficient file
 Reading MOs from coefficient file
 Reading MOs from coefficient file
 A restricted hybrid HF-DFT SCF calculation will be
 performed using Pulay DIIS extrapolation
 Exchange:     0.2000 Hartree-Fock + 0.0800 Slater + 0.7200 B88
 Correlation:  0.1900 VWN1RPA + 0.8100 LYP
 Using SG-1 standard quadrature grid
 SCF converges when DIIS error is below 1.0E-08
 Geometry optimization detected.  Setting ReadMinima to 0
 Setting SaveMinima to 0
 ---------------------------------------
  Cycle       Energy         DIIS Error
 ---------------------------------------
    1   -1656.6626951245      9.62E-05
    2   -1656.6626408209      9.58E-06
    3   -1656.6626359437      2.01E-05
    4   -1656.6626424717      3.03E-06
    5   -1656.6626426015      1.08E-06
    6   -1656.6626426182      3.06E-07
    7   -1656.6626426184      1.63E-07
    8   -1656.6626426201      3.66E-08
    9   -1656.6626426186      1.41E-08
   10   -1656.6626426182      4.80E-09 Convergence criterion met
 ---------------------------------------
 SCF time:  CPU 11.11 s  wall 10.15 s
 SCF   energy in the final basis set = -1656.6626426182
 Total energy in the final basis set = -1656.6626426182
 
 --------------------------------------------------------------
 
                    Orbital Energies (a.u.)
 --------------------------------------------------------------
 
 Alpha MOs
 -- Occupied --
-88.921 -88.921 -88.921 -10.241 -10.240 -10.239 -10.239 -10.226
-10.226 -10.206 -10.206 -10.206 -10.205 -10.205 -10.205  -7.980
 -7.980  -7.980  -5.945  -5.945  -5.944  -5.941  -5.941  -5.941
 -5.938  -5.937  -5.937  -0.906  -0.892  -0.876  -0.786  -0.755
 -0.745  -0.744  -0.734  -0.697  -0.616  -0.594  -0.568  -0.564
 -0.537  -0.534  -0.528  -0.499  -0.463  -0.421  -0.420  -0.418
 -0.415  -0.408  -0.402  -0.399  -0.385  -0.376  -0.370  -0.359
 -0.352  -0.344  -0.288  -0.266  -0.262  -0.260  -0.249  -0.206
 -- Virtual --
 -0.066  -0.032  -0.009  -0.006  -0.003   0.001   0.008   0.010
  0.015   0.018   0.023   0.028   0.032   0.033   0.037   0.044
  0.045   0.047   0.052   0.054   0.059   0.063   0.073   0.076
  0.080   0.089   0.092   0.094   0.098   0.105   0.107   0.109
  0.111   0.113   0.120   0.123   0.126   0.131   0.133   0.133
  0.137   0.138   0.141   0.145   0.148   0.150   0.151   0.152
  0.160   0.168   0.168   0.175   0.177   0.180   0.185   0.188
  0.195   0.201   0.203   0.207   0.209   0.211   0.219   0.220
  0.231   0.237   0.237   0.243   0.249   0.254   0.259   0.262
  0.262   0.270   0.272   0.275   0.289   0.298   0.300   0.309
  0.311   0.319   0.324   0.336   0.344   0.346   0.354   0.358
  0.366   0.371   0.382   0.397   0.405   0.451   0.454   0.460
  0.487   0.511   0.523   0.531   0.531   0.565   0.571   0.579
  0.582   0.595   0.610   0.618   0.632   0.648   0.655   0.658
  0.662   0.671   0.674   0.687   0.697   0.708   0.713   0.721
  0.725   0.729   0.732   0.747   0.759   0.767   0.775   0.780
  0.791   0.797   0.821   0.825   0.832   0.836   0.853   0.876
  0.900   0.928   0.941   0.945   0.957   0.958   0.959   0.961
  0.967   0.973   0.981   0.989   0.996   1.003   1.007   1.025
  1.032   1.044   1.048   1.066   1.078   1.087   1.099   1.103
  1.109   1.118   1.142   1.152   1.171   1.184   1.202   1.211
  1.242   1.261   1.268   1.293   1.313   1.335   1.346   1.350
  1.357   1.364   1.365   1.389   1.447   1.455   1.470   1.498
  1.512   1.537   1.546   1.569   1.611   1.685   1.689   1.725
  1.754   1.792   1.832   1.873   1.876   1.882   1.895   1.911
  1.917   1.918   1.944   1.956   1.965   2.012   2.020   2.050
  2.062   2.080   2.104   2.127   2.155   2.175   2.187   2.198
  2.207   2.228   2.242   2.257   2.265   2.287   2.326   2.364
  2.367   2.419   2.434   2.443   2.456   2.464   2.470   2.481
  2.505   2.521   2.531   2.536   2.556   2.584   2.597   2.611
  2.624   2.657   2.677   2.700   2.715   2.740   2.787   2.846
  2.874   2.892   2.905   2.941   2.957   3.130   3.175   3.214
  3.271   3.272   3.325   3.413   3.416   3.673   3.732   3.738
  3.958   3.980   3.991   4.257   4.283   4.311   4.317   4.333
  4.355   4.393   4.478   4.549   4.644   4.696   4.727
 --------------------------------------------------------------
 
          Ground-State Mulliken Net Atomic Charges

     Atom                 Charge (a.u.)
  ----------------------------------------
      1 H                     0.196664
      2 H                     0.119446
      3 C                     0.033996
      4 C                    -0.405758
      5 S                    -0.127234
      6 C                     0.559727
      7 H                     0.127605
      8 C                    -0.390417
      9 H                     0.124798
     10 C                    -0.109119
     11 C                    -0.049251
     12 S                    -0.120087
     13 C                     0.005081
     14 H                     0.135157
     15 C                    -0.148287
     16 C                    -0.401206
     17 H                     0.151331
     18 C                     0.374102
     19 S                    -0.030911
     20 C                    -0.390377
     21 C                     0.028715
     22 H                     0.119896
     23 H                     0.196131
  ----------------------------------------
  Sum of atomic charges =     0.000000

 -----------------------------------------------------------------
                    Cartesian Multipole Moments
 -----------------------------------------------------------------
    Charge (ESU x 10^10)
                 0.0000
    Dipole Moment (Debye)
         X      -0.1918      Y      -0.3148      Z       0.0774
       Tot       0.3767
    Quadrupole Moments (Debye-Ang)
        XX     -89.6221     XY       1.5978     YY    -102.4798
        XZ      -1.3762     YZ      -1.5826     ZZ    -114.5808
    Octopole Moments (Debye-Ang^2)
       XXX     -19.3543    XXY       2.3409    XYY      -6.2868
       YYY     -56.6729    XXZ      23.9638    XYZ       8.6527
       YYZ       6.5444    XZZ     -17.2625    YZZ     -21.5721
       ZZZ      41.2474
    Hexadecapole Moments (Debye-Ang^3)
      XXXX   -6224.4517   XXXY     168.6121   XXYY   -1258.6482
      XYYY     269.1629   YYYY    -872.0758   XXXZ     -85.1765
      XXYZ     -47.6810   XYYZ     -17.8540   YYYZ      50.1363
      XXZZ   -1334.9031   XYZZ      84.3582   YYZZ    -200.6575
      XZZZ     -79.5370   YZZZ      50.0174   ZZZZ    -276.2093
 -----------------------------------------------------------------
 Calculating analytic gradient of the SCF energy
 Gradient of SCF Energy
            1           2           3           4           5           6
    1   0.0000050   0.0000019   0.0000018   0.0000280   0.0000157  -0.0000167
    2   0.0000051  -0.0000019  -0.0000043   0.0000001   0.0000245  -0.0000219
    3   0.0000008  -0.0000005  -0.0000018  -0.0000069  -0.0000363   0.0000622
            7           8           9          10          11          12
    1  -0.0000028   0.0000421  -0.0000047  -0.0001516   0.0002097   0.0001091
    2  -0.0000043  -0.0000111   0.0000137   0.0000104  -0.0000343   0.0000362
    3  -0.0000118  -0.0000633  -0.0000434   0.0000886   0.0001389   0.0000283
           13          14          15          16          17          18
    1  -0.0001269  -0.0000387   0.0003007  -0.0007258   0.0000389   0.0005561
    2   0.0005996   0.0000178  -0.0003799  -0.0013738  -0.0000297   0.0011128
    3  -0.0017433   0.0000444   0.0031468  -0.0027942  -0.0000528   0.0014260
           19          20          21          22          23
    1  -0.0001136  -0.0002090   0.0000968   0.0000189  -0.0000349
    2   0.0000375   0.0000221  -0.0000537   0.0000307   0.0000045
    3  -0.0000743  -0.0001264  -0.0000696   0.0000445   0.0000441
 Max gradient component =       3.147E-03
 RMS gradient           =       6.324E-04
 Gradient time:  CPU 4.61 s  wall 4.62 s
 Geometry Optimization Parameters
   NAtoms,    NIC,     NZ,  NCons,   NDum,   NFix, NCnnct, MaxDiis
       23     166       0       1       0       0       0       0

 Cartesian Hessian Update
 Hessian Updated using BFGS Update


** CONSTRAINED OPTIMIZATION IN DELOCALIZED INTERNAL COORDINATES **
   Searching for a Minimum

   Optimization Cycle:   4

                       Coordinates (Angstroms)
     ATOM                X               Y               Z
      1  H         6.2356958706   -0.2550486049    0.1901563481
      2  H         5.3275532193    2.2028383404   -0.1298672950
      3  C         5.2038665043    0.0531218956    0.0920849689
      4  C         4.7039701504    1.3179627379   -0.0736379766
      5  S         3.9388706135   -1.1330151580    0.1421684338
      6  C         3.2832474420    1.3420972582   -0.1760554486
      7  H         2.7076617535    2.2478651785   -0.3314671597
      8  C         2.7029319791    0.0926243924   -0.0858319639
      9  H         1.3171127626   -2.3757864239   -0.6684480373
     10  C         1.2991880495   -0.2682677326   -0.1545268170
     11  C         0.7299699140   -1.4942744151   -0.4356653703
     12  S         0.0503177468    0.9272097976    0.1397127442
     13  C        -0.6904572966   -1.4745457489   -0.4428674277
     14  H        -1.3063528541   -2.3331945915   -0.6844789822
     15  C        -1.2277183782   -0.2394918351   -0.1518915619
     16  C        -2.6349915823    0.1326265107   -0.0922556983
     17  H        -3.4747135848   -1.3903811927    1.1924053418
     18  C        -3.6486310684   -0.5074846133    0.5879212520
     19  S        -3.2584205953    1.5496073140   -0.9207174168
     20  C        -4.9193822468    0.1221322952    0.4371985001
     21  C        -4.8642639171    1.2487725742   -0.3411798614
     22  H        -5.8304423311   -0.2379068774    0.9014880678
     23  H        -5.6695274708    1.9202830687   -0.6066046500
   Point Group: c1    Number of degrees of freedom:    63


   Energy is  -1656.662642618

              Constraints and their Current Values
                                        Value     Constraint
   Dihedral:       13  15  16  18       50.000       50.000
 Hessian Updated using BFGS Update

 61 Hessian modes will be used to form the next step
  Hessian Eigenvalues:
     0.018500    0.043444    0.045000    0.045000    0.045000    0.045000
     0.045000    0.045001    0.045001    0.045002    0.045002    0.045003
     0.045008    0.045009    0.045015    0.045017    0.045042    0.045655
     0.157346    0.159610    0.159923    0.159954    0.159961    0.159998
     0.160012    0.160968    0.203034    0.221285    0.222761    0.227851
     0.237847    0.242454    0.249361    0.249998    0.250001    0.279350
     0.290431    0.293620    0.294461    0.295786    0.312557    0.314254
     0.354738    0.354745    0.354756    0.354855    0.355164    0.355554
     0.358372    0.358814    0.384912    0.391790    0.405892    0.410118
     0.447799    0.459866    0.462491    0.466120    0.485494    0.497270
     0.503471

 Minimum Search - Taking Simple RFO Step
 Searching for Lamda that Minimizes Along All modes
 Value Taken    Lamda =  -0.00000418
 Step Taken.  Stepsize is  0.013398

                             Maximum     Tolerance    Cnvgd?
         Gradient           0.000211      0.000300     YES
         Displacement       0.008154      0.001200      NO
         Energy change     -0.000005      0.000001      NO


 New Cartesian Coordinates Obtained by Inverse Iteration

 Displacement from previous Coordinates is:  0.029214
 ----------------------------------------------------------------
             Standard Nuclear Orientation (Angstroms)
    I     Atom           X                Y                Z
 ----------------------------------------------------------------
    1      H       6.2354864902    -0.2538414350     0.1911079817
    2      H       5.3269188538     2.2033039106    -0.1336567214
    3      C       5.2036117481     0.0539903476     0.0925187838
    4      C       4.7034944217     1.3184286060    -0.0756582110
    5      S       3.9388137445    -1.1323054636     0.1450248590
    6      C       3.2827896838     1.3421470519    -0.1781263608
    7      H       2.7070609022     2.2475438872    -0.3351733450
    8      C       2.7027677724     0.0926914862    -0.0854608139
    9      H       1.3170750383    -2.3761774136    -0.6671725136
   10      C       1.2991686975    -0.2686591969    -0.1537721636
   11      C       0.7298251870    -1.4947576914    -0.4343883609
   12      S       0.0501298630     0.9265075012     0.1413167595
   13      C      -0.6904505968    -1.4753476025    -0.4405795433
   14      H      -1.3061672843    -2.3337482236    -0.6834682662
   15      C      -1.2276671046    -0.2399857844    -0.1489642216
   16      C      -2.6346172443     0.1320292661    -0.0923204130
   17      H      -3.4770498597    -1.3939890897     1.1878947403
   18      C      -3.6496554373    -0.5098317607     0.5848996702
   19      S      -3.2557346760     1.5522204310    -0.9158790438
   20      C      -4.9194150885     0.1216662755     0.4352827732
   21      C      -4.8625995144     1.2510606516    -0.3390274809
   22      H      -5.8314794682    -0.2393305769     0.8968311935
   23      H      -5.6668214482     1.9241289934    -0.6035893126
 ----------------------------------------------------------------
 Nuclear Repulsion Energy =  1175.8046167491 hartrees
 There are       64 alpha and       64 beta electrons
 Applying Cartesian multipole field
    Component          Value
    ---------          -----
     (2,0,0)        1.00000E-12
     (0,2,0)        2.00000E-11
     (0,0,2)       -3.00000E-11
 Nucleus-field energy     =     0.0000000138 hartrees
 Requested basis set is 6-31++G(d,p)
 There are 110 shells and 345 basis functions
 A cutoff of  1.0D-12 yielded   4674 shell pairs
 There are     47609 function pairs

 Q-Chem warning in module /project/projectdirs/jcesr/qchem/qc44/cnl_qc441/compile/cori/qc_src/libqints/qchem/aobasis.C, line 68:

 Using reconstructed effective core potential

 Smallest overlap matrix eigenvalue = 8.13E-08
 Linear dependence detected in AO basis
 Number of orthogonalized atomic orbitals = 343
 Maximum deviation from orthogonality = 2.930E-10
 Guess MOs from SCF MO coefficient file
 Reading MOs from coefficient file
 Reading MOs from coefficient file
 A restricted hybrid HF-DFT SCF calculation will be
 performed using Pulay DIIS extrapolation
 Exchange:     0.2000 Hartree-Fock + 0.0800 Slater + 0.7200 B88
 Correlation:  0.1900 VWN1RPA + 0.8100 LYP
 Using SG-1 standard quadrature grid
 SCF converges when DIIS error is below 1.0E-08
 Geometry optimization detected.  Setting ReadMinima to 0
 Setting SaveMinima to 0
 ---------------------------------------
  Cycle       Energy         DIIS Error
 ---------------------------------------
    1   -1656.6626513700      9.99E-05
    2   -1656.6626429395      1.05E-05
    3   -1656.6626388387      1.95E-05
    4   -1656.6626452328      2.38E-06
    5   -1656.6626452943      1.55E-06
    6   -1656.6626453288      5.48E-07
    7   -1656.6626453351      1.62E-07
    8   -1656.6626453354      5.91E-08
    9   -1656.6626453343      1.95E-08
   10   -1656.6626453345      6.41E-09 Convergence criterion met
 ---------------------------------------
 SCF time:  CPU 10.95 s  wall 10.17 s
 SCF   energy in the final basis set = -1656.6626453345
 Total energy in the final basis set = -1656.6626453345
 
 --------------------------------------------------------------
 
                    Orbital Energies (a.u.)
 --------------------------------------------------------------
 
 Alpha MOs
 -- Occupied --
-88.921 -88.921 -88.921 -10.241 -10.240 -10.239 -10.239 -10.226
-10.226 -10.206 -10.206 -10.206 -10.205 -10.205 -10.205  -7.980
 -7.980  -7.980  -5.945  -5.945  -5.944  -5.941  -5.941  -5.941
 -5.938  -5.937  -5.937  -0.906  -0.892  -0.876  -0.786  -0.755
 -0.745  -0.744  -0.734  -0.697  -0.616  -0.594  -0.568  -0.564
 -0.537  -0.534  -0.528  -0.499  -0.463  -0.421  -0.420  -0.418
 -0.415  -0.408  -0.402  -0.399  -0.385  -0.376  -0.370  -0.359
 -0.352  -0.344  -0.288  -0.266  -0.262  -0.260  -0.249  -0.206
 -- Virtual --
 -0.066  -0.032  -0.009  -0.006  -0.003   0.001   0.008   0.010
  0.015   0.018   0.023   0.028   0.032   0.033   0.037   0.044
  0.045   0.047   0.052   0.054   0.059   0.063   0.073   0.076
  0.080   0.089   0.092   0.094   0.098   0.105   0.107   0.109
  0.111   0.113   0.120   0.123   0.126   0.131   0.133   0.133
  0.137   0.138   0.141   0.145   0.148   0.150   0.151   0.152
  0.160   0.168   0.168   0.175   0.177   0.180   0.185   0.188
  0.195   0.201   0.204   0.207   0.209   0.211   0.219   0.220
  0.231   0.237   0.237   0.243   0.249   0.254   0.259   0.262
  0.262   0.270   0.272   0.275   0.289   0.298   0.300   0.310
  0.311   0.319   0.324   0.336   0.344   0.346   0.354   0.358
  0.366   0.371   0.382   0.397   0.405   0.451   0.454   0.460
  0.487   0.511   0.523   0.531   0.531   0.565   0.571   0.579
  0.582   0.595   0.610   0.618   0.632   0.648   0.655   0.658
  0.662   0.671   0.674   0.687   0.696   0.708   0.713   0.721
  0.725   0.729   0.732   0.747   0.759   0.766   0.775   0.780
  0.791   0.797   0.821   0.825   0.832   0.836   0.853   0.876
  0.900   0.928   0.941   0.945   0.957   0.958   0.959   0.961
  0.967   0.973   0.981   0.989   0.996   1.003   1.007   1.025
  1.032   1.044   1.048   1.066   1.078   1.087   1.099   1.103
  1.109   1.117   1.142   1.152   1.171   1.184   1.202   1.211
  1.242   1.261   1.269   1.293   1.313   1.335   1.346   1.350
  1.357   1.364   1.365   1.389   1.447   1.454   1.470   1.498
  1.512   1.538   1.546   1.569   1.610   1.685   1.689   1.725
  1.753   1.792   1.832   1.873   1.877   1.883   1.895   1.911
  1.917   1.918   1.945   1.956   1.965   2.012   2.020   2.050
  2.062   2.080   2.105   2.127   2.155   2.175   2.187   2.198
  2.207   2.228   2.242   2.257   2.266   2.287   2.326   2.364
  2.367   2.419   2.434   2.443   2.456   2.464   2.470   2.480
  2.505   2.521   2.531   2.536   2.556   2.584   2.597   2.611
  2.623   2.657   2.677   2.700   2.715   2.740   2.787   2.846
  2.874   2.892   2.905   2.942   2.957   3.130   3.175   3.214
  3.271   3.272   3.325   3.413   3.416   3.673   3.732   3.738
  3.958   3.980   3.992   4.257   4.283   4.311   4.317   4.333
  4.355   4.393   4.478   4.549   4.644   4.696   4.727
 --------------------------------------------------------------
 
          Ground-State Mulliken Net Atomic Charges

     Atom                 Charge (a.u.)
  ----------------------------------------
      1 H                     0.196609
      2 H                     0.119427
      3 C                     0.033940
      4 C                    -0.406210
      5 S                    -0.126536
      6 C                     0.558523
      7 H                     0.127640
      8 C                    -0.389931
      9 H                     0.124772
     10 C                    -0.108828
     11 C                    -0.049798
     12 S                    -0.120662
     13 C                     0.002759
     14 H                     0.135105
     15 C                    -0.144307
     16 C                    -0.395832
     17 H                     0.151156
     18 C                     0.368600
     19 S                    -0.031861
     20 C                    -0.388377
     21 C                     0.027740
     22 H                     0.119911
     23 H                     0.196159
  ----------------------------------------
  Sum of atomic charges =     0.000000

 -----------------------------------------------------------------
                    Cartesian Multipole Moments
 -----------------------------------------------------------------
    Charge (ESU x 10^10)
                 0.0000
    Dipole Moment (Debye)
         X      -0.1921      Y      -0.3129      Z       0.0731
       Tot       0.3744
    Quadrupole Moments (Debye-Ang)
        XX     -89.6317     XY       1.5976     YY    -102.4637
        XZ      -1.3748     YZ      -1.5884     ZZ    -114.5920
    Octopole Moments (Debye-Ang^2)
       XXX     -19.4222    XXY       2.2973    XYY      -6.4033
       YYY     -56.7039    XXZ      23.8203    XYZ       8.5847
       YYZ       6.4043    XZZ     -17.2078    YZZ     -21.5933
       ZZZ      40.8676
    Hexadecapole Moments (Debye-Ang^3)
      XXXX   -6223.0029   XXXY     168.8714   XXYY   -1258.1106
      XYYY     268.8216   YYYY    -872.8665   XXXZ     -84.8285
      XXYZ     -47.7370   XYYZ     -17.8363   YYYZ      50.0742
      XXZZ   -1334.7168   XYZZ      84.3596   YYZZ    -200.6794
      XZZZ     -79.0689   YZZZ      50.1385   ZZZZ    -275.2106
 -----------------------------------------------------------------
 Calculating analytic gradient of the SCF energy
 Gradient of SCF Energy
            1           2           3           4           5           6
    1  -0.0000007  -0.0000015   0.0000000   0.0000128  -0.0000103  -0.0000166
    2   0.0000008   0.0000004   0.0000105   0.0000031  -0.0000022  -0.0000001
    3  -0.0000005  -0.0000013  -0.0000028  -0.0000105  -0.0000279   0.0000440
            7           8           9          10          11          12
    1   0.0000016   0.0000674  -0.0000047  -0.0000829   0.0001098  -0.0000174
    2   0.0000040  -0.0000055   0.0000290  -0.0000276  -0.0000129  -0.0000793
    3  -0.0000019  -0.0000431  -0.0000209   0.0000452   0.0000852  -0.0000287
           13          14          15          16          17          18
    1  -0.0000494  -0.0000123   0.0001114  -0.0003973   0.0000166   0.0003734
    2   0.0003586   0.0000115   0.0000533  -0.0011945  -0.0000020   0.0009127
    3  -0.0017465  -0.0000055   0.0035113  -0.0032526  -0.0000000   0.0014881
           19          20          21          22          23
    1  -0.0000252  -0.0000858   0.0000096   0.0000166  -0.0000153
    2  -0.0000816   0.0000232  -0.0000461   0.0000312   0.0000135
    3   0.0000081  -0.0000540  -0.0000235   0.0000114   0.0000266
 Max gradient component =       3.511E-03
 RMS gradient           =       6.697E-04
 Gradient time:  CPU 4.62 s  wall 4.62 s
 Geometry Optimization Parameters
   NAtoms,    NIC,     NZ,  NCons,   NDum,   NFix, NCnnct, MaxDiis
       23     166       0       1       0       0       0       0

 Cartesian Hessian Update
 Hessian Updated using BFGS Update


** CONSTRAINED OPTIMIZATION IN DELOCALIZED INTERNAL COORDINATES **
   Searching for a Minimum

   Optimization Cycle:   5

                       Coordinates (Angstroms)
     ATOM                X               Y               Z
      1  H         6.2354864902   -0.2538414350    0.1911079817
      2  H         5.3269188538    2.2033039106   -0.1336567214
      3  C         5.2036117481    0.0539903476    0.0925187838
      4  C         4.7034944217    1.3184286060   -0.0756582110
      5  S         3.9388137445   -1.1323054636    0.1450248590
      6  C         3.2827896838    1.3421470519   -0.1781263608
      7  H         2.7070609022    2.2475438872   -0.3351733450
      8  C         2.7027677724    0.0926914862   -0.0854608139
      9  H         1.3170750383   -2.3761774136   -0.6671725136
     10  C         1.2991686975   -0.2686591969   -0.1537721636
     11  C         0.7298251870   -1.4947576914   -0.4343883609
     12  S         0.0501298630    0.9265075012    0.1413167595
     13  C        -0.6904505968   -1.4753476025   -0.4405795433
     14  H        -1.3061672843   -2.3337482236   -0.6834682662
     15  C        -1.2276671046   -0.2399857844   -0.1489642216
     16  C        -2.6346172443    0.1320292661   -0.0923204130
     17  H        -3.4770498597   -1.3939890897    1.1878947403
     18  C        -3.6496554373   -0.5098317607    0.5848996702
     19  S        -3.2557346760    1.5522204310   -0.9158790438
     20  C        -4.9194150885    0.1216662755    0.4352827732
     21  C        -4.8625995144    1.2510606516   -0.3390274809
     22  H        -5.8314794682   -0.2393305769    0.8968311935
     23  H        -5.6668214482    1.9241289934   -0.6035893126
   Point Group: c1    Number of degrees of freedom:    63


   Energy is  -1656.662645335

              Constraints and their Current Values
                                        Value     Constraint
   Dihedral:       13  15  16  18       50.000       50.000
 Hessian Updated using BFGS Update

 58 Hessian modes will be used to form the next step
  Hessian Eigenvalues:
     0.012157    0.041654    0.045000    0.045001    0.045001    0.045001
     0.045002    0.045003    0.045005    0.045009    0.045015    0.045015
     0.045017    0.045138    0.046571    0.153608    0.159881    0.159933
     0.159957    0.159973    0.159998    0.160063    0.160833    0.200894
     0.221274    0.223884    0.228673    0.238287    0.242691    0.249927
     0.250000    0.250078    0.280864    0.293613    0.294098    0.295673
     0.298843    0.312619    0.314229    0.354736    0.354744    0.354754
     0.354885    0.355164    0.355678    0.358376    0.358865    0.385049
     0.403640    0.405860    0.410138    0.442864    0.459753    0.462980
     0.483603    0.495125    0.497260    0.500608

 Minimum Search - Taking Simple RFO Step
 Searching for Lamda that Minimizes Along All modes
 Value Taken    Lamda =  -0.00000151
 Step Taken.  Stepsize is  0.009288

                             Maximum     Tolerance    Cnvgd?
         Gradient           0.000136      0.000300     YES
         Displacement       0.006231      0.001200      NO
         Energy change     -0.000003      0.000001      NO


 New Cartesian Coordinates Obtained by Inverse Iteration

 Displacement from previous Coordinates is:  0.025477
 ----------------------------------------------------------------
             Standard Nuclear Orientation (Angstroms)
    I     Atom           X                Y                Z
 ----------------------------------------------------------------
    1      H       6.2353854751    -0.2521687774     0.1925958230
    2      H       5.3260682017     2.2041270171    -0.1364135311
    3      C       5.2034283565     0.0551636077     0.0933051591
    4      C       4.7029089052     1.3191513533    -0.0770630627
    5      S       3.9389752548    -1.1314276130     0.1474741794
    6      C       3.2822245215     1.3422558119    -0.1799776314
    7      H       2.7062387470     2.2471985684    -0.3386589030
[...]
    6   -1656.6626468859      3.85E-07
    7   -1656.6626468872      1.14E-07
    8   -1656.6626468863      5.53E-08
    9   -1656.6626468858      1.48E-08
   10   -1656.6626468865      4.69E-09 Convergence criterion met
 ---------------------------------------
 SCF time:  CPU 11.07 s  wall 10.11 s
 SCF   energy in the final basis set = -1656.6626468865
 Total energy in the final basis set = -1656.6626468865
 
 --------------------------------------------------------------
 
                    Orbital Energies (a.u.)
 --------------------------------------------------------------
 
 Alpha MOs
 -- Occupied --
-88.921 -88.921 -88.921 -10.241 -10.240 -10.239 -10.239 -10.226
-10.226 -10.206 -10.206 -10.206 -10.205 -10.205 -10.205  -7.980
 -7.980  -7.980  -5.945  -5.945  -5.944  -5.941  -5.941  -5.941
 -5.938  -5.937  -5.937  -0.906  -0.892  -0.876  -0.786  -0.755
 -0.745  -0.744  -0.734  -0.697  -0.616  -0.594  -0.568  -0.564
 -0.537  -0.534  -0.528  -0.499  -0.463  -0.421  -0.420  -0.418
 -0.415  -0.408  -0.402  -0.399  -0.385  -0.376  -0.370  -0.359
 -0.352  -0.344  -0.288  -0.266  -0.262  -0.260  -0.249  -0.206
 -- Virtual --
 -0.067  -0.032  -0.009  -0.006  -0.003   0.001   0.008   0.010
  0.015   0.018   0.023   0.028   0.032   0.033   0.037   0.044
  0.045   0.047   0.052   0.054   0.060   0.063   0.073   0.076
  0.080   0.089   0.092   0.094   0.098   0.105   0.107   0.109
  0.111   0.113   0.120   0.123   0.126   0.131   0.133   0.133
  0.137   0.138   0.141   0.145   0.148   0.150   0.151   0.152
  0.160   0.168   0.168   0.175   0.178   0.180   0.185   0.188
  0.195   0.201   0.204   0.207   0.209   0.211   0.219   0.220
  0.231   0.237   0.237   0.243   0.249   0.254   0.259   0.262
  0.262   0.270   0.272   0.275   0.289   0.298   0.300   0.310
  0.311   0.319   0.324   0.336   0.344   0.346   0.354   0.358
  0.366   0.372   0.383   0.397   0.405   0.451   0.454   0.460
  0.487   0.511   0.523   0.531   0.531   0.565   0.571   0.579
  0.582   0.594   0.610   0.618   0.631   0.647   0.655   0.657
  0.662   0.671   0.675   0.687   0.696   0.708   0.713   0.721
  0.725   0.729   0.732   0.747   0.759   0.766   0.775   0.780
  0.791   0.797   0.821   0.825   0.832   0.836   0.853   0.876
  0.900   0.928   0.941   0.945   0.957   0.958   0.959   0.961
  0.967   0.973   0.981   0.989   0.996   1.003   1.007   1.026
  1.032   1.044   1.048   1.066   1.078   1.087   1.099   1.103
  1.109   1.117   1.142   1.152   1.171   1.184   1.202   1.210
  1.242   1.261   1.269   1.293   1.313   1.335   1.346   1.350
  1.357   1.364   1.365   1.389   1.448   1.454   1.469   1.498
  1.512   1.537   1.547   1.570   1.610   1.685   1.689   1.726
  1.752   1.792   1.833   1.872   1.877   1.883   1.895   1.911
  1.917   1.918   1.945   1.956   1.966   2.012   2.020   2.050
  2.062   2.080   2.105   2.126   2.154   2.175   2.187   2.198
  2.207   2.228   2.243   2.257   2.266   2.287   2.326   2.364
  2.367   2.419   2.434   2.443   2.456   2.464   2.470   2.480
  2.505   2.521   2.531   2.536   2.557   2.584   2.597   2.611
  2.623   2.657   2.677   2.700   2.715   2.740   2.787   2.846
  2.874   2.892   2.905   2.942   2.957   3.130   3.175   3.214
  3.271   3.272   3.325   3.413   3.416   3.673   3.732   3.738
  3.958   3.980   3.992   4.257   4.282   4.311   4.317   4.333
  4.355   4.393   4.478   4.549   4.644   4.696   4.727
 --------------------------------------------------------------
 
          Ground-State Mulliken Net Atomic Charges

     Atom                 Charge (a.u.)
  ----------------------------------------
      1 H                     0.196534
      2 H                     0.119383
      3 C                     0.033996
      4 C                    -0.407216
      5 S                    -0.125244
      6 C                     0.556301
      7 H                     0.127765
      8 C                    -0.389257
      9 H                     0.124785
     10 C                    -0.108335
     11 C                    -0.049923
     12 S                    -0.122287
     13 C                     0.001537
     14 H                     0.134968
     15 C                    -0.139416
     16 C                    -0.391690
     17 H                     0.150842
     18 C                     0.364607
     19 S                    -0.034215
     20 C                    -0.386349
     21 C                     0.027078
     22 H                     0.119915
     23 H                     0.196224
  ----------------------------------------
  Sum of atomic charges =     0.000000

 -----------------------------------------------------------------
                    Cartesian Multipole Moments
 -----------------------------------------------------------------
    Charge (ESU x 10^10)
                 0.0000
    Dipole Moment (Debye)
         X      -0.1926      Y      -0.3122      Z       0.0679
       Tot       0.3730
    Quadrupole Moments (Debye-Ang)
        XX     -89.6352     XY       1.6014     YY    -102.4369
        XZ      -1.3728     YZ      -1.5987     ZZ    -114.6076
    Octopole Moments (Debye-Ang^2)
       XXX     -19.5246    XXY       2.2823    XYY      -6.5929
       YYY     -56.6937    XXZ      23.6837    XYZ       8.4818
       YYZ       6.1860    XZZ     -17.1286    YZZ     -21.6026
       ZZZ      40.3132
    Hexadecapole Moments (Debye-Ang^3)
      XXXX   -6220.6110   XXXY     169.1734   XXYY   -1257.2852
      XYYY     268.1903   YYYY    -873.8935   XXXZ     -84.0935
      XXYZ     -47.8868   XYYZ     -17.7981   YYYZ      49.8686
      XXZZ   -1334.3416   XYZZ      84.3130   YYZZ    -200.7392
      XZZZ     -78.3537   YZZZ      50.1879   ZZZZ    -274.0817
 -----------------------------------------------------------------
 Calculating analytic gradient of the SCF energy
 Gradient of SCF Energy
            1           2           3           4           5           6
    1  -0.0000017  -0.0000005   0.0000062  -0.0000060  -0.0000032   0.0000006
    2  -0.0000009   0.0000021   0.0000111  -0.0000018  -0.0000085   0.0000102
    3  -0.0000032  -0.0000042   0.0000005  -0.0000025  -0.0000240   0.0000188
            7           8           9          10          11          12
    1   0.0000025  -0.0000178   0.0000033   0.0000545  -0.0000623  -0.0000438
    2   0.0000025  -0.0000032  -0.0000034   0.0000042  -0.0000013  -0.0000321
    3   0.0000026  -0.0000062   0.0000114  -0.0000120   0.0000088  -0.0000367
           13          14          15          16          17          18
    1   0.0000898   0.0000085   0.0000931  -0.0004298  -0.0000030   0.0002630
    2   0.0003776   0.0000022  -0.0000080  -0.0012880   0.0000158   0.0009732
    3  -0.0017458  -0.0000191   0.0036971  -0.0034205   0.0000226   0.0014612
           19          20          21          22          23
    1   0.0000253   0.0000597  -0.0000422  -0.0000063   0.0000103
    2  -0.0000484  -0.0000138   0.0000109  -0.0000040   0.0000037
    3   0.0000275   0.0000306   0.0000048  -0.0000087  -0.0000028
 Max gradient component =       3.697E-03
 RMS gradient           =       6.978E-04
 Gradient time:  CPU 4.61 s  wall 4.62 s
 Geometry Optimization Parameters
   NAtoms,    NIC,     NZ,  NCons,   NDum,   NFix, NCnnct, MaxDiis
       23     166       0       1       0       0       0       0

 Cartesian Hessian Update
 Hessian Updated using BFGS Update


** CONSTRAINED OPTIMIZATION IN DELOCALIZED INTERNAL COORDINATES **
   Searching for a Minimum

   Optimization Cycle:   7

                       Coordinates (Angstroms)
     ATOM                X               Y               Z
      1  H         6.2351403668   -0.2508997621    0.1947668439
      2  H         5.3255089804    2.2046512839   -0.1387928913
      3  C         5.2031599930    0.0560427946    0.0945424534
      4  C         4.7024866061    1.3196618277   -0.0781701066
      5  S         3.9389475127   -1.1307134619    0.1501937400
      6  C         3.2818681945    1.3423184497   -0.1817925455
      7  H         2.7057544573    2.2468543331   -0.3423298849
      8  C         2.7024135952    0.0928673529   -0.0853165819
      9  H         1.3182844764   -2.3770533914   -0.6672177317
     10  C         1.2992188410   -0.2695105370   -0.1537282657
     11  C         0.7304961326   -1.4959735181   -0.4343255364
     12  S         0.0493111295    0.9243694189    0.1433693145
     13  C        -0.6896128304   -1.4778430920   -0.4391236388
     14  H        -1.3045061735   -2.3366425750   -0.6827085137
     15  C        -1.2277823556   -0.2431890283   -0.1460606495
     16  C        -2.6346243329    0.1293926513   -0.0915057528
     17  H        -3.4825657638   -1.3993955949    1.1820107829
     18  C        -3.6521128734   -0.5126899049    0.5818996741
     19  S        -3.2510963020    1.5551567607   -0.9089171526
     20  C        -4.9199365662    0.1226037941    0.4336562019
     21  C        -4.8594880737    1.2554546176   -0.3354164809
     22  H        -5.8336325484   -0.2388870365    0.8916658845
     23  H        -5.6617477853    1.9311687875   -0.5990591728
   Point Group: c1    Number of degrees of freedom:    63


   Energy is  -1656.662646887

              Constraints and their Current Values
                                        Value     Constraint
   Dihedral:       13  15  16  18       50.000       50.000
 Hessian Updated using BFGS Update

 62 Hessian modes will be used to form the next step
  Hessian Eigenvalues:
     0.007604    0.033371    0.044599    0.045000    0.045000    0.045000
     0.045000    0.045000    0.045001    0.045001    0.045002    0.045003
     0.045005    0.045009    0.045011    0.045016    0.045019    0.045144
     0.046607    0.155466    0.159595    0.159918    0.159947    0.159968
     0.159996    0.160034    0.160958    0.185290    0.221482    0.223173
     0.228427    0.238267    0.242918    0.249947    0.249990    0.250009
     0.275807    0.290365    0.293674    0.294405    0.295927    0.312577
     0.314168    0.354739    0.354749    0.354810    0.354907    0.355168
     0.355643    0.358389    0.358802    0.385232    0.398641    0.406394
     0.410203    0.448810    0.460049    0.462877    0.469554    0.486898
     0.497359    0.504644

 Minimum Search - Taking Simple RFO Step
 Searching for Lamda that Minimizes Along All modes
 Value Taken    Lamda =   0.00000000
 Step Taken.  Stepsize is  0.004342

                             Maximum     Tolerance    Cnvgd?
         Gradient           0.000054      0.000300     YES
         Displacement       0.003221      0.001200      NO
         Energy change     -0.000001      0.000001     YES

 Final energy is   -1656.66264688654     


 ******************************
 **  OPTIMIZATION CONVERGED  **
 ******************************

                       Coordinates (Angstroms)
     ATOM                X               Y               Z
      1  H         6.2351403668   -0.2508997621    0.1947668439
      2  H         5.3255089804    2.2046512839   -0.1387928913
      3  C         5.2031599930    0.0560427946    0.0945424534
      4  C         4.7024866061    1.3196618277   -0.0781701066
      5  S         3.9389475127   -1.1307134619    0.1501937400
      6  C         3.2818681945    1.3423184497   -0.1817925455
      7  H         2.7057544573    2.2468543331   -0.3423298849
      8  C         2.7024135952    0.0928673529   -0.0853165819
      9  H         1.3182844764   -2.3770533914   -0.6672177317
     10  C         1.2992188410   -0.2695105370   -0.1537282657
     11  C         0.7304961326   -1.4959735181   -0.4343255364
     12  S         0.0493111295    0.9243694189    0.1433693145
     13  C        -0.6896128304   -1.4778430920   -0.4391236388
     14  H        -1.3045061735   -2.3366425750   -0.6827085137
     15  C        -1.2277823556   -0.2431890283   -0.1460606495
     16  C        -2.6346243329    0.1293926513   -0.0915057528
     17  H        -3.4825657638   -1.3993955949    1.1820107829
     18  C        -3.6521128734   -0.5126899049    0.5818996741
     19  S        -3.2510963020    1.5551567607   -0.9089171526
     20  C        -4.9199365662    0.1226037941    0.4336562019
     21  C        -4.8594880737    1.2554546176   -0.3354164809
     22  H        -5.8336325484   -0.2388870365    0.8916658845
     23  H        -5.6617477853    1.9311687875   -0.5990591728

Z-matrix Print:
$molecule
0 1
S 
C  1 1.753820
C  2 1.380721 1 110.215404
H  3 1.084452 2 122.825427 1 178.893421 0
C  3 1.420233 2 113.654071 1 1.197068 0
H  5 1.083958 3 123.908111 2 177.156892 0
C  5 1.378362 3 113.648447 2 -0.776721 0
C  2 1.450846 1 120.747548 3 -179.914547 0
C  8 1.380653 2 128.950698 1 -20.387412 0
H  9 1.084373 8 122.837115 2 -0.809567 0
C  9 1.424573 8 113.519138 2 -179.573497 0
H  11 1.083992 9 123.786541 8 179.532003 0
C  11 1.370123 9 112.845345 8 0.099556 0
H  13 1.081315 11 128.479088 9 179.559833 0
C  7 1.456365 5 127.900072 3 178.746147 0
C  15 1.378778 7 127.736320 5 50.000000 0
H  16 1.084033 15 122.403451 7 1.073977 0
C  16 1.425816 15 113.447986 7 179.614302 0
H  18 1.084107 16 123.843215 15 -179.935428 0
C  18 1.370576 16 112.793206 15 -0.879262 0
H  20 1.081535 18 128.350951 16 -179.291959 0
S  20 1.733681 18 111.680177 16 0.692473 0
S  13 1.734855 11 111.632232 9 -0.597446 0
$end

 
 --------------------------------------------------------------
 
                    Orbital Energies (a.u.)
 --------------------------------------------------------------
 
 Alpha MOs
 -- Occupied --
-88.921 -88.921 -88.921 -10.241 -10.240 -10.239 -10.239 -10.226
-10.226 -10.206 -10.206 -10.206 -10.205 -10.205 -10.205  -7.980
 -7.980  -7.980  -5.945  -5.945  -5.944  -5.941  -5.941  -5.941
 -5.938  -5.937  -5.937  -0.906  -0.892  -0.876  -0.786  -0.755
 -0.745  -0.744  -0.734  -0.697  -0.616  -0.594  -0.568  -0.564
 -0.537  -0.534  -0.528  -0.499  -0.463  -0.421  -0.420  -0.418
 -0.415  -0.408  -0.402  -0.399  -0.385  -0.376  -0.370  -0.359
 -0.352  -0.344  -0.288  -0.266  -0.262  -0.260  -0.249  -0.206
 -- Virtual --
 -0.067  -0.032  -0.009  -0.006  -0.003   0.001   0.008   0.010
  0.015   0.018   0.023   0.028   0.032   0.033   0.037   0.044
  0.045   0.047   0.052   0.054   0.060   0.063   0.073   0.076
  0.080   0.089   0.092   0.094   0.098   0.105   0.107   0.109
  0.111   0.113   0.120   0.123   0.126   0.131   0.133   0.133
  0.137   0.138   0.141   0.145   0.148   0.150   0.151   0.152
  0.160   0.168   0.168   0.175   0.178   0.180   0.185   0.188
  0.195   0.201   0.204   0.207   0.209   0.211   0.219   0.220
  0.231   0.237   0.237   0.243   0.249   0.254   0.259   0.262
  0.262   0.270   0.272   0.275   0.289   0.298   0.300   0.310
  0.311   0.319   0.324   0.336   0.344   0.346   0.354   0.358
  0.366   0.372   0.383   0.397   0.405   0.451   0.454   0.460
  0.487   0.511   0.523   0.531   0.531   0.565   0.571   0.579
  0.582   0.594   0.610   0.618   0.631   0.647   0.655   0.657
  0.662   0.671   0.675   0.687   0.696   0.708   0.713   0.721
  0.725   0.729   0.732   0.747   0.759   0.766   0.775   0.780
  0.791   0.797   0.821   0.825   0.832   0.836   0.853   0.876
  0.900   0.928   0.941   0.945   0.957   0.958   0.959   0.961
  0.967   0.973   0.981   0.989   0.996   1.003   1.007   1.026
  1.032   1.044   1.048   1.066   1.078   1.087   1.099   1.103
  1.109   1.117   1.142   1.152   1.171   1.184   1.202   1.210
  1.242   1.261   1.269   1.293   1.313   1.335   1.346   1.350
  1.357   1.364   1.365   1.389   1.448   1.454   1.469   1.498
  1.512   1.537   1.547   1.570   1.610   1.685   1.689   1.726
  1.752   1.792   1.833   1.872   1.877   1.883   1.895   1.911
  1.917   1.918   1.945   1.956   1.966   2.012   2.020   2.050
  2.062   2.080   2.105   2.126   2.154   2.175   2.187   2.198
  2.207   2.228   2.243   2.257   2.266   2.287   2.326   2.364
  2.367   2.419   2.434   2.443   2.456   2.464   2.470   2.480
  2.505   2.521   2.531   2.536   2.557   2.584   2.597   2.611
  2.623   2.657   2.677   2.700   2.715   2.740   2.787   2.846
  2.874   2.892   2.905   2.942   2.957   3.130   3.175   3.214
  3.271   3.272   3.325   3.413   3.416   3.673   3.732   3.738
  3.958   3.980   3.992   4.257   4.282   4.311   4.317   4.333
  4.355   4.393   4.478   4.549   4.644   4.696   4.727
 --------------------------------------------------------------
 
          Ground-State Mulliken Net Atomic Charges

     Atom                 Charge (a.u.)
  ----------------------------------------
      1 H                     0.196534
      2 H                     0.119383
      3 C                     0.033996
      4 C                    -0.407216
      5 S                    -0.125244
      6 C                     0.556301
      7 H                     0.127765
      8 C                    -0.389257
      9 H                     0.124785
     10 C                    -0.108335
     11 C                    -0.049923
     12 S                    -0.122287
     13 C                     0.001537
     14 H                     0.134968
     15 C                    -0.139416
     16 C                    -0.391690
     17 H                     0.150842
     18 C                     0.364607
     19 S                    -0.034215
     20 C                    -0.386349
     21 C                     0.027078
     22 H                     0.119915
     23 H                     0.196224
  ----------------------------------------
  Sum of atomic charges =     0.000000

 -----------------------------------------------------------------
                    Cartesian Multipole Moments
 -----------------------------------------------------------------
    Charge (ESU x 10^10)
                 0.0000
    Dipole Moment (Debye)
         X      -0.1926      Y      -0.3122      Z       0.0679
       Tot       0.3730
    Quadrupole Moments (Debye-Ang)
        XX     -89.6352     XY       1.6014     YY    -102.4369
        XZ      -1.3728     YZ      -1.5987     ZZ    -114.6076
    Octopole Moments (Debye-Ang^2)
       XXX     -19.5246    XXY       2.2823    XYY      -6.5929
       YYY     -56.6937    XXZ      23.6837    XYZ       8.4818
       YYZ       6.1860    XZZ     -17.1286    YZZ     -21.6026
       ZZZ      40.3132
    Hexadecapole Moments (Debye-Ang^3)
      XXXX   -6220.6110   XXXY     169.1734   XXYY   -1257.2852
      XYYY     268.1903   YYYY    -873.8935   XXXZ     -84.0935
      XXYZ     -47.8868   XYYZ     -17.7981   YYYZ      49.8686
      XXZZ   -1334.3416   XYZZ      84.3130   YYZZ    -200.7392
      XZZZ     -78.3537   YZZZ      50.1879   ZZZZ    -274.0817
 -----------------------------------------------------------------
Archival summary:
1\1\nid00553\OPT\ProcedureUnspecified\BasisUnspecified\3128\bwood\TueMay3010:54:382017TueMay3010:54:382017\0\\#,OPT,ProcedureUnspecified,BasisUnspecified,\\0,1\S\C,1,1.75382\C,2,1.38072,1,110.215\H,3,1.08445,2,122.825,1,178.893,0\C,3,1.42023,2,113.654,1,1.19707,0\H,5,1.08396,3,123.908,2,177.157,0\C,5,1.37836,3,113.648,2,-0.776721,0\C,2,1.45085,1,120.748,3,-179.915,0\C,8,1.38065,2,128.951,1,-20.3874,0\H,9,1.08437,8,122.837,2,-0.809567,0\C,9,1.42457,8,113.519,2,-179.573,0\H,11,1.08399,9,123.787,8,179.532,0\C,11,1.37012,9,112.845,8,0.0995557,0\H,13,1.08132,11,128.479,9,179.56,0\C,7,1.45636,5,127.9,3,178.746,0\C,15,1.37878,7,127.736,5,50,0\H,16,1.08403,15,122.403,7,1.07398,0\C,16,1.42582,15,113.448,7,179.614,0\H,18,1.08411,16,123.843,15,-179.935,0\C,18,1.37058,16,112.793,15,-0.879262,0\H,20,1.08153,18,128.351,16,-179.292,0\S,20,1.73368,18,111.68,16,0.692473,0\S,13,1.73485,11,111.632,9,-0.597446,0\\\@

 Total job time:  115.62s(wall), 122.77s(cpu) 
 Tue May 30 10:54:38 2017

        *************************************************************
        *                                                           *
        *  Thank you very much for using Q-Chem.  Have a nice day.  *
        *                                                           *
        *************************************************************


0 sent ACK to 0 
now end server 0 ... 
