srun -N 1 --ntasks-per-node 22 --cpus-per-task 2 --cpu_bind=cores --nodelist nid00554 /global/project/projectdirs/jcesr/qchem/qc44/cnl_qc441/dist/exe/qcprog.cori.haswell.exe .pt_nn_neutral_180.0.in.36648.qcin.1 /dev/shm/eg_qchem/qchem36648/
Process 1 of 22 is on nid00554 - thread support 0
Process 2 of 22 is on nid00554 - thread support 0
Process 3 of 22 is on nid00554 - thread support 0
Process 4 of 22 is on nid00554 - thread support 0
Process 5 of 22 is on nid00554 - thread support 0
Process 6 of 22 is on nid00554 - thread support 0
Process 0 of 22 is on nid00554 - thread support 0
Process 21 of 22 is on nid00554 - thread support 0
initial socket setup ...start
initial socket setup ...done 
now start server 0 ... 
nid00554 10.128.2
Q-Chem Developer Version! Running on 10.128.2.*
                  Welcome to Q-Chem
     A Quantum Leap Into The Future Of Chemistry


 Q-Chem 4.4, Q-Chem, Inc., Pleasanton, CA (2016)

 Y. Shao,  Z. Gan,  E. Epifanovsky,  A. T. B. Gilbert,  M. Wormit,  
 J. Kussmann,  A. W. Lange,  A. Behn,  J. Deng,  X. Feng,  D. Ghosh,  
 M. Goldey,  P. R. Horn,  L. D. Jacobson,  I. Kaliman,  F. Rob,  
 R. Z. Khaliullin,  T. Kus,  A. Landau,  J. Liu,  E. I. Proynov,  Y. M. Rhee,  
 R. M. Richard,  M. A. Rohrdanz,  R. P. Steele,  E. J. Sundstrom,  
 H. L. Woodcock III,  P. M. Zimmerman,  D. Zuev,  B. Albrecht,  E. Alguire,  
 B. Austin,  S. A. Baeppler,  G. J. O. Beran,  Y. A. Bernard,  
 E. J. Berquist,  K. Brandhorst,  K. B. Bravaya,  S. T. Brown,  D. Casanova,  
 C.-M. Chang,  Y. Chen,  S. H. Chien,  K. D. Closser,  M. P. Coons,  
 D. L. Crittenden,  S. Dasgupta,  M. Diedenhofen,  R. A. DiStasio Jr.,  
 H. Do,  A. D. Dutoi,  R. G. Edgar,  P.-T. Fang,  S. Fatehi,  Q. Feng,  
 L. Fusti-Molnar,  A. Ghysels,  A. Golubeva-Zadorozhnaya,  J. Gomes,  
 A. Gunina,  M. W. D. Hanson-Heine,  P. H. P. Harbach,  A. W. Hauser,  
 J. E. Herr,  E. G. Hohenstein,  Z. C. Holden,  K. Hui,  T.-C. Jagau,  H. Ji,  
 B. Kaduk,  K. Khistyaev,  Jaehoon Kim,  Jihan Kim,  R. A. King,  
 P. Klunzinger,  K. Koh,  D. Kosenkov,  T. Kowalczyk,  C. M. Krauter,  
 A. Kunitsa,  K. U. Lao,  A. Laurent,  K. V. Lawler,  J. Lee,  D. Lefrancois,  
 S. Lehtola,  S. V. Levchenko,  C. Y. Lin,  Y.-S. Lin,  F. Liu,  E. Livshits,  
 R. C. Lochan,  A. Luenser,  P. Manohar,  S. F. Manzer,  S.-P. Mao,  Y. Mao,  
 N. Mardirossian,  A. V. Marenich,  L. A. Martinez-Martinez,  S. A. Maurer,  
 N. J. Mayhall,  J.-M. Mewes,  A. F. Morrison,  K. Nanda,  T. S. Nguyen-Beck,  
 C. M. Oana,  R. Olivares-Amaya,  D. P. O'Neill,  J. A. Parkhill,  
 T. M. Perrine,  R. Peverati,  P. A. Pieniazek,  F. Plasser,  A. Prociuk,  
 D. R. Rehn,  E. Rosta,  N. J. Russ,  N. Sergueev,  S. M. Sharada,  
 S. Sharma,  D. W. Small,  A. Sodt,  T. Stauch,  T. Stein,  D. Stuck,  
 Y.-C. Su,  A. J. W. Thom,  T. Tsuchimochi,  L. Vogt,  O. Vydrov,  T. Wang,  
 M. A. Watson,  J. Wenzel,  A. White,  C. F. Williams,  V. Vanovschi,  
 K. Yao,  S. Yeganeh,  S. R. Yost,  Z.-Q. You,  I. Y. Zhang,  X. Zhang,  
 Y. Zhao,  B. R. Brooks,  G. K. L. Chan,  D. M. Chipman,  C. J. Cramer,  
 W. A. Goddard III,  M. S. Gordon,  W. J. Hehre,  A. Klamt,  
 H. F. Schaefer III,  M. W. Schmidt,  C. D. Sherrill,  D. G. Truhlar,  
 A. Warshel,  X. Xu,  A. Aspuru-Guzik,  R. Baer,  A. T. Bell,  N. A. Besley,  
 J.-D. Chai,  A. Dreuw,  B. D. Dunietz,  T. R. Furlani,  S. R. Gwaltney,  
 C.-P. Hsu,  Y. Jung,  J. Kong,  D. S. Lambrecht,  W. Liang,  C. Ochsenfeld,  
 V. A. Rassolov,  L. V. Slipchenko,  J. E. Subotnik,  T. Van Voorhis,  
 J. M. Herbert,  A. I. Krylov,  P. M. W. Gill,  M. Head-Gordon

 Contributors to earlier versions of Q-Chem not listed above: 
 R. D. Adamson,  J. Baker,  E. F. C. Byrd,  A. K. Chakraborty,  C.-L. Cheng,  
 H. Dachsel,  R. J. Doerksen,  G. Hawkins,  A. Heyden,  S. Hirata,  
 G. Kedziora,  F. J. Keil,  C. Kelley,  P. P. Korambath,  W. Kurlancheek,  
 A. M. Lee,  M. S. Lee,  D. Liotard,  I. Lotan,  P. E. Maslen,  N. Nair,  
 D. Neuhauser,  R. Olson,  B. Peters,  J. Ritchie,  N. E. Schultz,  
 N. Shenvi,  A. C. Simmonett,  K. S. Thanthiriwatte,  Q. Wu,  W. Zhang

 Please cite Q-Chem as follows:
 Y. Shao et al., Mol. Phys. 113, 184-215 (2015)
 DOI: 10.1080/00268976.2014.952696

 Q-Chem 4.4.2 for Intel X86 EM64T Linux

 Parts of Q-Chem use Armadillo 5.200.1 (Boston Tea Smuggler).
 http://arma.sourceforge.net/

 Q-Chem begins on Tue May 30 10:52:43 2017  

Host: nid00478
0

     Scratch files written to /dev/shm/eg_qchem/qchem36648.0//
 Parallel job on  22  processors

Checking the input file for inconsistencies... 	...done.

--------------------------------------------------------------
User input:
--------------------------------------------------------------
$molecule
 0  1
 H           6.23254100       -0.22338900        0.17638100
 H           5.29752400        2.22850500       -0.10953100
 C           5.19733500        0.07486000        0.08356300
 C           4.68347900        1.33634400       -0.06443600
 S           3.94559900       -1.12581000        0.11905200
 C           3.26267300        1.34659400       -0.16511200
 H           2.67740100        2.24810800       -0.30841700
 C           2.69562400        0.08941900       -0.09094600
 H           1.33241900       -2.39005500       -0.68762600
 C           1.29739300       -0.28590200       -0.16150800
 C           0.73808300       -1.51455700       -0.45078400
 S           0.03601800        0.89451200        0.14982500
 C          -0.68041100       -1.51067300       -0.44936800
 H          -1.28012400       -2.38277100       -0.68510300
 C          -1.23220500       -0.27900200       -0.15852500
 C          -2.62830100        0.10383400       -0.08465000
 H          -2.57419058        2.21523737        0.41187357
 C          -3.17682436        1.33742789        0.20670283
 S          -3.90118697       -1.06825650       -0.38312262
 C          -4.60100365        1.34667276        0.18137228
 C          -5.13555405        0.12417156       -0.13014026
 H          -5.20179541        2.22737506        0.37747033
 H          -6.17718283       -0.15033892       -0.22432489
$end


$rem
         jobtype = opt
        exchange = b3lyp
           basis = 6-31++g**
  max_scf_cycles = 150
      mem_static = 281
       mem_total = 2818
      sym_ignore = true
        symmetry = false
          thresh = 12
$end


$opt
CONSTRAINT
tors 13 15 16 18 180.0
ENDCONSTRAINT
$end

--------------------------------------------------------------
 ----------------------------------------------------------------
             Standard Nuclear Orientation (Angstroms)
    I     Atom           X                Y                Z
 ----------------------------------------------------------------
    1      H       6.2325410000    -0.2233890000     0.1763810000
    2      H       5.2975240000     2.2285050000    -0.1095310000
    3      C       5.1973350000     0.0748600000     0.0835630000
    4      C       4.6834790000     1.3363440000    -0.0644360000
    5      S       3.9455990000    -1.1258100000     0.1190520000
    6      C       3.2626730000     1.3465940000    -0.1651120000
    7      H       2.6774010000     2.2481080000    -0.3084170000
    8      C       2.6956240000     0.0894190000    -0.0909460000
    9      H       1.3324190000    -2.3900550000    -0.6876260000
   10      C       1.2973930000    -0.2859020000    -0.1615080000
   11      C       0.7380830000    -1.5145570000    -0.4507840000
   12      S       0.0360180000     0.8945120000     0.1498250000
   13      C      -0.6804110000    -1.5106730000    -0.4493680000
   14      H      -1.2801240000    -2.3827710000    -0.6851030000
   15      C      -1.2322050000    -0.2790020000    -0.1585250000
   16      C      -2.6283010000     0.1038340000    -0.0846500000
   17      H      -2.5741905800     2.2152373700     0.4118735700
   18      C      -3.1768243600     1.3374278900     0.2067028300
   19      S      -3.9011869700    -1.0682565000    -0.3831226200
   20      C      -4.6010036500     1.3466727600     0.1813722800
   21      C      -5.1355540500     0.1241715600    -0.1301402600
   22      H      -5.2017954100     2.2273750600     0.3774703300
   23      H      -6.1771828300    -0.1503389200    -0.2243248900
 ----------------------------------------------------------------
 Nuclear Repulsion Energy =  1173.2520410814 hartrees
 There are       64 alpha and       64 beta electrons
 Requested basis set is 6-31++G(d,p)
 There are 110 shells and 345 basis functions

 Total QAlloc Memory Limit   2818 MB
 Mega-Array Size       275 MB
 MEM_STATIC part       281 MB
 A cutoff of  1.0D-12 yielded   4684 shell pairs
 There are     47627 function pairs

 Q-Chem warning in module /project/projectdirs/jcesr/qchem/qc44/cnl_qc441/compile/cori/qc_src/libqints/qchem/aobasis.C, line 68:

 Using reconstructed effective core potential

 
 -------------------------------------------------------
 OpenMP Integral Computing Module                       
 Release: version 1.0, May 2013, Q-Chem Inc. Pittsburgh 
 -------------------------------------------------------
 Integral Job Info:
 Integral job number is                      11
 Integral operator is                         1
 short-range coefficients                     0
 long-range coefficients              100000000
 Omega coefficients                           0
 if combine SR and LR in K                    0
 Integral screening is                        0
 Integral computing path is                   2
 max size of driver memory is            800000
 size of driver memory is                593474
 size of scratch memory is             15166112
 max col of scratch BK array               1296
 max len of scratch array in speh3          155
 max len of scratch index in speh4           18
 max int batch size is                      520
 min int batch size is                       52
 fixed nKL is                                52
 max L of basis functions is                  2
 order of int derivative is                   0
 number of shells is                        110
 number of basis is                         345
 number of cartesian basis is               345
 number of contracted shell pairs          4684
 number of primitive shell pairs          14653
 maxK2 (contraction) of shell pair           36
 max number of K2 of shell pair               1
 max number of CS2 of shell pair            517
 max number of PS2 of shell pair           3048
 mem total for path MDJ                  101496
 -------------------------------------------------------
 Smallest overlap matrix eigenvalue = 6.14E-08
 Linear dependence detected in AO basis
 Number of orthogonalized atomic orbitals = 342
 Maximum deviation from orthogonality = 7.947E-11

 Scale SEOQF with 1.000000e-02/1.000000e-01/1.000000e-01

 Standard Electronic Orientation quadrupole field applied
 Nucleus-field energy     =     0.0000000154 hartrees
 Guess from superposition of atomic densities
 Warning:  Energy on first SCF cycle will be non-variational
 A restricted hybrid HF-DFT SCF calculation will be
 performed using Pulay DIIS extrapolation
 Exchange:     0.2000 Hartree-Fock + 0.0800 Slater + 0.7200 B88
 Correlation:  0.1900 VWN1RPA + 0.8100 LYP
 Using SG-1 standard quadrature grid
 SCF converges when DIIS error is below 1.0E-08
 ---------------------------------------
  Cycle       Energy         DIIS Error
 ---------------------------------------
    1   -1660.3067399267      3.69E-02
    2   -1656.4160074116      3.87E-03
    3   -1656.0865632931      5.81E-03
    4   -1656.6453582115      1.06E-03
    5   -1656.6587903444      5.72E-04
    6   -1656.6637300224      1.63E-04
    7   -1656.6641135678      6.88E-05
    8   -1656.6641840708      1.46E-05
    9   -1656.6641870760      5.43E-06
   10   -1656.6641875474      1.80E-06
   11   -1656.6641876025      4.07E-07
   12   -1656.6641876058      2.52E-07
   13   -1656.6641876060      7.54E-08
   14   -1656.6641876065      1.94E-08
   15   -1656.6641876061      4.99E-09 Convergence criterion met
 ---------------------------------------
 SCF time:  CPU 16.32 s  wall 15.10 s
 SCF   energy in the final basis set = -1656.6641876061
 Total energy in the final basis set = -1656.6641876061
 
 --------------------------------------------------------------
 
                    Orbital Energies (a.u.)
 --------------------------------------------------------------
 
 Alpha MOs
 -- Occupied --
-88.921 -88.921 -88.921 -10.242 -10.242 -10.241 -10.241 -10.227
-10.227 -10.207 -10.206 -10.206 -10.206 -10.205 -10.205  -7.981
 -7.981  -7.981  -5.945  -5.945  -5.945  -5.941  -5.941  -5.941
 -5.938  -5.938  -5.937  -0.907  -0.893  -0.877  -0.788  -0.757
 -0.746  -0.745  -0.732  -0.698  -0.618  -0.598  -0.570  -0.560
 -0.536  -0.535  -0.530  -0.502  -0.462  -0.423  -0.422  -0.417
 -0.416  -0.409  -0.402  -0.397  -0.389  -0.379  -0.371  -0.362
 -0.350  -0.343  -0.299  -0.269  -0.263  -0.259  -0.250  -0.200
 -- Virtual --
 -0.073  -0.032  -0.008  -0.005  -0.000   0.007   0.007   0.009
  0.011   0.016   0.023   0.029   0.030   0.034   0.039   0.044
  0.047   0.051   0.054   0.056   0.060   0.068   0.069   0.080
  0.081   0.087   0.087   0.093   0.097   0.105   0.106   0.111
  0.112   0.118   0.123   0.123   0.126   0.127   0.130   0.133
  0.137   0.141   0.141   0.149   0.150   0.155   0.157   0.163
  0.166   0.170   0.171   0.177   0.180   0.185   0.188   0.192
  0.196   0.202   0.203   0.208   0.212   0.217   0.218   0.226
  0.230   0.236   0.237   0.240   0.245   0.260   0.263   0.266
  0.272   0.273   0.275   0.286   0.291   0.296   0.311   0.312
  0.323   0.325   0.344   0.346   0.357   0.360   0.366   0.370
  0.377   0.381   0.397   0.401   0.454   0.457   0.467   0.502
  0.506   0.512   0.520   0.527   0.571   0.575   0.578   0.587
  0.604   0.611   0.625   0.631   0.647   0.651   0.656   0.660
  0.661   0.667   0.677   0.686   0.702   0.714   0.715   0.717
  0.724   0.730   0.737   0.755   0.766   0.773   0.783   0.788
  0.818   0.822   0.828   0.835   0.837   0.853   0.870   0.886
  0.931   0.933   0.939   0.943   0.952   0.959   0.960   0.965
  0.974   0.982   0.983   0.990   0.996   1.003   1.028   1.030
  1.053   1.060   1.075   1.088   1.103   1.106   1.110   1.118
  1.152   1.159   1.167   1.180   1.189   1.213   1.240   1.252
  1.263   1.279   1.288   1.312   1.329   1.340   1.345   1.350
  1.360   1.362   1.370   1.451   1.475   1.485   1.495   1.499
  1.516   1.552   1.586   1.648   1.676   1.688   1.711   1.728
  1.798   1.832   1.862   1.869   1.895   1.899   1.907   1.916
  1.925   1.931   1.952   1.963   2.007   2.039   2.053   2.067
  2.074   2.104   2.116   2.165   2.169   2.181   2.189   2.202
  2.228   2.234   2.259   2.274   2.292   2.333   2.362   2.363
  2.418   2.439   2.444   2.445   2.467   2.471   2.478   2.499
  2.522   2.531   2.539   2.549   2.571   2.588   2.611   2.637
  2.667   2.687   2.704   2.715   2.723   2.830   2.867   2.884
  2.929   2.930   2.943   2.955   3.129   3.179   3.224   3.271
  3.271   3.326   3.414   3.415   3.670   3.729   3.740   3.973
  3.980   3.983   4.256   4.273   4.309   4.319   4.325   4.342
  4.387   4.478   4.551   4.651   4.696   4.730
 --------------------------------------------------------------
 
          Ground-State Mulliken Net Atomic Charges

     Atom                 Charge (a.u.)
  ----------------------------------------
      1 H                     0.195851
      2 H                     0.119454
      3 C                     0.008161
      4 C                    -0.358598
      5 S                    -0.068920
      6 C                     0.526938
      7 H                     0.133966
      8 C                    -0.351961
      9 H                     0.125693
     10 C                    -0.217629
     11 C                     0.118184
     12 S                    -0.380976
     13 C                    -0.055882
     14 H                     0.113093
     15 C                    -0.169455
     16 C                    -0.319514
     17 H                     0.120779
     18 C                     0.550137
     19 S                    -0.124095
     20 C                    -0.295939
     21 C                     0.008818
     22 H                     0.122510
     23 H                     0.199384
  ----------------------------------------
  Sum of atomic charges =     0.000000

 -----------------------------------------------------------------
                    Cartesian Multipole Moments
 -----------------------------------------------------------------
    Charge (ESU x 10^10)
                 0.0000
    Dipole Moment (Debye)
         X       0.0176      Y       0.5490      Z      -0.1446
       Tot       0.5679
    Quadrupole Moments (Debye-Ang)
        XX     -90.4315     XY      -0.0240     YY    -101.0101
        XZ       0.0358     YZ       2.0231     ZZ    -116.2676
    Octopole Moments (Debye-Ang^2)
       XXX      -8.4039    XXY      18.7859    XYY      -2.2408
       YYY      14.6891    XXZ      11.7444    XYZ      -6.9548
       YYZ       6.5962    XZZ      -4.4804    YZZ       0.5600
       ZZZ      29.0414
    Hexadecapole Moments (Debye-Ang^3)
      XXXX   -6348.5004   XXXY      10.2169   XXYY   -1299.3697
      XYYY      14.8689   YYYY    -834.5374   XXXZ      -7.5286
      XXYZ      -0.9768   XYYZ     -29.8117   YYYZ     -35.1165
      XXZZ   -1394.4536   XYZZ       3.2074   YYZZ    -190.2330
      XZZZ     -52.5886   YZZZ     -53.8939   ZZZZ    -194.3827
 -----------------------------------------------------------------
 Calculating analytic gradient of the SCF energy
 Gradient of SCF Energy
            1           2           3           4           5           6
    1  -0.0000099   0.0000019   0.0000024   0.0000104  -0.0000550   0.0000135
    2  -0.0000012   0.0000010   0.0000245  -0.0000155   0.0000323  -0.0000428
    3   0.0000394  -0.0000035   0.0000026  -0.0000113  -0.0000285  -0.0000263
            7           8           9          10          11          12
    1   0.0000008   0.0002117   0.0000257  -0.0001769   0.0001010  -0.0003264
    2  -0.0000064   0.0000958  -0.0000008   0.0004494  -0.0000689  -0.0002207
    3  -0.0000032  -0.0002562  -0.0000469  -0.0006275   0.0007428   0.0005619
           13          14          15          16          17          18
    1  -0.0004266  -0.0002221   0.0010014  -0.0008372   0.0002499   0.0001755
    2  -0.0004488   0.0002973  -0.0003735   0.0006838  -0.0000411  -0.0000702
    3   0.0009920  -0.0005538  -0.0009657  -0.0005782  -0.0006190   0.0012102
           19          20          21          22          23
    1   0.0002252   0.0000575   0.0000376  -0.0000148  -0.0000455
    2   0.0000120  -0.0001610  -0.0002505   0.0000010   0.0001046
    3   0.0006727   0.0006940  -0.0008900  -0.0000648  -0.0002406
 Max gradient component =       1.210E-03
 RMS gradient           =       4.007E-04
 Gradient time:  CPU 4.70 s  wall 4.59 s
 Geometry Optimization Parameters
   NAtoms,    NIC,     NZ,  NCons,   NDum,   NFix, NCnnct, MaxDiis
       23     166       0       1       0       0       0       0


** CONSTRAINED OPTIMIZATION IN DELOCALIZED INTERNAL COORDINATES **
   Searching for a Minimum

   Optimization Cycle:   1

                       Coordinates (Angstroms)
     ATOM                X               Y               Z
      1  H         6.2325410000   -0.2233890000    0.1763810000
      2  H         5.2975240000    2.2285050000   -0.1095310000
      3  C         5.1973350000    0.0748600000    0.0835630000
      4  C         4.6834790000    1.3363440000   -0.0644360000
      5  S         3.9455990000   -1.1258100000    0.1190520000
      6  C         3.2626730000    1.3465940000   -0.1651120000
      7  H         2.6774010000    2.2481080000   -0.3084170000
      8  C         2.6956240000    0.0894190000   -0.0909460000
      9  H         1.3324190000   -2.3900550000   -0.6876260000
     10  C         1.2973930000   -0.2859020000   -0.1615080000
     11  C         0.7380830000   -1.5145570000   -0.4507840000
     12  S         0.0360180000    0.8945120000    0.1498250000
     13  C        -0.6804110000   -1.5106730000   -0.4493680000
     14  H        -1.2801240000   -2.3827710000   -0.6851030000
     15  C        -1.2322050000   -0.2790020000   -0.1585250000
     16  C        -2.6283010000    0.1038340000   -0.0846500000
     17  H        -2.5741905800    2.2152373700    0.4118735700
     18  C        -3.1768243600    1.3374278900    0.2067028300
     19  S        -3.9011869700   -1.0682565000   -0.3831226200
     20  C        -4.6010036500    1.3466727600    0.1813722800
     21  C        -5.1355540500    0.1241715600   -0.1301402600
     22  H        -5.2017954100    2.2273750600    0.3774703300
     23  H        -6.1771828300   -0.1503389200   -0.2243248900
   Point Group: c1    Number of degrees of freedom:    63


   Energy is  -1656.664187606

              Constraints and their Current Values
                                        Value     Constraint
   Dihedral:       13  15  16  18     -180.000      180.000

 Attempting to Generate Delocalized Internal Coordinates

 62 Hessian modes will be used to form the next step
  Hessian Eigenvalues:
     0.045000    0.045000    0.045000    0.045000    0.045000    0.045000
     0.045000    0.045000    0.045000    0.045001    0.045002    0.045002
     0.045003    0.045003    0.045009    0.045010    0.045011    0.045018
     0.045019    0.159886    0.159939    0.159955    0.159957    0.159992
     0.159993    0.160000    0.160000    0.221281    0.221281    0.226855
     0.237826    0.237826    0.245311    0.249998    0.249998    0.250000
     0.250000    0.293636    0.293684    0.294746    0.294936    0.312571
     0.312615    0.354732    0.354740    0.354742    0.354756    0.355161
     0.355164    0.358372    0.358373    0.383080    0.383176    0.405793
     0.405832    0.413732    0.458107    0.461989    0.461995    0.485493
     0.497291    0.497294

 Minimum Search - Taking Simple RFO Step
 Searching for Lamda that Minimizes Along All modes
 Value Taken    Lamda =  -0.00007133
 Step Taken.  Stepsize is  0.037828

                             Maximum     Tolerance    Cnvgd?
         Gradient           0.000799      0.000300      NO
         Displacement       0.018118      0.001200      NO
         Energy change     *********      0.000001      NO


 New Cartesian Coordinates Obtained by Inverse Iteration

 Displacement from previous Coordinates is:  0.115322
 ----------------------------------------------------------------
             Standard Nuclear Orientation (Angstroms)
    I     Atom           X                Y                Z
 ----------------------------------------------------------------
    1      H       6.2316612647    -0.2273898072     0.1927847541
    2      H       5.3013703151     2.2252482417    -0.1017007758
    3      C       5.1972799827     0.0720842220     0.0947643294
    4      C       4.6858680466     1.3340312250    -0.0579013324
    5      S       3.9437440592    -1.1268036006     0.1267224995
    6      C       3.2656095774     1.3460736643    -0.1657863173
    7      H       2.6823508873     2.2481204473    -0.3139253229
    8      C       2.6964830651     0.0897597674    -0.0923856486
    9      H       1.3325614804    -2.3886341069    -0.6923516885
   10      C       1.2983598088    -0.2835071588    -0.1704949870
   11      C       0.7386969206    -1.5113385590    -0.4612185549
   12      S       0.0370776313     0.9005647528     0.1284963275
   13      C      -0.6794832250    -1.5066878070    -0.4591685533
   14      H      -1.2775888447    -2.3822165115    -0.6860776147
   15      C      -1.2326324089    -0.2745478676    -0.1707709638
   16      C      -2.6288730413     0.1058453818    -0.0932926753
   17      H      -2.5789170292     2.2196873139     0.3984102318
   18      C      -3.1791705283     1.3396930176     0.1955387451
   19      S      -3.9023773941    -1.0688553671    -0.3817840390
   20      C      -4.6034041222     1.3457693419     0.1829432790
   21      C      -5.1376165792     0.1196366083    -0.1129966518
   22      H      -5.2043922044     2.2252615209     0.3838391723
   23      H      -6.1792975121    -0.1594884993    -0.1909979734
 ----------------------------------------------------------------
 Nuclear Repulsion Energy =  1173.0903598259 hartrees
 There are       64 alpha and       64 beta electrons
 Applying Cartesian multipole field
    Component          Value
    ---------          -----
     (2,0,0)        1.00000E-12
     (0,2,0)        2.00000E-11
     (0,0,2)       -3.00000E-11
 Nucleus-field energy     =     0.0000000154 hartrees
 Requested basis set is 6-31++G(d,p)
 There are 110 shells and 345 basis functions
 A cutoff of  1.0D-12 yielded   4684 shell pairs
 There are     47627 function pairs

 Q-Chem warning in module /project/projectdirs/jcesr/qchem/qc44/cnl_qc441/compile/cori/qc_src/libqints/qchem/aobasis.C, line 68:

 Using reconstructed effective core potential

 Smallest overlap matrix eigenvalue = 6.15E-08
 Linear dependence detected in AO basis
 Number of orthogonalized atomic orbitals = 342
 Maximum deviation from orthogonality = 1.371E-10
 Guess MOs from SCF MO coefficient file
 Reading MOs from coefficient file
 Reading MOs from coefficient file
 A restricted hybrid HF-DFT SCF calculation will be
 performed using Pulay DIIS extrapolation
 Exchange:     0.2000 Hartree-Fock + 0.0800 Slater + 0.7200 B88
 Correlation:  0.1900 VWN1RPA + 0.8100 LYP
 Using SG-1 standard quadrature grid
 SCF converges when DIIS error is below 1.0E-08
 Geometry optimization detected.  Setting ReadMinima to 0
 Setting SaveMinima to 0
 ---------------------------------------
  Cycle       Energy         DIIS Error
 ---------------------------------------
    1   -1656.6636087458      2.52E-04
    2   -1656.6642231347      1.98E-05
    3   -1656.6642138213      3.39E-05
    4   -1656.6642316010      7.61E-06
    5   -1656.6642324222      3.06E-06
    6   -1656.6642325419      1.34E-06
    7   -1656.6642325692      5.32E-07
    8   -1656.6642325726      1.40E-07
    9   -1656.6642325723      3.66E-08
   10   -1656.6642325702      1.88E-08
   11   -1656.6642325707      5.29E-09 Convergence criterion met
 ---------------------------------------
 SCF time:  CPU 12.06 s  wall 11.16 s
 SCF   energy in the final basis set = -1656.6642325707
 Total energy in the final basis set = -1656.6642325707
 
 --------------------------------------------------------------
 
                    Orbital Energies (a.u.)
 --------------------------------------------------------------
 
 Alpha MOs
 -- Occupied --
-88.921 -88.921 -88.921 -10.242 -10.242 -10.241 -10.241 -10.227
-10.227 -10.207 -10.206 -10.206 -10.206 -10.205 -10.205  -7.981
 -7.981  -7.981  -5.945  -5.945  -5.945  -5.941  -5.941  -5.941
 -5.938  -5.938  -5.937  -0.907  -0.893  -0.877  -0.788  -0.757
 -0.746  -0.745  -0.732  -0.698  -0.618  -0.598  -0.570  -0.560
 -0.536  -0.535  -0.530  -0.502  -0.462  -0.423  -0.422  -0.417
 -0.416  -0.409  -0.402  -0.397  -0.389  -0.379  -0.371  -0.362
 -0.350  -0.343  -0.299  -0.269  -0.263  -0.259  -0.250  -0.200
 -- Virtual --
 -0.073  -0.032  -0.008  -0.005  -0.000   0.007   0.007   0.009
  0.011   0.016   0.023   0.029   0.030   0.034   0.039   0.044
  0.047   0.051   0.054   0.056   0.060   0.068   0.069   0.080
  0.081   0.087   0.087   0.093   0.097   0.105   0.106   0.111
  0.112   0.118   0.123   0.123   0.126   0.127   0.130   0.133
  0.137   0.141   0.141   0.148   0.150   0.155   0.157   0.163
  0.166   0.170   0.171   0.176   0.180   0.185   0.189   0.192
  0.196   0.202   0.203   0.208   0.212   0.217   0.218   0.226
  0.230   0.236   0.237   0.241   0.245   0.259   0.263   0.266
  0.272   0.273   0.275   0.286   0.291   0.296   0.311   0.312
  0.323   0.325   0.344   0.347   0.357   0.360   0.366   0.370
  0.377   0.382   0.397   0.401   0.454   0.457   0.467   0.502
  0.506   0.512   0.520   0.527   0.571   0.575   0.578   0.587
  0.605   0.611   0.625   0.631   0.646   0.651   0.656   0.660
  0.661   0.667   0.677   0.686   0.702   0.714   0.714   0.717
  0.724   0.730   0.737   0.755   0.766   0.773   0.783   0.788
  0.819   0.822   0.828   0.835   0.836   0.853   0.869   0.885
  0.931   0.933   0.939   0.942   0.952   0.959   0.960   0.966
  0.974   0.982   0.983   0.990   0.996   1.004   1.028   1.030
  1.053   1.061   1.075   1.088   1.103   1.106   1.110   1.117
  1.151   1.158   1.167   1.180   1.189   1.213   1.240   1.252
  1.263   1.280   1.288   1.315   1.330   1.340   1.344   1.349
  1.360   1.361   1.370   1.452   1.474   1.485   1.495   1.499
  1.516   1.552   1.586   1.648   1.676   1.688   1.710   1.729
  1.798   1.832   1.862   1.869   1.895   1.899   1.907   1.916
  1.925   1.931   1.951   1.963   2.007   2.039   2.054   2.066
  2.074   2.104   2.115   2.165   2.168   2.181   2.189   2.202
  2.228   2.234   2.259   2.274   2.292   2.333   2.362   2.363
  2.418   2.439   2.444   2.446   2.467   2.471   2.478   2.499
  2.523   2.531   2.539   2.550   2.570   2.588   2.611   2.638
  2.667   2.688   2.704   2.716   2.723   2.831   2.867   2.885
  2.928   2.930   2.943   2.955   3.129   3.179   3.224   3.271
  3.271   3.326   3.414   3.415   3.670   3.729   3.740   3.972
  3.980   3.983   4.256   4.273   4.309   4.319   4.325   4.342
  4.387   4.478   4.550   4.651   4.696   4.730
 --------------------------------------------------------------
 
          Ground-State Mulliken Net Atomic Charges

     Atom                 Charge (a.u.)
  ----------------------------------------
      1 H                     0.195824
      2 H                     0.119474
      3 C                     0.007966
      4 C                    -0.354696
      5 S                    -0.070435
      6 C                     0.532531
      7 H                     0.134019
      8 C                    -0.356117
      9 H                     0.125921
     10 C                    -0.223436
     11 C                     0.121657
     12 S                    -0.386359
     13 C                    -0.053058
     14 H                     0.113142
     15 C                    -0.171197
     16 C                    -0.321453
     17 H                     0.121101
     18 C                     0.553294
     19 S                    -0.123412
     20 C                    -0.296876
     21 C                     0.010116
     22 H                     0.122487
     23 H                     0.199509
  ----------------------------------------
  Sum of atomic charges =     0.000000

 -----------------------------------------------------------------
                    Cartesian Multipole Moments
 -----------------------------------------------------------------
    Charge (ESU x 10^10)
                 0.0000
    Dipole Moment (Debye)
         X       0.0179      Y       0.5427      Z      -0.1217
       Tot       0.5564
    Quadrupole Moments (Debye-Ang)
        XX     -90.3951     XY      -0.0186     YY    -100.9992
        XZ      -0.0505     YZ       1.9879     ZZ    -116.2851
    Octopole Moments (Debye-Ang^2)
       XXX      -8.5451    XXY      18.5441    XYY      -2.2292
       YYY      14.4107    XXZ      13.2778    XYZ      -6.9713
       YYZ       6.8709    XZZ      -4.3564    YZZ       0.4597
       ZZZ      29.8905
    Hexadecapole Moments (Debye-Ang^3)
      XXXX   -6350.6533   XXXY      11.4190   XXYY   -1299.6963
      XYYY      14.7944   YYYY    -834.5402   XXXZ     -12.8507
      XXYZ      -1.0420   XYYZ     -30.3036   YYYZ     -34.6250
      XXZZ   -1395.3577   XYZZ       3.1461   YYZZ    -190.3273
      XZZZ     -54.2374   YZZZ     -53.3050   ZZZZ    -194.6904
 -----------------------------------------------------------------
 Calculating analytic gradient of the SCF energy
 Gradient of SCF Energy
            1           2           3           4           5           6
    1   0.0000007  -0.0000028   0.0000031   0.0000104   0.0000063  -0.0000387
    2  -0.0000031  -0.0000000   0.0000063  -0.0000089  -0.0000041   0.0000047
    3   0.0000075  -0.0000062  -0.0000257   0.0000197   0.0000403  -0.0000309
            7           8           9          10          11          12
    1  -0.0000029   0.0000431   0.0000221  -0.0000314   0.0001429  -0.0001136
    2  -0.0000045  -0.0000348   0.0000110   0.0000546   0.0000238  -0.0001325
    3  -0.0000116  -0.0000982  -0.0000115  -0.0001544   0.0001216   0.0000847
           13          14          15          16          17          18
    1  -0.0000352  -0.0000309   0.0002676  -0.0002442   0.0000489  -0.0000642
    2  -0.0002386   0.0001650   0.0000250   0.0000877   0.0000222  -0.0000978
    3   0.0007394  -0.0003701  -0.0004019  -0.0002063  -0.0004040   0.0008279
           19          20          21          22          23
    1   0.0001122  -0.0000587   0.0000042  -0.0000340  -0.0000049
    2   0.0001266  -0.0000272  -0.0000528  -0.0000009   0.0000786
    3  -0.0000025   0.0000220  -0.0000628  -0.0000325  -0.0000443
 Max gradient component =       8.279E-04
 RMS gradient           =       1.765E-04
 Gradient time:  CPU 4.70 s  wall 4.59 s
 Geometry Optimization Parameters
   NAtoms,    NIC,     NZ,  NCons,   NDum,   NFix, NCnnct, MaxDiis
       23     166       0       1       0       0       0       0

 Cartesian Hessian Update
 Hessian Updated using BFGS Update


** CONSTRAINED OPTIMIZATION IN DELOCALIZED INTERNAL COORDINATES **
   Searching for a Minimum

   Optimization Cycle:   2

                       Coordinates (Angstroms)
     ATOM                X               Y               Z
      1  H         6.2316612647   -0.2273898072    0.1927847541
      2  H         5.3013703151    2.2252482417   -0.1017007758
      3  C         5.1972799827    0.0720842220    0.0947643294
      4  C         4.6858680466    1.3340312250   -0.0579013324
      5  S         3.9437440592   -1.1268036006    0.1267224995
      6  C         3.2656095774    1.3460736643   -0.1657863173
      7  H         2.6823508873    2.2481204473   -0.3139253229
      8  C         2.6964830651    0.0897597674   -0.0923856486
      9  H         1.3325614804   -2.3886341069   -0.6923516885
     10  C         1.2983598088   -0.2835071588   -0.1704949870
     11  C         0.7386969206   -1.5113385590   -0.4612185549
     12  S         0.0370776313    0.9005647528    0.1284963275
     13  C        -0.6794832250   -1.5066878070   -0.4591685533
     14  H        -1.2775888447   -2.3822165115   -0.6860776147
     15  C        -1.2326324089   -0.2745478676   -0.1707709638
     16  C        -2.6288730413    0.1058453818   -0.0932926753
     17  H        -2.5789170292    2.2196873139    0.3984102318
     18  C        -3.1791705283    1.3396930176    0.1955387451
     19  S        -3.9023773941   -1.0688553671   -0.3817840390
     20  C        -4.6034041222    1.3457693419    0.1829432790
     21  C        -5.1376165792    0.1196366083   -0.1129966518
     22  H        -5.2043922044    2.2252615209    0.3838391723
     23  H        -6.1792975121   -0.1594884993   -0.1909979734
   Point Group: c1    Number of degrees of freedom:    63


   Energy is  -1656.664232571

              Constraints and their Current Values
                                        Value     Constraint
   Dihedral:       13  15  16  18     -180.000      180.000
 Hessian Updated using BFGS Update

 54 Hessian modes will be used to form the next step
  Hessian Eigenvalues:
     0.028567    0.045000    0.045000    0.045001    0.045003    0.045003
     0.045009    0.045009    0.045014    0.045018    0.051264    0.158424
     0.159906    0.159946    0.159958    0.159992    0.159994    0.160000
     0.160371    0.221278    0.221517    0.228167    0.237817    0.239467
     0.247252    0.249274    0.249998    0.249999    0.251071    0.292578
     0.293673    0.294503    0.294768    0.312567    0.312609    0.354725
     0.354742    0.354743    0.354805    0.355164    0.355166    0.358372
     0.358402    0.382114    0.383739    0.405736    0.405834    0.413330
     0.459419    0.461979    0.466218    0.485363    0.497286    0.497418

 Minimum Search - Taking Simple RFO Step
 Searching for Lamda that Minimizes Along All modes
 Value Taken    Lamda =  -0.00001384
 Step Taken.  Stepsize is  0.021437

                             Maximum     Tolerance    Cnvgd?
         Gradient           0.000249      0.000300     YES
         Displacement       0.007979      0.001200      NO
         Energy change     -0.000045      0.000001      NO


 New Cartesian Coordinates Obtained by Inverse Iteration

 Displacement from previous Coordinates is:  0.048804
 ----------------------------------------------------------------
             Standard Nuclear Orientation (Angstroms)
    I     Atom           X                Y                Z
 ----------------------------------------------------------------
    1      H       6.2306024943    -0.2295296393     0.1992469346
    2      H       5.3030373688     2.2238358503    -0.0974206456
    3      C       5.1966734940     0.0707975069     0.0991280898
    4      C       4.6866693310     1.3331554378    -0.0548472583
    5      S       3.9420607790    -1.1270154483     0.1284500197
    6      C       3.2666751667     1.3463644076    -0.1657808868
    7      H       2.6845488000     2.2489231700    -0.3152638953
    8      C       2.6962743714     0.0905282457    -0.0935044776
    9      H       1.3318791009    -2.3881801167    -0.6931476057
   10      C       1.2981643617    -0.2819291087    -0.1750928983
   11      C       0.7382700489    -1.5097585553    -0.4657359241
   12      S       0.0371147446     0.9038185600     0.1182387880
   13      C      -0.6796640948    -1.5050552037    -0.4636782819
   14      H      -1.2771755712    -2.3829213117    -0.6833795232
   15      C      -1.2329035557    -0.2726172088    -0.1766164334
   16      C      -2.6288074216     0.1066588811    -0.0977383501
   17      H      -2.5798719439     2.2209323830     0.3945381356
   18      C      -3.1792620313     1.3407186774     0.1897283743
   19      S      -3.9024743203    -1.0698266978    -0.3803167783
   20      C      -4.6034142853     1.3452015606     0.1834025755
   21      C      -5.1376570824     0.1177556316    -0.1070676696
   22      H      -5.2041761769     2.2240766063     0.3875276186
   23      H      -6.1792534280    -0.1636274080    -0.1780236678
 ----------------------------------------------------------------
 Nuclear Repulsion Energy =  1173.0981924985 hartrees
 There are       64 alpha and       64 beta electrons
 Applying Cartesian multipole field
    Component          Value
    ---------          -----
     (2,0,0)        1.00000E-12
     (0,2,0)        2.00000E-11
     (0,0,2)       -3.00000E-11
 Nucleus-field energy     =     0.0000000154 hartrees
 Requested basis set is 6-31++G(d,p)
 There are 110 shells and 345 basis functions
 A cutoff of  1.0D-12 yielded   4684 shell pairs
 There are     47627 function pairs

 Q-Chem warning in module /project/projectdirs/jcesr/qchem/qc44/cnl_qc441/compile/cori/qc_src/libqints/qchem/aobasis.C, line 68:

 Using reconstructed effective core potential

 Smallest overlap matrix eigenvalue = 6.16E-08
 Linear dependence detected in AO basis
 Number of orthogonalized atomic orbitals = 342
 Maximum deviation from orthogonality = 9.128E-11
 Guess MOs from SCF MO coefficient file
 Reading MOs from coefficient file
 Reading MOs from coefficient file
 A restricted hybrid HF-DFT SCF calculation will be
 performed using Pulay DIIS extrapolation
 Exchange:     0.2000 Hartree-Fock + 0.0800 Slater + 0.7200 B88
 Correlation:  0.1900 VWN1RPA + 0.8100 LYP
 Using SG-1 standard quadrature grid
 SCF converges when DIIS error is below 1.0E-08
 Geometry optimization detected.  Setting ReadMinima to 0
 Setting SaveMinima to 0
 ---------------------------------------
  Cycle       Energy         DIIS Error
 ---------------------------------------
    1   -1656.6640714113      1.14E-04
    2   -1656.6642387866      9.58E-06
    3   -1656.6642364295      1.65E-05
    4   -1656.6642406637      2.97E-06
    5   -1656.6642407763      1.58E-06
    6   -1656.6642408107      6.03E-07
    7   -1656.6642408165      2.31E-07
    8   -1656.6642408174      7.03E-08
    9   -1656.6642408152      2.11E-08
   10   -1656.6642408158      6.86E-09 Convergence criterion met
 ---------------------------------------
 SCF time:  CPU 10.90 s  wall 10.13 s
 SCF   energy in the final basis set = -1656.6642408158
 Total energy in the final basis set = -1656.6642408158
 
 --------------------------------------------------------------
 
                    Orbital Energies (a.u.)
 --------------------------------------------------------------
 
 Alpha MOs
 -- Occupied --
-88.921 -88.921 -88.921 -10.242 -10.242 -10.241 -10.241 -10.227
-10.227 -10.207 -10.206 -10.206 -10.206 -10.205 -10.205  -7.981
 -7.981  -7.981  -5.945  -5.945  -5.945  -5.941  -5.941  -5.941
 -5.938  -5.938  -5.937  -0.907  -0.893  -0.877  -0.788  -0.757
 -0.746  -0.745  -0.732  -0.698  -0.619  -0.598  -0.570  -0.560
 -0.536  -0.535  -0.530  -0.502  -0.462  -0.423  -0.422  -0.417
 -0.416  -0.409  -0.402  -0.397  -0.389  -0.379  -0.371  -0.362
 -0.350  -0.343  -0.299  -0.269  -0.263  -0.259  -0.250  -0.200
 -- Virtual --
 -0.073  -0.032  -0.008  -0.005  -0.000   0.007   0.007   0.009
  0.011   0.016   0.023   0.029   0.030   0.034   0.039   0.044
  0.047   0.051   0.054   0.056   0.060   0.068   0.069   0.080
  0.081   0.087   0.087   0.093   0.097   0.105   0.106   0.111
  0.112   0.118   0.123   0.123   0.126   0.127   0.130   0.133
  0.137   0.141   0.141   0.148   0.150   0.155   0.157   0.163
  0.166   0.170   0.171   0.176   0.180   0.185   0.189   0.192
  0.196   0.202   0.203   0.208   0.212   0.217   0.219   0.226
  0.230   0.236   0.237   0.241   0.245   0.259   0.263   0.266
  0.272   0.273   0.275   0.286   0.291   0.297   0.311   0.312
  0.323   0.325   0.344   0.347   0.357   0.360   0.366   0.370
  0.377   0.382   0.397   0.401   0.454   0.457   0.467   0.502
  0.506   0.512   0.521   0.527   0.571   0.575   0.578   0.588
  0.605   0.611   0.625   0.631   0.646   0.651   0.656   0.660
  0.661   0.667   0.677   0.686   0.702   0.714   0.714   0.717
  0.724   0.730   0.737   0.755   0.765   0.772   0.783   0.788
  0.819   0.822   0.828   0.834   0.836   0.853   0.869   0.885
  0.931   0.933   0.940   0.942   0.952   0.959   0.960   0.966
  0.974   0.982   0.984   0.990   0.996   1.004   1.028   1.030
  1.053   1.061   1.075   1.088   1.103   1.106   1.110   1.117
  1.151   1.158   1.168   1.180   1.189   1.213   1.240   1.252
  1.264   1.281   1.287   1.316   1.330   1.341   1.343   1.349
  1.360   1.361   1.370   1.452   1.474   1.485   1.495   1.499
  1.515   1.552   1.586   1.648   1.675   1.688   1.710   1.729
  1.799   1.832   1.862   1.869   1.895   1.899   1.907   1.916
  1.924   1.932   1.951   1.963   2.007   2.039   2.054   2.066
  2.074   2.104   2.115   2.165   2.169   2.181   2.189   2.203
  2.227   2.234   2.259   2.274   2.293   2.333   2.362   2.363
  2.419   2.439   2.443   2.447   2.467   2.471   2.479   2.499
  2.523   2.531   2.539   2.550   2.570   2.588   2.611   2.638
  2.667   2.688   2.704   2.716   2.723   2.831   2.867   2.885
  2.928   2.930   2.943   2.955   3.129   3.179   3.224   3.271
  3.271   3.326   3.414   3.416   3.671   3.729   3.740   3.972
  3.980   3.983   4.257   4.273   4.309   4.319   4.325   4.342
  4.387   4.478   4.550   4.651   4.696   4.730
 --------------------------------------------------------------
 
          Ground-State Mulliken Net Atomic Charges

     Atom                 Charge (a.u.)
  ----------------------------------------
      1 H                     0.195822
      2 H                     0.119486
      3 C                     0.007772
      4 C                    -0.352340
      5 S                    -0.071271
      6 C                     0.533991
      7 H                     0.133956
      8 C                    -0.356893
      9 H                     0.125877
     10 C                    -0.225681
     11 C                     0.122147
     12 S                    -0.389017
     13 C                    -0.052106
     14 H                     0.113224
     15 C                    -0.171867
     16 C                    -0.321449
     17 H                     0.121233
     18 C                     0.554468
     19 S                    -0.122993
     20 C                    -0.296475
     21 C                     0.010116
     22 H                     0.122448
     23 H                     0.199549
  ----------------------------------------
  Sum of atomic charges =     0.000000

 -----------------------------------------------------------------
                    Cartesian Multipole Moments
 -----------------------------------------------------------------
    Charge (ESU x 10^10)
                 0.0000
    Dipole Moment (Debye)
         X       0.0172      Y       0.5376      Z      -0.1035
       Tot       0.5477
    Quadrupole Moments (Debye-Ang)
        XX     -90.3996     XY      -0.0023     YY    -100.9859
        XZ      -0.1021     YZ       1.9747     ZZ    -116.2954
    Octopole Moments (Debye-Ang^2)
       XXX      -8.4852    XXY      18.3657    XYY      -2.2156
       YYY      14.2204    XXZ      14.0357    XYZ      -6.9807
       YYZ       7.0913    XZZ      -4.3034    YZZ       0.4292
       ZZZ      30.4223
    Hexadecapole Moments (Debye-Ang^3)
      XXXX   -6350.6073   XXXY      11.9593   XXYY   -1299.5254
      XYYY      14.5879   YYYY    -834.6701   XXXZ     -15.1618
      XXYZ      -0.9348   XYYZ     -30.5321   YYYZ     -34.3955
      XXZZ   -1395.3209   XYZZ       2.9675   YYZZ    -190.4278
      XZZZ     -54.8085   YZZZ     -53.0508   ZZZZ    -194.7759
 -----------------------------------------------------------------
 Calculating analytic gradient of the SCF energy
 Gradient of SCF Energy
            1           2           3           4           5           6
    1   0.0000005   0.0000017  -0.0000044   0.0000100  -0.0000027  -0.0000054
    2  -0.0000009  -0.0000004   0.0000092  -0.0000025   0.0000032   0.0000093
    3  -0.0000058  -0.0000069  -0.0000138   0.0000101   0.0000435  -0.0000317
            7           8           9          10          11          12
    1   0.0000000  -0.0000082  -0.0000113  -0.0000152  -0.0000398   0.0000245
    2  -0.0000054  -0.0000286  -0.0000024  -0.0000078   0.0000226   0.0000378
    3  -0.0000113   0.0000065   0.0000232   0.0000566  -0.0001533  -0.0000294
           13          14          15          16          17          18
    1   0.0000219   0.0000133  -0.0000389   0.0000219  -0.0000071  -0.0000205
    2  -0.0001069   0.0000209   0.0000970  -0.0000356   0.0000618  -0.0000769
    3   0.0004148  -0.0001781  -0.0001498  -0.0000995  -0.0001672   0.0003946
           19          20          21          22          23
    1  -0.0000143   0.0000400   0.0000292   0.0000042   0.0000005
    2   0.0000007   0.0000383  -0.0000297  -0.0000106   0.0000070
    3  -0.0000957  -0.0001019   0.0000442   0.0000359   0.0000151
 Max gradient component =       4.148E-04
 RMS gradient           =       8.688E-05
 Gradient time:  CPU 4.70 s  wall 4.59 s
 Geometry Optimization Parameters
   NAtoms,    NIC,     NZ,  NCons,   NDum,   NFix, NCnnct, MaxDiis
       23     166       0       1       0       0       0       0

 Cartesian Hessian Update
 Hessian Updated using BFGS Update


** CONSTRAINED OPTIMIZATION IN DELOCALIZED INTERNAL COORDINATES **
   Searching for a Minimum

   Optimization Cycle:   3

                       Coordinates (Angstroms)
     ATOM                X               Y               Z
      1  H         6.2306024943   -0.2295296393    0.1992469346
      2  H         5.3030373688    2.2238358503   -0.0974206456
      3  C         5.1966734940    0.0707975069    0.0991280898
      4  C         4.6866693310    1.3331554378   -0.0548472583
      5  S         3.9420607790   -1.1270154483    0.1284500197
      6  C         3.2666751667    1.3463644076   -0.1657808868
      7  H         2.6845488000    2.2489231700   -0.3152638953
      8  C         2.6962743714    0.0905282457   -0.0935044776
      9  H         1.3318791009   -2.3881801167   -0.6931476057
     10  C         1.2981643617   -0.2819291087   -0.1750928983
     11  C         0.7382700489   -1.5097585553   -0.4657359241
     12  S         0.0371147446    0.9038185600    0.1182387880
     13  C        -0.6796640948   -1.5050552037   -0.4636782819
     14  H        -1.2771755712   -2.3829213117   -0.6833795232
     15  C        -1.2329035557   -0.2726172088   -0.1766164334
     16  C        -2.6288074216    0.1066588811   -0.0977383501
     17  H        -2.5798719439    2.2209323830    0.3945381356
     18  C        -3.1792620313    1.3407186774    0.1897283743
     19  S        -3.9024743203   -1.0698266978   -0.3803167783
     20  C        -4.6034142853    1.3452015606    0.1834025755
     21  C        -5.1376570824    0.1177556316   -0.1070676696
     22  H        -5.2041761769    2.2240766063    0.3875276186
     23  H        -6.1792534280   -0.1636274080   -0.1780236678
   Point Group: c1    Number of degrees of freedom:    63


   Energy is  -1656.664240816

              Constraints and their Current Values
                                        Value     Constraint
   Dihedral:       13  15  16  18     -180.000      180.000
 Hessian Updated using BFGS Update

 57 Hessian modes will be used to form the next step
  Hessian Eigenvalues:
     0.020396    0.045000    0.045000    0.045000    0.045000    0.045001
     0.045003    0.045003    0.045007    0.045009    0.045014    0.045016
     0.046052    0.054165    0.159702    0.159912    0.159957    0.159978
     0.159993    0.160000    0.160109    0.160762    0.221294    0.221519
     0.228145    0.237806    0.239816    0.247361    0.249979    0.249999
     0.250873    0.251104    0.293538    0.293690    0.294765    0.295071
     0.312559    0.312609    0.354737    0.354742    0.354750    0.354973
     0.355164    0.355196    0.358372    0.358398    0.383309    0.386919
     0.405830    0.406702    0.415425    0.459414    0.462022    0.466192
     0.485708    0.497285    0.497562

 Minimum Search - Taking Simple RFO Step
 Searching for Lamda that Minimizes Along All modes
 Value Taken    Lamda =  -0.00000243
 Step Taken.  Stepsize is  0.009747

                             Maximum     Tolerance    Cnvgd?
         Gradient           0.000096      0.000300     YES
         Displacement       0.003961      0.001200      NO
         Energy change     -0.000008      0.000001      NO


 New Cartesian Coordinates Obtained by Inverse Iteration

 Displacement from previous Coordinates is:  0.011169
 ----------------------------------------------------------------
             Standard Nuclear Orientation (Angstroms)
    I     Atom           X                Y                Z
 ----------------------------------------------------------------
    1      H       6.2307525194    -0.2299150430     0.1979648080
    2      H       5.3033013722     2.2238384850    -0.0958984178
    3      C       5.1968326399     0.0705887070     0.0982886769
    4      C       4.6868841203     1.3331485829    -0.0542975442
    5      S       3.9421376066    -1.1271486655     0.1263637532
    6      C       3.2668860326     1.3465958660    -0.1650217586
    7      H       2.6848259915     2.2494028343    -0.3133023982
    8      C       2.6963896843     0.0907379860    -0.0939745860
    9      H       1.3320443615    -2.3884109990    -0.6920326302
   10      C       1.2982888161    -0.2817250506    -0.1757805422
   11      C       0.7383992791    -1.5097162713    -0.4657108674
   12      S       0.0371124565     0.9041024954     0.1167853259
   13      C      -0.6795799766    -1.5049796927    -0.4638407381
   14      H      -1.2770433933    -2.3836853060    -0.6802335243
   15      C      -1.2329808691    -0.2725076896    -0.1772519771
   16      C      -2.6289074586     0.1068064842    -0.0985386384
   17      H      -2.5801753165     2.2205943918     0.3956811117
   18      C      -3.1794831258     1.3409101384     0.1884570784
   19      S      -3.9027343153    -1.0698242929    -0.3800929539
   20      C      -4.6037000882     1.3453322323     0.1827585955
   21      C      -5.1379976908     0.1178489308    -0.1073374065
   22      H      -5.2043861969     2.2241676705     0.3873092744
   23      H      -6.1795562989    -0.1638555740    -0.1776484012
 ----------------------------------------------------------------
 Nuclear Repulsion Energy =  1173.0765454541 hartrees
 There are       64 alpha and       64 beta electrons
 Applying Cartesian multipole field
    Component          Value
    ---------          -----
     (2,0,0)        1.00000E-12
     (0,2,0)        2.00000E-11
     (0,0,2)       -3.00000E-11
 Nucleus-field energy     =     0.0000000154 hartrees
 Requested basis set is 6-31++G(d,p)
 There are 110 shells and 345 basis functions
 A cutoff of  1.0D-12 yielded   4684 shell pairs
 There are     47627 function pairs

 Q-Chem warning in module /project/projectdirs/jcesr/qchem/qc44/cnl_qc441/compile/cori/qc_src/libqints/qchem/aobasis.C, line 68:

 Using reconstructed effective core potential

 Smallest overlap matrix eigenvalue = 6.17E-08
 Linear dependence detected in AO basis
 Number of orthogonalized atomic orbitals = 342
 Maximum deviation from orthogonality = 1.229E-10
 Guess MOs from SCF MO coefficient file
 Reading MOs from coefficient file
 Reading MOs from coefficient file
 A restricted hybrid HF-DFT SCF calculation will be
 performed using Pulay DIIS extrapolation
 Exchange:     0.2000 Hartree-Fock + 0.0800 Slater + 0.7200 B88
 Correlation:  0.1900 VWN1RPA + 0.8100 LYP
 Using SG-1 standard quadrature grid
 SCF converges when DIIS error is below 1.0E-08
 Geometry optimization detected.  Setting ReadMinima to 0
 Setting SaveMinima to 0
 ---------------------------------------
  Cycle       Energy         DIIS Error
 ---------------------------------------
    1   -1656.6637085753      3.26E-05
    2   -1656.6642421912      3.38E-06
    3   -1656.6642417389      6.39E-06
    4   -1656.6642424311      1.17E-06
    5   -1656.6642424512      4.35E-07
    6   -1656.6642424555      2.25E-07
    7   -1656.6642424567      5.49E-08
    8   -1656.6642424555      2.42E-08
    9   -1656.6642424561      8.29E-09 Convergence criterion met
 ---------------------------------------
 SCF time:  CPU 9.88 s  wall 9.05 s
 SCF   energy in the final basis set = -1656.6642424561
 Total energy in the final basis set = -1656.6642424561
 
 --------------------------------------------------------------
 
                    Orbital Energies (a.u.)
 --------------------------------------------------------------
 
 Alpha MOs
 -- Occupied --
-88.921 -88.921 -88.921 -10.242 -10.242 -10.241 -10.241 -10.227
-10.227 -10.207 -10.206 -10.206 -10.206 -10.205 -10.205  -7.981
 -7.981  -7.981  -5.945  -5.945  -5.945  -5.941  -5.941  -5.941
 -5.938  -5.938  -5.937  -0.907  -0.893  -0.877  -0.788  -0.757
 -0.746  -0.745  -0.732  -0.698  -0.619  -0.598  -0.570  -0.560
 -0.536  -0.535  -0.530  -0.502  -0.462  -0.423  -0.422  -0.417
 -0.416  -0.409  -0.402  -0.397  -0.389  -0.379  -0.371  -0.362
 -0.350  -0.343  -0.299  -0.269  -0.263  -0.259  -0.250  -0.200
 -- Virtual --
 -0.073  -0.032  -0.008  -0.005  -0.000   0.007   0.007   0.009
  0.011   0.016   0.023   0.029   0.030   0.034   0.039   0.044
  0.047   0.051   0.054   0.056   0.060   0.068   0.069   0.080
  0.081   0.087   0.087   0.093   0.097   0.105   0.106   0.111
  0.112   0.118   0.123   0.123   0.126   0.127   0.130   0.133
  0.137   0.141   0.141   0.148   0.150   0.155   0.157   0.163
  0.166   0.170   0.171   0.176   0.180   0.185   0.189   0.192
  0.196   0.202   0.203   0.208   0.212   0.217   0.219   0.226
  0.230   0.236   0.237   0.241   0.245   0.259   0.263   0.266
  0.272   0.273   0.275   0.286   0.291   0.297   0.311   0.312
  0.323   0.325   0.344   0.347   0.357   0.360   0.366   0.370
  0.377   0.382   0.397   0.401   0.454   0.457   0.467   0.502
  0.506   0.512   0.521   0.527   0.571   0.575   0.578   0.588
  0.605   0.611   0.625   0.631   0.647   0.651   0.656   0.660
  0.661   0.667   0.677   0.686   0.702   0.714   0.714   0.717
  0.724   0.730   0.737   0.755   0.765   0.772   0.783   0.788
  0.819   0.822   0.828   0.834   0.836   0.853   0.869   0.885
  0.931   0.933   0.940   0.942   0.952   0.959   0.960   0.967
  0.974   0.982   0.984   0.990   0.996   1.004   1.028   1.030
  1.053   1.061   1.075   1.088   1.103   1.106   1.110   1.117
  1.152   1.158   1.168   1.180   1.189   1.213   1.240   1.252
  1.264   1.281   1.287   1.316   1.330   1.341   1.343   1.349
  1.360   1.361   1.369   1.452   1.474   1.485   1.495   1.499
  1.515   1.552   1.586   1.649   1.675   1.688   1.710   1.729
  1.799   1.832   1.862   1.869   1.895   1.899   1.907   1.916
  1.924   1.932   1.951   1.963   2.007   2.039   2.054   2.066
  2.074   2.104   2.115   2.165   2.169   2.181   2.189   2.203
  2.227   2.234   2.259   2.274   2.293   2.333   2.362   2.363
  2.418   2.439   2.443   2.447   2.467   2.470   2.479   2.499
  2.523   2.531   2.539   2.550   2.570   2.588   2.611   2.638
  2.667   2.688   2.704   2.716   2.723   2.831   2.867   2.885
  2.929   2.930   2.943   2.955   3.129   3.179   3.224   3.271
  3.271   3.326   3.414   3.416   3.670   3.729   3.740   3.972
  3.980   3.983   4.257   4.273   4.309   4.319   4.325   4.342
  4.387   4.478   4.550   4.651   4.696   4.730
 --------------------------------------------------------------
 
          Ground-State Mulliken Net Atomic Charges

     Atom                 Charge (a.u.)
  ----------------------------------------
      1 H                     0.195840
      2 H                     0.119500
      3 C                     0.007613
      4 C                    -0.351558
      5 S                    -0.071543
      6 C                     0.533816
      7 H                     0.133898
      8 C                    -0.356149
      9 H                     0.125797
     10 C                    -0.225517
     11 C                     0.121166
     12 S                    -0.389652
     13 C                    -0.052172
     14 H                     0.113246
     15 C                    -0.171666
     16 C                    -0.321595
     17 H                     0.121257
     18 C                     0.554910
     19 S                    -0.122953
     20 C                    -0.296499
     21 C                     0.010222
     22 H                     0.122459
     23 H                     0.199579
  ----------------------------------------
  Sum of atomic charges =     0.000000

 -----------------------------------------------------------------
                    Cartesian Multipole Moments
 -----------------------------------------------------------------
    Charge (ESU x 10^10)
                 0.0000
    Dipole Moment (Debye)
         X       0.0177      Y       0.5363      Z      -0.0966
       Tot       0.5452
    Quadrupole Moments (Debye-Ang)
        XX     -90.3929     XY      -0.0007     YY    -100.9836
        XZ      -0.1154     YZ       1.9755     ZZ    -116.3017
    Octopole Moments (Debye-Ang^2)
       XXX      -8.4855    XXY      18.3474    XYY      -2.2012
       YYY      14.1745    XXZ      14.1505    XYZ      -6.9586
       YYZ       7.2002    XZZ      -4.3035    YZZ       0.4376
       ZZZ      30.6280
    Hexadecapole Moments (Debye-Ang^3)
      XXXX   -6350.9328   XXXY      12.0141   XXYY   -1299.6366
      XYYY      14.6824   YYYY    -834.7387   XXXZ     -15.3293
      XXYZ      -0.8244   XYYZ     -30.4873   YYYZ     -34.4150
      XXZZ   -1395.4840   XYZZ       2.9566   YYZZ    -190.4716
      XZZZ     -54.6368   YZZZ     -53.0873   ZZZZ    -194.6573
 -----------------------------------------------------------------
 Calculating analytic gradient of the SCF energy
 Gradient of SCF Energy
            1           2           3           4           5           6
    1   0.0000010   0.0000009   0.0000021  -0.0000017  -0.0000073   0.0000066
    2  -0.0000003  -0.0000012  -0.0000049   0.0000008   0.0000085   0.0000022
    3  -0.0000066  -0.0000046  -0.0000043   0.0000009   0.0000353  -0.0000373
            7           8           9          10          11          12
    1  -0.0000012  -0.0000018   0.0000015   0.0000144  -0.0000101   0.0000291
    2  -0.0000009  -0.0000061  -0.0000070  -0.0000293   0.0000277  -0.0000059
    3  -0.0000080   0.0000245   0.0000323   0.0000476  -0.0001483  -0.0000017
           13          14          15          16          17          18
    1   0.0000133   0.0000173  -0.0000804   0.0000762  -0.0000165  -0.0000009
    2  -0.0000382   0.0000028   0.0000824  -0.0000217   0.0000247  -0.0000656
    3   0.0002235  -0.0000590  -0.0001102  -0.0001112  -0.0000526   0.0001942
           19          20          21          22          23
    1  -0.0000248  -0.0000028  -0.0000134  -0.0000002  -0.0000012
    2   0.0000136   0.0000222   0.0000143  -0.0000115  -0.0000067
    3  -0.0000185  -0.0000813   0.0000121   0.0000522   0.0000211
 Max gradient component =       2.235E-04
 RMS gradient           =       5.234E-05
 Gradient time:  CPU 4.70 s  wall 4.59 s
 Geometry Optimization Parameters
   NAtoms,    NIC,     NZ,  NCons,   NDum,   NFix, NCnnct, MaxDiis
       23     166       0       1       0       0       0       0

 Cartesian Hessian Update
 Hessian Updated using BFGS Update


** CONSTRAINED OPTIMIZATION IN DELOCALIZED INTERNAL COORDINATES **
   Searching for a Minimum

   Optimization Cycle:   4

                       Coordinates (Angstroms)
     ATOM                X               Y               Z
      1  H         6.2307525194   -0.2299150430    0.1979648080
      2  H         5.3033013722    2.2238384850   -0.0958984178
      3  C         5.1968326399    0.0705887070    0.0982886769
      4  C         4.6868841203    1.3331485829   -0.0542975442
      5  S         3.9421376066   -1.1271486655    0.1263637532
      6  C         3.2668860326    1.3465958660   -0.1650217586
      7  H         2.6848259915    2.2494028343   -0.3133023982
      8  C         2.6963896843    0.0907379860   -0.0939745860
      9  H         1.3320443615   -2.3884109990   -0.6920326302
     10  C         1.2982888161   -0.2817250506   -0.1757805422
     11  C         0.7383992791   -1.5097162713   -0.4657108674
     12  S         0.0371124565    0.9041024954    0.1167853259
     13  C        -0.6795799766   -1.5049796927   -0.4638407381
     14  H        -1.2770433933   -2.3836853060   -0.6802335243
     15  C        -1.2329808691   -0.2725076896   -0.1772519771
     16  C        -2.6289074586    0.1068064842   -0.0985386384
     17  H        -2.5801753165    2.2205943918    0.3956811117
     18  C        -3.1794831258    1.3409101384    0.1884570784
     19  S        -3.9027343153   -1.0698242929   -0.3800929539
     20  C        -4.6037000882    1.3453322323    0.1827585955
     21  C        -5.1379976908    0.1178489308   -0.1073374065
     22  H        -5.2043861969    2.2241676705    0.3873092744
     23  H        -6.1795562989   -0.1638555740   -0.1776484012
   Point Group: c1    Number of degrees of freedom:    63


   Energy is  -1656.664242456

              Constraints and their Current Values
                                        Value     Constraint
   Dihedral:       13  15  16  18     -180.000      180.000
 Hessian Updated using BFGS Update

 60 Hessian modes will be used to form the next step
  Hessian Eigenvalues:
     0.013970    0.044111    0.045000    0.045000    0.045000    0.045000
     0.045000    0.045001    0.045002    0.045002    0.045003    0.045004
     0.045009    0.045014    0.045016    0.045420    0.051023    0.159611
     0.159905    0.159952    0.159972    0.159990    0.159999    0.160074
     0.160143    0.221309    0.221533    0.228102    0.237847    0.241353
     0.249764    0.249905    0.249990    0.250486    0.257625    0.293498
     0.293720    0.294750    0.294818    0.312576    0.312609    0.354738
     0.354743    0.354756    0.355041    0.355164    0.355239    0.358372
     0.358408    0.383314    0.386296    0.405828    0.407722    0.416520
     0.459509    0.461986    0.466702    0.485579    0.497296    0.497894

 Minimum Search - Taking Simple RFO Step
 Searching for Lamda that Minimizes Along All modes
 Value Taken    Lamda =  -0.00000116
 Step Taken.  Stepsize is  0.007952

                             Maximum     Tolerance    Cnvgd?
         Gradient           0.000075      0.000300     YES
         Displacement       0.002943      0.001200      NO
         Energy change     -0.000002      0.000001      NO


 New Cartesian Coordinates Obtained by Inverse Iteration

 Displacement from previous Coordinates is:  0.018123
 ----------------------------------------------------------------
             Standard Nuclear Orientation (Angstroms)
    I     Atom           X                Y                Z
 ----------------------------------------------------------------
    1      H       6.2309888919    -0.2297397772     0.1940778117
    2      H       5.3027855945     2.2243470360    -0.0946348264
    3      C       5.1969286640     0.0707270175     0.0957680300
    4      C       4.6865958978     1.3334477181    -0.0541749536
    5      S       3.9425106688    -1.1273218673     0.1227353588
    6      C       3.2665052262     1.3468054240    -0.1636442739
    7      H       2.6841500860     2.2497928073    -0.3096461295
    8      C       2.6963077915     0.0907280353    -0.0942495971
    9      H       1.3320029379    -2.3889201689    -0.6904409953
   10      C       1.2982184139    -0.2819079850    -0.1753848968
   11      C       0.7383619571    -1.5101510175    -0.4643847116
   12      S       0.0370541810     0.9039163445     0.1172264889
   13      C      -0.6796235202    -1.5054264643    -0.4626107320
   14      H      -1.2772342791    -2.3845630136    -0.6768351763
   15      C      -1.2329312734    -0.2728546655    -0.1764386910
   16      C      -2.6288379183     0.1067537185    -0.0983055349
   17      H      -2.5798329550     2.2200805688     0.3975664511
   18      C      -3.1792815413     1.3409827717     0.1882807261
   19      S      -3.9026073372    -1.0697823370    -0.3803742312
   20      C      -4.6034898260     1.3456494256     0.1816927486
   21      C      -5.1377925023     0.1182705682    -0.1088748596
   22      H      -5.2041314988     2.2246946952     0.3854756107
   23      H      -6.1793375091    -0.1632226146    -0.1801773765
 ----------------------------------------------------------------
 Nuclear Repulsion Energy =  1173.0916582812 hartrees
 There are       64 alpha and       64 beta electrons
 Applying Cartesian multipole field
    Component          Value
    ---------          -----
     (2,0,0)        1.00000E-12
     (0,2,0)        2.00000E-11
     (0,0,2)       -3.00000E-11
 Nucleus-field energy     =     0.0000000154 hartrees
 Requested basis set is 6-31++G(d,p)
 There are 110 shells and 345 basis functions
 A cutoff of  1.0D-12 yielded   4684 shell pairs
 There are     47627 function pairs

 Q-Chem warning in module /project/projectdirs/jcesr/qchem/qc44/cnl_qc441/compile/cori/qc_src/libqints/qchem/aobasis.C, line 68:

 Using reconstructed effective core potential

 Smallest overlap matrix eigenvalue = 6.17E-08
 Linear dependence detected in AO basis
 Number of orthogonalized atomic orbitals = 342
 Maximum deviation from orthogonality = 4.820E-11
 Guess MOs from SCF MO coefficient file
 Reading MOs from coefficient file
 Reading MOs from coefficient file
 A restricted hybrid HF-DFT SCF calculation will be
 performed using Pulay DIIS extrapolation
 Exchange:     0.2000 Hartree-Fock + 0.0800 Slater + 0.7200 B88
 Correlation:  0.1900 VWN1RPA + 0.8100 LYP
 Using SG-1 standard quadrature grid
 SCF converges when DIIS error is below 1.0E-08
 Geometry optimization detected.  Setting ReadMinima to 0
 Setting SaveMinima to 0
 ---------------------------------------
  Cycle       Energy         DIIS Error
 ---------------------------------------
    1   -1656.6636792428      4.53E-05
    2   -1656.6642427006      4.73E-06
    3   -1656.6642413503      1.04E-05
    4   -1656.6642431985      1.16E-06
    5   -1656.6642432182      5.91E-07
    6   -1656.6642432215      3.04E-07
    7   -1656.6642432240      8.28E-08
    8   -1656.6642432238      3.34E-08
    9   -1656.6642432238      8.03E-09 Convergence criterion met
 ---------------------------------------
 SCF time:  CPU 9.94 s  wall 9.10 s
 SCF   energy in the final basis set = -1656.6642432238
 Total energy in the final basis set = -1656.6642432238
 
 --------------------------------------------------------------
 
                    Orbital Energies (a.u.)
 --------------------------------------------------------------
 
 Alpha MOs
 -- Occupied --
-88.921 -88.921 -88.921 -10.242 -10.242 -10.241 -10.241 -10.227
-10.227 -10.207 -10.206 -10.206 -10.206 -10.205 -10.205  -7.981
 -7.981  -7.981  -5.945  -5.945  -5.945  -5.941  -5.941  -5.941
 -5.938  -5.938  -5.937  -0.907  -0.893  -0.877  -0.788  -0.757
 -0.746  -0.745  -0.732  -0.698  -0.619  -0.598  -0.570  -0.560
 -0.536  -0.535  -0.530  -0.502  -0.462  -0.423  -0.422  -0.417
 -0.416  -0.409  -0.402  -0.397  -0.389  -0.379  -0.371  -0.362
 -0.350  -0.343  -0.299  -0.269  -0.263  -0.259  -0.250  -0.200
 -- Virtual --
 -0.073  -0.032  -0.008  -0.005  -0.000   0.007   0.007   0.009
  0.011   0.016   0.023   0.029   0.030   0.034   0.039   0.045
  0.047   0.051   0.054   0.056   0.060   0.068   0.069   0.080
  0.081   0.087   0.087   0.093   0.097   0.105   0.106   0.111
  0.112   0.118   0.123   0.123   0.126   0.127   0.130   0.133
  0.137   0.141   0.141   0.148   0.151   0.155   0.157   0.163
  0.166   0.170   0.171   0.176   0.180   0.185   0.189   0.192
  0.196   0.202   0.203   0.208   0.212   0.217   0.219   0.226
  0.230   0.236   0.237   0.241   0.245   0.260   0.263   0.266
  0.272   0.273   0.275   0.286   0.291   0.297   0.311   0.312
  0.324   0.325   0.344   0.347   0.357   0.360   0.366   0.370
  0.377   0.382   0.397   0.401   0.454   0.457   0.467   0.502
  0.506   0.512   0.521   0.527   0.571   0.575   0.578   0.588
  0.605   0.611   0.625   0.631   0.647   0.651   0.656   0.660
  0.661   0.667   0.676   0.686   0.702   0.714   0.714   0.717
  0.724   0.730   0.737   0.755   0.765   0.773   0.783   0.788
  0.819   0.822   0.828   0.834   0.836   0.853   0.869   0.885
  0.931   0.933   0.940   0.942   0.952   0.959   0.960   0.967
  0.973   0.982   0.984   0.990   0.996   1.004   1.028   1.030
  1.053   1.061   1.075   1.088   1.103   1.106   1.110   1.118
  1.152   1.158   1.168   1.180   1.189   1.213   1.240   1.252
  1.264   1.281   1.288   1.316   1.330   1.341   1.343   1.349
  1.360   1.361   1.369   1.452   1.474   1.485   1.495   1.499
  1.515   1.552   1.586   1.649   1.675   1.688   1.710   1.729
  1.799   1.832   1.862   1.869   1.895   1.899   1.907   1.916
  1.924   1.932   1.951   1.963   2.007   2.039   2.054   2.066
  2.074   2.104   2.115   2.165   2.169   2.181   2.189   2.203
  2.227   2.234   2.259   2.274   2.293   2.333   2.362   2.363
  2.418   2.439   2.443   2.447   2.467   2.470   2.479   2.499
  2.523   2.531   2.539   2.550   2.569   2.588   2.611   2.638
  2.667   2.688   2.704   2.716   2.723   2.831   2.867   2.885
  2.929   2.930   2.943   2.956   3.129   3.179   3.224   3.271
  3.271   3.326   3.414   3.416   3.671   3.729   3.740   3.972
  3.980   3.983   4.257   4.273   4.309   4.319   4.325   4.342
  4.387   4.478   4.550   4.651   4.696   4.730
 --------------------------------------------------------------
 
          Ground-State Mulliken Net Atomic Charges

     Atom                 Charge (a.u.)
  ----------------------------------------
      1 H                     0.195857
      2 H                     0.119519
      3 C                     0.007406
      4 C                    -0.350898
      5 S                    -0.071762
      6 C                     0.533957
      7 H                     0.133814
      8 C                    -0.355596
      9 H                     0.125704
     10 C                    -0.224931
     11 C                     0.119987
     12 S                    -0.390496
     13 C                    -0.052054
     14 H                     0.113259
     15 C                    -0.171658
     16 C                    -0.321822
     17 H                     0.121290
     18 C                     0.555536
     19 S                    -0.122965
     20 C                    -0.296245
     21 C                     0.010066
     22 H                     0.122463
     23 H                     0.199570
  ----------------------------------------
  Sum of atomic charges =     0.000000

 -----------------------------------------------------------------
                    Cartesian Multipole Moments
 -----------------------------------------------------------------
    Charge (ESU x 10^10)
                 0.0000
    Dipole Moment (Debye)
         X       0.0175      Y       0.5360      Z      -0.0938
       Tot       0.5445
    Quadrupole Moments (Debye-Ang)
        XX     -90.3965     XY      -0.0000     YY    -100.9784
        XZ      -0.1145     YZ       1.9814     ZZ    -116.3070
    Octopole Moments (Debye-Ang^2)
       XXX      -8.4784    XXY      18.3567    XYY      -2.2063
       YYY      14.1733    XXZ      14.0807    XYZ      -6.9152
       YYZ       7.2825    XZZ      -4.3232    YZZ       0.4517
       ZZZ      30.7711
    Hexadecapole Moments (Debye-Ang^3)
      XXXX   -6350.7971   XXXY      11.9620   XXYY   -1299.5942
      XYYY      14.7965   YYYY    -834.8697   XXXZ     -14.8907
      XXYZ      -0.7100   XYYZ     -30.3049   YYYZ     -34.5132
      XXZZ   -1395.4820   XYZZ       2.9805   YYZZ    -190.5176
      XZZZ     -54.2028   YZZZ     -53.2232   ZZZZ    -194.4329
 -----------------------------------------------------------------
 Calculating analytic gradient of the SCF energy
 Gradient of SCF Energy
            1           2           3           4           5           6
    1   0.0000003   0.0000003  -0.0000000  -0.0000053  -0.0000095   0.0000072
    2   0.0000008  -0.0000004  -0.0000110   0.0000017   0.0000062  -0.0000050
    3  -0.0000053  -0.0000017  -0.0000016  -0.0000041   0.0000293  -0.0000433
            7           8           9          10          11          12
    1  -0.0000015   0.0000071   0.0000011  -0.0000072  -0.0000071   0.0000125
    2  -0.0000007   0.0000176  -0.0000070  -0.0000184   0.0000125  -0.0000010
    3  -0.0000031   0.0000219   0.0000222   0.0000115  -0.0000843   0.0000551
           13          14          15          16          17          18
    1   0.0000014   0.0000037  -0.0000238   0.0000247  -0.0000061   0.0000015
    2  -0.0000126  -0.0000088   0.0000324   0.0000302   0.0000020  -0.0000321
    3   0.0000869   0.0000182  -0.0001166  -0.0001222   0.0000211   0.0000852
           19          20          21          22          23
    1  -0.0000114   0.0000016   0.0000027   0.0000043   0.0000036
    2  -0.0000264   0.0000153   0.0000207  -0.0000042  -0.0000117
    3   0.0000243  -0.0000355  -0.0000084   0.0000376   0.0000127
 Max gradient component =       1.222E-04
 RMS gradient           =       3.170E-05
 Gradient time:  CPU 4.56 s  wall 4.57 s
 Geometry Optimization Parameters
   NAtoms,    NIC,     NZ,  NCons,   NDum,   NFix, NCnnct, MaxDiis
       23     166       0       1       0       0       0       0

 Cartesian Hessian Update
 Hessian Updated using BFGS Update


** CONSTRAINED OPTIMIZATION IN DELOCALIZED INTERNAL COORDINATES **
   Searching for a Minimum

   Optimization Cycle:   5

                       Coordinates (Angstroms)
     ATOM                X               Y               Z
      1  H         6.2309888919   -0.2297397772    0.1940778117
      2  H         5.3027855945    2.2243470360   -0.0946348264
      3  C         5.1969286640    0.0707270175    0.0957680300
      4  C         4.6865958978    1.3334477181   -0.0541749536
      5  S         3.9425106688   -1.1273218673    0.1227353588
      6  C         3.2665052262    1.3468054240   -0.1636442739
      7  H         2.6841500860    2.2497928073   -0.3096461295
      8  C         2.6963077915    0.0907280353   -0.0942495971
      9  H         1.3320029379   -2.3889201689   -0.6904409953
     10  C         1.2982184139   -0.2819079850   -0.1753848968
     11  C         0.7383619571   -1.5101510175   -0.4643847116
     12  S         0.0370541810    0.9039163445    0.1172264889
     13  C        -0.6796235202   -1.5054264643   -0.4626107320
     14  H        -1.2772342791   -2.3845630136   -0.6768351763
     15  C        -1.2329312734   -0.2728546655   -0.1764386910
     16  C        -2.6288379183    0.1067537185   -0.0983055349
     17  H        -2.5798329550    2.2200805688    0.3975664511
     18  C        -3.1792815413    1.3409827717    0.1882807261
     19  S        -3.9026073372   -1.0697823370   -0.3803742312
     20  C        -4.6034898260    1.3456494256    0.1816927486
     21  C        -5.1377925023    0.1182705682   -0.1088748596
     22  H        -5.2041314988    2.2246946952    0.3854756107
     23  H        -6.1793375091   -0.1632226146   -0.1801773765
   Point Group: c1    Number of degrees of freedom:    63


   Energy is  -1656.664243224

              Constraints and their Current Values
                                        Value     Constraint
   Dihedral:       13  15  16  18     -180.000      180.000
 Hessian Updated using BFGS Update

 61 Hessian modes will be used to form the next step
  Hessian Eigenvalues:
     0.009756    0.035602    0.045000    0.045000    0.045000    0.045000
     0.045000    0.045001    0.045002    0.045002    0.045003    0.045004
     0.045009    0.045014    0.045015    0.045031    0.046175    0.058662
     0.158771    0.159915    0.159949    0.159978    0.159993    0.160000
     0.160114    0.160638    0.221315    0.221664    0.227968    0.237889
     0.241398    0.249581    0.249921    0.250021    0.251071    0.261608
     0.292967    0.293699    0.294652    0.294771    0.312587    0.312692
     0.354741    0.354744    0.354758    0.355047    0.355164    0.355238
     0.358374    0.358415    0.383316    0.385929    0.405854    0.407996
     0.416699    0.459579    0.462150    0.467762    0.485553    0.497286
     0.497945

 Minimum Search - Taking Simple RFO Step
 Searching for Lamda that Minimizes Along All modes
 Value Taken    Lamda =   0.00000000
 Step Taken.  Stepsize is  0.006558

                             Maximum     Tolerance    Cnvgd?
         Gradient           0.000056      0.000300     YES
         Displacement       0.002910      0.001200      NO
         Energy change     -0.000001      0.000001     YES

 Final energy is   -1656.66424322376     


 ******************************
 **  OPTIMIZATION CONVERGED  **
 ******************************

                       Coordinates (Angstroms)
     ATOM                X               Y               Z
      1  H         6.2309888919   -0.2297397772    0.1940778117
      2  H         5.3027855945    2.2243470360   -0.0946348264
      3  C         5.1969286640    0.0707270175    0.0957680300
      4  C         4.6865958978    1.3334477181   -0.0541749536
      5  S         3.9425106688   -1.1273218673    0.1227353588
      6  C         3.2665052262    1.3468054240   -0.1636442739
      7  H         2.6841500860    2.2497928073   -0.3096461295
      8  C         2.6963077915    0.0907280353   -0.0942495971
      9  H         1.3320029379   -2.3889201689   -0.6904409953
     10  C         1.2982184139   -0.2819079850   -0.1753848968
     11  C         0.7383619571   -1.5101510175   -0.4643847116
     12  S         0.0370541810    0.9039163445    0.1172264889
     13  C        -0.6796235202   -1.5054264643   -0.4626107320
     14  H        -1.2772342791   -2.3845630136   -0.6768351763
     15  C        -1.2329312734   -0.2728546655   -0.1764386910
     16  C        -2.6288379183    0.1067537185   -0.0983055349
     17  H        -2.5798329550    2.2200805688    0.3975664511
     18  C        -3.1792815413    1.3409827717    0.1882807261
     19  S        -3.9026073372   -1.0697823370   -0.3803742312
     20  C        -4.6034898260    1.3456494256    0.1816927486
     21  C        -5.1377925023    0.1182705682   -0.1088748596
     22  H        -5.2041314988    2.2246946952    0.3854756107
     23  H        -6.1793375091   -0.1632226146   -0.1801773765

Z-matrix Print:
$molecule
0 1
S 
C  1 1.755658
C  2 1.380413 1 110.152955
H  3 1.084318 2 122.867680 1 179.278835 0
C  3 1.417994 2 113.724704 1 0.431508 0
H  5 1.084395 3 123.240116 2 179.541301 0
C  5 1.381042 3 113.820678 2 0.192745 0
C  7 1.448711 5 129.129817 3 179.474115 0
C  8 1.381463 7 128.992592 5 -180.000000 0
H  9 1.084413 8 122.959535 7 0.179701 0
C  9 1.424231 8 113.603878 7 -179.831836 0
H  11 1.083983 9 123.771691 8 179.950781 0
C  11 1.369806 9 112.836096 8 0.011628 0
H  13 1.081267 11 128.534350 9 179.980572 0
C  2 1.449170 1 120.664667 3 -179.878309 0
C  15 1.381185 2 128.999498 1 -19.463552 0
H  16 1.084362 15 122.844520 2 -0.872627 0
C  16 1.424366 15 113.528361 2 -179.594409 0
H  18 1.083987 16 123.790986 15 179.533508 0
C  18 1.370177 16 112.854507 15 0.109480 0
H  20 1.081307 18 128.477978 16 179.531696 0
S  20 1.734824 18 111.642422 16 -0.610199 0
S  13 1.735184 11 111.655357 9 0.010601 0
$end

 
 --------------------------------------------------------------
 
                    Orbital Energies (a.u.)
 --------------------------------------------------------------
 
 Alpha MOs
 -- Occupied --
-88.921 -88.921 -88.921 -10.242 -10.242 -10.241 -10.241 -10.227
-10.227 -10.207 -10.206 -10.206 -10.206 -10.205 -10.205  -7.981
 -7.981  -7.981  -5.945  -5.945  -5.945  -5.941  -5.941  -5.941
 -5.938  -5.938  -5.937  -0.907  -0.893  -0.877  -0.788  -0.757
 -0.746  -0.745  -0.732  -0.698  -0.619  -0.598  -0.570  -0.560
 -0.536  -0.535  -0.530  -0.502  -0.462  -0.423  -0.422  -0.417
 -0.416  -0.409  -0.402  -0.397  -0.389  -0.379  -0.371  -0.362
 -0.350  -0.343  -0.299  -0.269  -0.263  -0.259  -0.250  -0.200
 -- Virtual --
 -0.073  -0.032  -0.008  -0.005  -0.000   0.007   0.007   0.009
  0.011   0.016   0.023   0.029   0.030   0.034   0.039   0.045
  0.047   0.051   0.054   0.056   0.060   0.068   0.069   0.080
  0.081   0.087   0.087   0.093   0.097   0.105   0.106   0.111
  0.112   0.118   0.123   0.123   0.126   0.127   0.130   0.133
  0.137   0.141   0.141   0.148   0.151   0.155   0.157   0.163
  0.166   0.170   0.171   0.176   0.180   0.185   0.189   0.192
  0.196   0.202   0.203   0.208   0.212   0.217   0.219   0.226
  0.230   0.236   0.237   0.241   0.245   0.260   0.263   0.266
  0.272   0.273   0.275   0.286   0.291   0.297   0.311   0.312
  0.324   0.325   0.344   0.347   0.357   0.360   0.366   0.370
  0.377   0.382   0.397   0.401   0.454   0.457   0.467   0.502
  0.506   0.512   0.521   0.527   0.571   0.575   0.578   0.588
  0.605   0.611   0.625   0.631   0.647   0.651   0.656   0.660
  0.661   0.667   0.676   0.686   0.702   0.714   0.714   0.717
  0.724   0.730   0.737   0.755   0.765   0.773   0.783   0.788
  0.819   0.822   0.828   0.834   0.836   0.853   0.869   0.885
  0.931   0.933   0.940   0.942   0.952   0.959   0.960   0.967
  0.973   0.982   0.984   0.990   0.996   1.004   1.028   1.030
  1.053   1.061   1.075   1.088   1.103   1.106   1.110   1.118
  1.152   1.158   1.168   1.180   1.189   1.213   1.240   1.252
  1.264   1.281   1.288   1.316   1.330   1.341   1.343   1.349
  1.360   1.361   1.369   1.452   1.474   1.485   1.495   1.499
  1.515   1.552   1.586   1.649   1.675   1.688   1.710   1.729
  1.799   1.832   1.862   1.869   1.895   1.899   1.907   1.916
  1.924   1.932   1.951   1.963   2.007   2.039   2.054   2.066
  2.074   2.104   2.115   2.165   2.169   2.181   2.189   2.203
  2.227   2.234   2.259   2.274   2.293   2.333   2.362   2.363
  2.418   2.439   2.443   2.447   2.467   2.470   2.479   2.499
  2.523   2.531   2.539   2.550   2.569   2.588   2.611   2.638
  2.667   2.688   2.704   2.716   2.723   2.831   2.867   2.885
  2.929   2.930   2.943   2.956   3.129   3.179   3.224   3.271
  3.271   3.326   3.414   3.416   3.671   3.729   3.740   3.972
  3.980   3.983   4.257   4.273   4.309   4.319   4.325   4.342
  4.387   4.478   4.550   4.651   4.696   4.730
 --------------------------------------------------------------
 
          Ground-State Mulliken Net Atomic Charges

     Atom                 Charge (a.u.)
  ----------------------------------------
      1 H                     0.195857
      2 H                     0.119519
      3 C                     0.007406
      4 C                    -0.350898
      5 S                    -0.071762
      6 C                     0.533957
      7 H                     0.133814
      8 C                    -0.355596
      9 H                     0.125704
     10 C                    -0.224931
     11 C                     0.119987
     12 S                    -0.390496
     13 C                    -0.052054
     14 H                     0.113259
     15 C                    -0.171658
     16 C                    -0.321822
     17 H                     0.121290
     18 C                     0.555536
     19 S                    -0.122965
     20 C                    -0.296245
     21 C                     0.010066
     22 H                     0.122463
     23 H                     0.199570
  ----------------------------------------
  Sum of atomic charges =     0.000000

 -----------------------------------------------------------------
                    Cartesian Multipole Moments
 -----------------------------------------------------------------
    Charge (ESU x 10^10)
                 0.0000
    Dipole Moment (Debye)
         X       0.0175      Y       0.5360      Z      -0.0938
       Tot       0.5445
    Quadrupole Moments (Debye-Ang)
        XX     -90.3965     XY      -0.0000     YY    -100.9784
        XZ      -0.1145     YZ       1.9814     ZZ    -116.3070
    Octopole Moments (Debye-Ang^2)
       XXX      -8.4784    XXY      18.3567    XYY      -2.2063
       YYY      14.1733    XXZ      14.0807    XYZ      -6.9152
       YYZ       7.2825    XZZ      -4.3232    YZZ       0.4517
       ZZZ      30.7711
    Hexadecapole Moments (Debye-Ang^3)
      XXXX   -6350.7971   XXXY      11.9620   XXYY   -1299.5942
      XYYY      14.7965   YYYY    -834.8697   XXXZ     -14.8907
      XXYZ      -0.7100   XYYZ     -30.3049   YYYZ     -34.5132
      XXZZ   -1395.4820   XYZZ       2.9805   YYZZ    -190.5176
      XZZZ     -54.2028   YZZZ     -53.2232   ZZZZ    -194.4329
 -----------------------------------------------------------------
Archival summary:
1\1\nid00554\OPT\ProcedureUnspecified\BasisUnspecified\3128\bwood\TueMay3010:54:032017TueMay3010:54:032017\0\\#,OPT,ProcedureUnspecified,BasisUnspecified,\\0,1\S\C,1,1.75566\C,2,1.38041,1,110.153\H,3,1.08432,2,122.868,1,179.279,0\C,3,1.41799,2,113.725,1,0.431508,0\H,5,1.08439,3,123.24,2,179.541,0\C,5,1.38104,3,113.821,2,0.192745,0\C,7,1.44871,5,129.13,3,179.474,0\C,8,1.38146,7,128.993,5,-180,0\H,9,1.08441,8,122.96,7,0.179701,0\C,9,1.42423,8,113.604,7,-179.832,0\H,11,1.08398,9,123.772,8,179.951,0\C,11,1.36981,9,112.836,8,0.0116275,0\H,13,1.08127,11,128.534,9,179.981,0\C,2,1.44917,1,120.665,3,-179.878,0\C,15,1.38118,2,128.999,1,-19.4636,0\H,16,1.08436,15,122.845,2,-0.872627,0\C,16,1.42437,15,113.528,2,-179.594,0\H,18,1.08399,16,123.791,15,179.534,0\C,18,1.37018,16,112.855,15,0.10948,0\H,20,1.08131,18,128.478,16,179.532,0\S,20,1.73482,18,111.642,16,-0.610199,0\S,13,1.73518,11,111.655,9,0.0106008,0\\\@

 Total job time:  79.41s(wall), 84.17s(cpu) 
 Tue May 30 10:54:03 2017

        *************************************************************
        *                                                           *
        *  Thank you very much for using Q-Chem.  Have a nice day.  *
        *                                                           *
        *************************************************************


0 sent ACK to 0 
now end server 0 ... 
