srun -N 1 --ntasks-per-node 22 --cpus-per-task 2 --cpu_bind=cores --nodelist nid00549 /global/project/projectdirs/jcesr/qchem/qc44/cnl_qc441/dist/exe/qcprog.cori.haswell.exe .pt_nn_neutral_170.0.in.37193.qcin.1 /dev/shm/eg_qchem/qchem37193/
Process 2 of 22 is on nid00549 - thread support 0
Process 3 of 22 is on nid00549 - thread support 0
Process 4 of 22 is on nid00549 - thread support 0
Process 5 of 22 is on nid00549 - thread support 0
Process 6 of 22 is on nid00549 - thread support 0
Process 21 of 22 is on nid00549 - thread support 0
Process 0 of 22 is on nid00549 - thread support 0
Process 1 of 22 is on nid00549 - thread support 0
initial socket setup ...start
initial socket setup ...done 
now start server 0 ... 
nid00549 10.128.2
Q-Chem Developer Version! Running on 10.128.2.*
                  Welcome to Q-Chem
     A Quantum Leap Into The Future Of Chemistry


 Q-Chem 4.4, Q-Chem, Inc., Pleasanton, CA (2016)

 Y. Shao,  Z. Gan,  E. Epifanovsky,  A. T. B. Gilbert,  M. Wormit,  
 J. Kussmann,  A. W. Lange,  A. Behn,  J. Deng,  X. Feng,  D. Ghosh,  
 M. Goldey,  P. R. Horn,  L. D. Jacobson,  I. Kaliman,  F. Rob,  
 R. Z. Khaliullin,  T. Kus,  A. Landau,  J. Liu,  E. I. Proynov,  Y. M. Rhee,  
 R. M. Richard,  M. A. Rohrdanz,  R. P. Steele,  E. J. Sundstrom,  
 H. L. Woodcock III,  P. M. Zimmerman,  D. Zuev,  B. Albrecht,  E. Alguire,  
 B. Austin,  S. A. Baeppler,  G. J. O. Beran,  Y. A. Bernard,  
 E. J. Berquist,  K. Brandhorst,  K. B. Bravaya,  S. T. Brown,  D. Casanova,  
 C.-M. Chang,  Y. Chen,  S. H. Chien,  K. D. Closser,  M. P. Coons,  
 D. L. Crittenden,  S. Dasgupta,  M. Diedenhofen,  R. A. DiStasio Jr.,  
 H. Do,  A. D. Dutoi,  R. G. Edgar,  P.-T. Fang,  S. Fatehi,  Q. Feng,  
 L. Fusti-Molnar,  A. Ghysels,  A. Golubeva-Zadorozhnaya,  J. Gomes,  
 A. Gunina,  M. W. D. Hanson-Heine,  P. H. P. Harbach,  A. W. Hauser,  
 J. E. Herr,  E. G. Hohenstein,  Z. C. Holden,  K. Hui,  T.-C. Jagau,  H. Ji,  
 B. Kaduk,  K. Khistyaev,  Jaehoon Kim,  Jihan Kim,  R. A. King,  
 P. Klunzinger,  K. Koh,  D. Kosenkov,  T. Kowalczyk,  C. M. Krauter,  
 A. Kunitsa,  K. U. Lao,  A. Laurent,  K. V. Lawler,  J. Lee,  D. Lefrancois,  
 S. Lehtola,  S. V. Levchenko,  C. Y. Lin,  Y.-S. Lin,  F. Liu,  E. Livshits,  
 R. C. Lochan,  A. Luenser,  P. Manohar,  S. F. Manzer,  S.-P. Mao,  Y. Mao,  
 N. Mardirossian,  A. V. Marenich,  L. A. Martinez-Martinez,  S. A. Maurer,  
 N. J. Mayhall,  J.-M. Mewes,  A. F. Morrison,  K. Nanda,  T. S. Nguyen-Beck,  
 C. M. Oana,  R. Olivares-Amaya,  D. P. O'Neill,  J. A. Parkhill,  
 T. M. Perrine,  R. Peverati,  P. A. Pieniazek,  F. Plasser,  A. Prociuk,  
 D. R. Rehn,  E. Rosta,  N. J. Russ,  N. Sergueev,  S. M. Sharada,  
 S. Sharma,  D. W. Small,  A. Sodt,  T. Stauch,  T. Stein,  D. Stuck,  
 Y.-C. Su,  A. J. W. Thom,  T. Tsuchimochi,  L. Vogt,  O. Vydrov,  T. Wang,  
 M. A. Watson,  J. Wenzel,  A. White,  C. F. Williams,  V. Vanovschi,  
 K. Yao,  S. Yeganeh,  S. R. Yost,  Z.-Q. You,  I. Y. Zhang,  X. Zhang,  
 Y. Zhao,  B. R. Brooks,  G. K. L. Chan,  D. M. Chipman,  C. J. Cramer,  
 W. A. Goddard III,  M. S. Gordon,  W. J. Hehre,  A. Klamt,  
 H. F. Schaefer III,  M. W. Schmidt,  C. D. Sherrill,  D. G. Truhlar,  
 A. Warshel,  X. Xu,  A. Aspuru-Guzik,  R. Baer,  A. T. Bell,  N. A. Besley,  
 J.-D. Chai,  A. Dreuw,  B. D. Dunietz,  T. R. Furlani,  S. R. Gwaltney,  
 C.-P. Hsu,  Y. Jung,  J. Kong,  D. S. Lambrecht,  W. Liang,  C. Ochsenfeld,  
 V. A. Rassolov,  L. V. Slipchenko,  J. E. Subotnik,  T. Van Voorhis,  
 J. M. Herbert,  A. I. Krylov,  P. M. W. Gill,  M. Head-Gordon

 Contributors to earlier versions of Q-Chem not listed above: 
 R. D. Adamson,  J. Baker,  E. F. C. Byrd,  A. K. Chakraborty,  C.-L. Cheng,  
 H. Dachsel,  R. J. Doerksen,  G. Hawkins,  A. Heyden,  S. Hirata,  
 G. Kedziora,  F. J. Keil,  C. Kelley,  P. P. Korambath,  W. Kurlancheek,  
 A. M. Lee,  M. S. Lee,  D. Liotard,  I. Lotan,  P. E. Maslen,  N. Nair,  
 D. Neuhauser,  R. Olson,  B. Peters,  J. Ritchie,  N. E. Schultz,  
 N. Shenvi,  A. C. Simmonett,  K. S. Thanthiriwatte,  Q. Wu,  W. Zhang

 Please cite Q-Chem as follows:
 Y. Shao et al., Mol. Phys. 113, 184-215 (2015)
 DOI: 10.1080/00268976.2014.952696

 Q-Chem 4.4.2 for Intel X86 EM64T Linux

 Parts of Q-Chem use Armadillo 5.200.1 (Boston Tea Smuggler).
 http://arma.sourceforge.net/

 Q-Chem begins on Tue May 30 10:52:42 2017  

Host: nid00478
0

     Scratch files written to /dev/shm/eg_qchem/qchem37193.0//
 Parallel job on  22  processors

Checking the input file for inconsistencies... 	...done.

--------------------------------------------------------------
User input:
--------------------------------------------------------------
$molecule
 0  1
 H           6.23254100       -0.22338900        0.17638100
 H           5.29752400        2.22850500       -0.10953100
 C           5.19733500        0.07486000        0.08356300
 C           4.68347900        1.33634400       -0.06443600
 S           3.94559900       -1.12581000        0.11905200
 C           3.26267300        1.34659400       -0.16511200
 H           2.67740100        2.24810800       -0.30841700
 C           2.69562400        0.08941900       -0.09094600
 H           1.33241900       -2.39005500       -0.68762600
 C           1.29739300       -0.28590200       -0.16150800
 C           0.73808300       -1.51455700       -0.45078400
 S           0.03601800        0.89451200        0.14982500
 C          -0.68041100       -1.51067300       -0.44936800
 H          -1.28012400       -2.38277100       -0.68510300
 C          -1.23220500       -0.27900200       -0.15852500
 C          -2.62830100        0.10383400       -0.08465000
 H          -2.58686597        2.10176879        0.76035149
 C          -3.18365091        1.27829969        0.38410906
 S          -3.89171986       -0.98564970       -0.63229841
 C          -4.60503803        1.30975308        0.29645584
 C          -5.13057645        0.16336170       -0.23916489
 H          -5.20991854        2.15289071        0.60995263
 H          -6.16803903       -0.07829241       -0.42488497
$end


$rem
         jobtype = opt
        exchange = b3lyp
           basis = 6-31++g**
  max_scf_cycles = 150
      mem_static = 281
       mem_total = 2818
      sym_ignore = true
        symmetry = false
          thresh = 12
$end


$opt
CONSTRAINT
tors 13 15 16 18 170.0
ENDCONSTRAINT
$end

--------------------------------------------------------------
 ----------------------------------------------------------------
             Standard Nuclear Orientation (Angstroms)
    I     Atom           X                Y                Z
 ----------------------------------------------------------------
    1      H       6.2325410000    -0.2233890000     0.1763810000
    2      H       5.2975240000     2.2285050000    -0.1095310000
    3      C       5.1973350000     0.0748600000     0.0835630000
    4      C       4.6834790000     1.3363440000    -0.0644360000
    5      S       3.9455990000    -1.1258100000     0.1190520000
    6      C       3.2626730000     1.3465940000    -0.1651120000
    7      H       2.6774010000     2.2481080000    -0.3084170000
    8      C       2.6956240000     0.0894190000    -0.0909460000
    9      H       1.3324190000    -2.3900550000    -0.6876260000
   10      C       1.2973930000    -0.2859020000    -0.1615080000
   11      C       0.7380830000    -1.5145570000    -0.4507840000
   12      S       0.0360180000     0.8945120000     0.1498250000
   13      C      -0.6804110000    -1.5106730000    -0.4493680000
   14      H      -1.2801240000    -2.3827710000    -0.6851030000
   15      C      -1.2322050000    -0.2790020000    -0.1585250000
   16      C      -2.6283010000     0.1038340000    -0.0846500000
   17      H      -2.5868659700     2.1017687900     0.7603514900
   18      C      -3.1836509100     1.2782996900     0.3841090600
   19      S      -3.8917198600    -0.9856497000    -0.6322984100
   20      C      -4.6050380300     1.3097530800     0.2964558400
   21      C      -5.1305764500     0.1633617000    -0.2391648900
   22      H      -5.2099185400     2.1528907100     0.6099526300
   23      H      -6.1680390300    -0.0782924100    -0.4248849700
 ----------------------------------------------------------------
 Nuclear Repulsion Energy =  1173.2176667101 hartrees
 There are       64 alpha and       64 beta electrons
 Requested basis set is 6-31++G(d,p)
 There are 110 shells and 345 basis functions

 Total QAlloc Memory Limit   2818 MB
 Mega-Array Size       275 MB
 MEM_STATIC part       281 MB
 A cutoff of  1.0D-12 yielded   4684 shell pairs
 There are     47622 function pairs

 Q-Chem warning in module /project/projectdirs/jcesr/qchem/qc44/cnl_qc441/compile/cori/qc_src/libqints/qchem/aobasis.C, line 68:

 Using reconstructed effective core potential

 
 -------------------------------------------------------
 OpenMP Integral Computing Module                       
 Release: version 1.0, May 2013, Q-Chem Inc. Pittsburgh 
 -------------------------------------------------------
 Integral Job Info:
 Integral job number is                      11
 Integral operator is                         1
 short-range coefficients                     0
 long-range coefficients              100000000
 Omega coefficients                           0
 if combine SR and LR in K                    0
 Integral screening is                        0
 Integral computing path is                   2
 max size of driver memory is            800000
 size of driver memory is                593474
 size of scratch memory is             15166112
 max col of scratch BK array               1296
 max len of scratch array in speh3          155
 max len of scratch index in speh4           18
 max int batch size is                      520
 min int batch size is                       52
 fixed nKL is                                52
 max L of basis functions is                  2
 order of int derivative is                   0
 number of shells is                        110
 number of basis is                         345
 number of cartesian basis is               345
 number of contracted shell pairs          4684
 number of primitive shell pairs          14649
 maxK2 (contraction) of shell pair           36
 max number of K2 of shell pair               1
 max number of CS2 of shell pair            518
 max number of PS2 of shell pair           3036
 mem total for path MDJ                  101496
 -------------------------------------------------------
 Smallest overlap matrix eigenvalue = 6.50E-08
 Linear dependence detected in AO basis
 Number of orthogonalized atomic orbitals = 342
 Maximum deviation from orthogonality = 2.672E-11

 Scale SEOQF with 1.000000e-02/1.000000e-01/1.000000e-01

 Standard Electronic Orientation quadrupole field applied
 Nucleus-field energy     =     0.0000000144 hartrees
 Guess from superposition of atomic densities
 Warning:  Energy on first SCF cycle will be non-variational
 A restricted hybrid HF-DFT SCF calculation will be
 performed using Pulay DIIS extrapolation
 Exchange:     0.2000 Hartree-Fock + 0.0800 Slater + 0.7200 B88
 Correlation:  0.1900 VWN1RPA + 0.8100 LYP
 Using SG-1 standard quadrature grid
 SCF converges when DIIS error is below 1.0E-08
 ---------------------------------------
  Cycle       Energy         DIIS Error
 ---------------------------------------
    1   -1660.3049557076      3.69E-02
    2   -1656.4161737394      3.87E-03
    3   -1656.0876435114      5.80E-03
    4   -1656.6454061807      1.05E-03
    5   -1656.6587010750      5.73E-04
    6   -1656.6636521881      1.63E-04
    7   -1656.6640365455      6.87E-05
    8   -1656.6641069152      1.44E-05
    9   -1656.6641098167      5.42E-06
   10   -1656.6641102841      1.79E-06
   11   -1656.6641103388      4.06E-07
   12   -1656.6641103408      2.53E-07
   13   -1656.6641103408      7.51E-08
   14   -1656.6641103411      1.91E-08
   15   -1656.6641103415      4.36E-09 Convergence criterion met
 ---------------------------------------
 SCF time:  CPU 15.92 s  wall 15.15 s
 SCF   energy in the final basis set = -1656.6641103415
 Total energy in the final basis set = -1656.6641103415
 
 --------------------------------------------------------------
 
                    Orbital Energies (a.u.)
 --------------------------------------------------------------
 
 Alpha MOs
 -- Occupied --
-88.921 -88.921 -88.921 -10.242 -10.242 -10.241 -10.241 -10.227
-10.227 -10.207 -10.206 -10.206 -10.206 -10.205 -10.205  -7.981
 -7.981  -7.981  -5.945  -5.945  -5.945  -5.941  -5.941  -5.941
 -5.938  -5.938  -5.937  -0.907  -0.893  -0.877  -0.788  -0.757
 -0.746  -0.745  -0.732  -0.698  -0.618  -0.598  -0.570  -0.560
 -0.536  -0.535  -0.530  -0.502  -0.462  -0.423  -0.422  -0.417
 -0.416  -0.409  -0.402  -0.398  -0.388  -0.379  -0.371  -0.362
 -0.350  -0.343  -0.299  -0.268  -0.263  -0.260  -0.249  -0.200
 -- Virtual --
 -0.073  -0.032  -0.008  -0.005   0.000   0.007   0.008   0.008
  0.011   0.016   0.024   0.029   0.030   0.033   0.040   0.044
  0.047   0.051   0.054   0.055   0.061   0.065   0.071   0.079
  0.082   0.087   0.088   0.092   0.098   0.105   0.108   0.111
  0.113   0.119   0.121   0.124   0.126   0.126   0.129   0.133
  0.137   0.141   0.144   0.148   0.150   0.154   0.157   0.165
  0.166   0.171   0.171   0.176   0.181   0.183   0.185   0.192
  0.195   0.201   0.204   0.207   0.214   0.218   0.219   0.225
  0.227   0.237   0.238   0.241   0.245   0.252   0.266   0.268
  0.271   0.276   0.279   0.285   0.288   0.293   0.307   0.309
  0.322   0.325   0.342   0.343   0.354   0.361   0.364   0.366
  0.373   0.382   0.395   0.399   0.453   0.456   0.465   0.501
  0.508   0.514   0.520   0.526   0.568   0.570   0.577   0.584
  0.603   0.606   0.624   0.627   0.649   0.651   0.655   0.661
  0.662   0.664   0.678   0.688   0.699   0.713   0.715   0.718
  0.725   0.731   0.739   0.757   0.762   0.780   0.783   0.788
  0.819   0.822   0.828   0.834   0.837   0.852   0.869   0.886
  0.930   0.933   0.938   0.944   0.953   0.959   0.960   0.966
  0.972   0.982   0.984   0.988   0.996   1.003   1.028   1.030
  1.052   1.055   1.075   1.086   1.100   1.105   1.111   1.114
  1.151   1.157   1.165   1.176   1.186   1.208   1.236   1.249
  1.267   1.273   1.286   1.312   1.331   1.342   1.345   1.349
  1.361   1.361   1.373   1.448   1.471   1.489   1.495   1.498
  1.515   1.550   1.585   1.643   1.677   1.688   1.709   1.733
  1.797   1.833   1.863   1.867   1.893   1.895   1.909   1.913
  1.925   1.929   1.957   1.963   2.008   2.037   2.060   2.065
  2.074   2.103   2.113   2.162   2.171   2.181   2.193   2.202
  2.225   2.233   2.256   2.277   2.290   2.332   2.363   2.363
  2.417   2.439   2.444   2.445   2.466   2.471   2.478   2.499
  2.523   2.534   2.537   2.544   2.572   2.588   2.610   2.636
  2.668   2.686   2.705   2.714   2.723   2.830   2.867   2.883
  2.924   2.928   2.942   2.954   3.129   3.179   3.222   3.271
  3.271   3.326   3.414   3.415   3.670   3.729   3.739   3.972
  3.980   3.982   4.256   4.270   4.308   4.319   4.323   4.337
  4.387   4.480   4.550   4.648   4.697   4.729
 --------------------------------------------------------------
 
          Ground-State Mulliken Net Atomic Charges

     Atom                 Charge (a.u.)
  ----------------------------------------
      1 H                     0.196489
      2 H                     0.119654
      3 C                     0.013173
      4 C                    -0.313865
      5 S                    -0.096446
      6 C                     0.610472
      7 H                     0.135629
      8 C                    -0.423829
      9 H                     0.127331
     10 C                    -0.226041
     11 C                     0.133915
     12 S                    -0.412726
     13 C                     0.026305
     14 H                     0.117285
     15 C                    -0.225457
     16 C                    -0.402737
     17 H                     0.124226
     18 C                     0.584473
     19 S                    -0.129029
     20 C                    -0.288811
     21 C                     0.010277
     22 H                     0.121282
     23 H                     0.198430
  ----------------------------------------
  Sum of atomic charges =     0.000000

 -----------------------------------------------------------------
                    Cartesian Multipole Moments
 -----------------------------------------------------------------
    Charge (ESU x 10^10)
                 0.0000
    Dipole Moment (Debye)
         X       0.0140      Y       0.5290      Z      -0.0578
       Tot       0.5324
    Quadrupole Moments (Debye-Ang)
        XX     -90.4220     XY      -0.0839     YY    -101.5220
        XZ       0.0641     YZ       2.7411     ZZ    -115.7397
    Octopole Moments (Debye-Ang^2)
       XXX      -8.4026    XXY      19.2847    XYY      -0.2979
       YYY      11.0889    XXZ      11.4546    XYZ      -9.8062
       YYZ       9.9439    XZZ      -6.8895    YZZ       0.6213
       ZZZ      35.2233
    Hexadecapole Moments (Debye-Ang^3)
      XXXX   -6347.1539   XXXY      10.3361   XXYY   -1303.8832
      XYYY      30.5465   YYYY    -816.4650   XXXZ     -13.3007
      XXYZ       6.7770   XYYZ     -43.9730   YYYZ     -47.9372
      XXZZ   -1386.4010   XYZZ       4.4079   YYZZ    -187.8464
      XZZZ     -80.5175   YZZZ     -69.6603   ZZZZ    -224.8927
 -----------------------------------------------------------------
 Calculating analytic gradient of the SCF energy
 Gradient of SCF Energy
            1           2           3           4           5           6
    1  -0.0000157   0.0000036   0.0000153  -0.0000020  -0.0000824   0.0000436
    2  -0.0000035   0.0000003   0.0000444  -0.0000185   0.0000098  -0.0000027
    3   0.0000574  -0.0000025  -0.0000051  -0.0000188  -0.0000342  -0.0000243
            7           8           9          10          11          12
    1   0.0000012   0.0001128   0.0000196  -0.0001034   0.0000327  -0.0002785
    2  -0.0000078   0.0001120   0.0000060   0.0005091  -0.0001881  -0.0003070
    3  -0.0000023  -0.0003867  -0.0000686  -0.0010424   0.0010971   0.0009943
           13          14          15          16          17          18
    1  -0.0003088  -0.0001528   0.0007049  -0.0005531   0.0002667   0.0000242
    2  -0.0005761   0.0003335  -0.0000504   0.0006445   0.0002456  -0.0004841
    3   0.0015192  -0.0009150  -0.0013107  -0.0009786  -0.0009757   0.0016974
           19          20          21          22          23
    1   0.0001916  -0.0000535   0.0001494  -0.0000212   0.0000059
    2  -0.0002393  -0.0004254   0.0001452   0.0000324   0.0002199
    3   0.0010979   0.0010103  -0.0012765  -0.0000652  -0.0003673
 Max gradient component =       1.697E-03
 RMS gradient           =       5.400E-04
 Gradient time:  CPU 4.60 s  wall 4.60 s
 Geometry Optimization Parameters
   NAtoms,    NIC,     NZ,  NCons,   NDum,   NFix, NCnnct, MaxDiis
       23     166       0       1       0       0       0       0


** CONSTRAINED OPTIMIZATION IN DELOCALIZED INTERNAL COORDINATES **
   Searching for a Minimum

   Optimization Cycle:   1

                       Coordinates (Angstroms)
     ATOM                X               Y               Z
      1  H         6.2325410000   -0.2233890000    0.1763810000
      2  H         5.2975240000    2.2285050000   -0.1095310000
      3  C         5.1973350000    0.0748600000    0.0835630000
      4  C         4.6834790000    1.3363440000   -0.0644360000
      5  S         3.9455990000   -1.1258100000    0.1190520000
      6  C         3.2626730000    1.3465940000   -0.1651120000
      7  H         2.6774010000    2.2481080000   -0.3084170000
      8  C         2.6956240000    0.0894190000   -0.0909460000
      9  H         1.3324190000   -2.3900550000   -0.6876260000
     10  C         1.2973930000   -0.2859020000   -0.1615080000
     11  C         0.7380830000   -1.5145570000   -0.4507840000
     12  S         0.0360180000    0.8945120000    0.1498250000
     13  C        -0.6804110000   -1.5106730000   -0.4493680000
     14  H        -1.2801240000   -2.3827710000   -0.6851030000
     15  C        -1.2322050000   -0.2790020000   -0.1585250000
     16  C        -2.6283010000    0.1038340000   -0.0846500000
     17  H        -2.5868659700    2.1017687900    0.7603514900
     18  C        -3.1836509100    1.2782996900    0.3841090600
     19  S        -3.8917198600   -0.9856497000   -0.6322984100
     20  C        -4.6050380300    1.3097530800    0.2964558400
     21  C        -5.1305764500    0.1633617000   -0.2391648900
     22  H        -5.2099185400    2.1528907100    0.6099526300
     23  H        -6.1680390300   -0.0782924100   -0.4248849700
   Point Group: c1    Number of degrees of freedom:    63


   Energy is  -1656.664110342

              Constraints and their Current Values
                                        Value     Constraint
   Dihedral:       13  15  16  18      170.000      170.000

 Attempting to Generate Delocalized Internal Coordinates

 62 Hessian modes will be used to form the next step
  Hessian Eigenvalues:
     0.045000    0.045000    0.045000    0.045000    0.045000    0.045000
     0.045000    0.045000    0.045000    0.045001    0.045002    0.045002
     0.045003    0.045003    0.045009    0.045010    0.045011    0.045018
     0.045019    0.159886    0.159939    0.159955    0.159957    0.159992
     0.159993    0.160000    0.160000    0.221281    0.221281    0.226855
     0.237826    0.237826    0.245311    0.249998    0.249998    0.250000
     0.250000    0.293636    0.293684    0.294746    0.294936    0.312571
     0.312615    0.354732    0.354740    0.354742    0.354756    0.355161
     0.355164    0.358372    0.358373    0.383080    0.383176    0.405793
     0.405832    0.413732    0.458107    0.461989    0.461995    0.485493
     0.497291    0.497294

 Minimum Search - Taking Simple RFO Step
 Searching for Lamda that Minimizes Along All modes
 Value Taken    Lamda =  -0.00016079
 Step Taken.  Stepsize is  0.058698

                             Maximum     Tolerance    Cnvgd?
         Gradient           0.001345      0.000300      NO
         Displacement       0.029986      0.001200      NO
         Energy change     *********      0.000001      NO


 New Cartesian Coordinates Obtained by Inverse Iteration

 Displacement from previous Coordinates is:  0.169390
 ----------------------------------------------------------------
             Standard Nuclear Orientation (Angstroms)
    I     Atom           X                Y                Z
 ----------------------------------------------------------------
    1      H       6.2309034572    -0.2294291481     0.2022107598
    2      H       5.3034103473     2.2234562377    -0.0989320776
    3      C       5.1970222367     0.0707030022     0.1009315913
    4      C       4.6870750532     1.3328065256    -0.0552906007
    5      S       3.9424062710    -1.1270619865     0.1314453780
    6      C       3.2671327051     1.3457998007    -0.1672720477
    7      H       2.6850535567     2.2480660795    -0.3187030486
    8      C       2.6967533836     0.0901278808    -0.0934000985
    9      H       1.3319480215    -2.3876845872    -0.6944092189
   10      C       1.2983715296    -0.2818755970    -0.1751665132
   11      C       0.7382802405    -1.5094431341    -0.4663544564
   12      S       0.0373997401     0.9041961997     0.1169991856
   13      C      -0.6800296889    -1.5044800712    -0.4639760436
   14      H      -1.2789922766    -2.3807696644    -0.6855439209
   15      C      -1.2325445218    -0.2720933704    -0.1760920878
   16      C      -2.6289447728     0.1082502990    -0.0962798851
   17      H      -2.5894642614     2.1090769348     0.7444382191
   18      C      -3.1848179797     1.2838910324     0.3696713468
   19      S      -3.8944060370    -0.9857064876    -0.6321926328
   20      C      -4.6071994063     1.3087289338     0.2992260464
   21      C      -5.1345490359     0.1539042358    -0.2154586965
   22      H      -5.2120651174     2.1490586937     0.6201081614
   23      H      -6.1735042347    -0.0973729492    -0.3786236100
 ----------------------------------------------------------------
 Nuclear Repulsion Energy =  1173.0309320127 hartrees
 There are       64 alpha and       64 beta electrons
 Applying Cartesian multipole field
    Component          Value
    ---------          -----
     (2,0,0)        1.00000E-12
     (0,2,0)        2.00000E-11
     (0,0,2)       -3.00000E-11
 Nucleus-field energy     =     0.0000000144 hartrees
 Requested basis set is 6-31++G(d,p)
 There are 110 shells and 345 basis functions
 A cutoff of  1.0D-12 yielded   4683 shell pairs
 There are     47616 function pairs

 Q-Chem warning in module /project/projectdirs/jcesr/qchem/qc44/cnl_qc441/compile/cori/qc_src/libqints/qchem/aobasis.C, line 68:

 Using reconstructed effective core potential

 Smallest overlap matrix eigenvalue = 6.57E-08
 Linear dependence detected in AO basis
 Number of orthogonalized atomic orbitals = 342
 Maximum deviation from orthogonality = 5.170E-11
 Guess MOs from SCF MO coefficient file
 Reading MOs from coefficient file
 Reading MOs from coefficient file
 A restricted hybrid HF-DFT SCF calculation will be
 performed using Pulay DIIS extrapolation
 Exchange:     0.2000 Hartree-Fock + 0.0800 Slater + 0.7200 B88
 Correlation:  0.1900 VWN1RPA + 0.8100 LYP
 Using SG-1 standard quadrature grid
 SCF converges when DIIS error is below 1.0E-08
 Geometry optimization detected.  Setting ReadMinima to 0
 Setting SaveMinima to 0
 ---------------------------------------
  Cycle       Energy         DIIS Error
 ---------------------------------------
    1   -1656.6628050916      3.71E-04
    2   -1656.6641884316      3.26E-05
    3   -1656.6641417553      6.54E-05
    4   -1656.6642113695      1.09E-05
    5   -1656.6642130662      3.85E-06
    6   -1656.6642132652      1.56E-06
    7   -1656.6642132985      6.48E-07
    8   -1656.6642133051      1.86E-07
    9   -1656.6642133045      5.43E-08
   10   -1656.6642133051      2.71E-08
   11   -1656.6642133033      6.38E-09 Convergence criterion met
 ---------------------------------------
 SCF time:  CPU 12.07 s  wall 11.25 s
 SCF   energy in the final basis set = -1656.6642133033
 Total energy in the final basis set = -1656.6642133033
 
 --------------------------------------------------------------
 
                    Orbital Energies (a.u.)
 --------------------------------------------------------------
 
 Alpha MOs
 -- Occupied --
-88.921 -88.921 -88.921 -10.242 -10.242 -10.241 -10.241 -10.227
-10.227 -10.207 -10.206 -10.206 -10.206 -10.205 -10.205  -7.981
 -7.981  -7.981  -5.945  -5.945  -5.945  -5.941  -5.941  -5.941
 -5.938  -5.938  -5.937  -0.907  -0.893  -0.877  -0.788  -0.757
 -0.746  -0.745  -0.732  -0.698  -0.618  -0.598  -0.570  -0.560
 -0.536  -0.535  -0.530  -0.502  -0.462  -0.423  -0.422  -0.417
 -0.416  -0.409  -0.402  -0.398  -0.388  -0.379  -0.371  -0.362
 -0.350  -0.343  -0.299  -0.268  -0.263  -0.260  -0.249  -0.200
 -- Virtual --
 -0.073  -0.032  -0.008  -0.005   0.000   0.007   0.007   0.008
  0.011   0.016   0.024   0.029   0.030   0.033   0.040   0.044
  0.047   0.051   0.054   0.055   0.061   0.064   0.071   0.079
  0.082   0.087   0.088   0.092   0.098   0.105   0.108   0.111
  0.113   0.118   0.121   0.124   0.126   0.126   0.129   0.133
  0.137   0.141   0.144   0.148   0.150   0.154   0.157   0.165
  0.166   0.171   0.171   0.176   0.181   0.183   0.186   0.192
  0.195   0.201   0.204   0.207   0.214   0.218   0.219   0.225
  0.227   0.237   0.238   0.240   0.245   0.252   0.266   0.269
  0.270   0.276   0.279   0.285   0.288   0.294   0.307   0.309
  0.322   0.325   0.342   0.344   0.354   0.361   0.364   0.367
  0.373   0.382   0.395   0.399   0.453   0.456   0.466   0.501
  0.508   0.514   0.520   0.526   0.568   0.569   0.577   0.584
  0.602   0.606   0.624   0.627   0.649   0.651   0.655   0.661
  0.662   0.664   0.678   0.688   0.699   0.713   0.715   0.718
  0.725   0.731   0.739   0.757   0.762   0.780   0.782   0.788
  0.819   0.822   0.828   0.834   0.837   0.853   0.869   0.885
  0.931   0.933   0.938   0.944   0.953   0.959   0.960   0.967
  0.971   0.981   0.984   0.988   0.996   1.003   1.028   1.029
  1.052   1.056   1.075   1.085   1.100   1.105   1.111   1.114
  1.151   1.157   1.166   1.175   1.185   1.209   1.237   1.249
  1.267   1.274   1.285   1.316   1.331   1.342   1.344   1.349
  1.359   1.361   1.372   1.449   1.470   1.489   1.495   1.499
  1.515   1.550   1.585   1.643   1.676   1.688   1.709   1.733
  1.797   1.833   1.862   1.867   1.893   1.895   1.909   1.913
  1.926   1.929   1.956   1.963   2.007   2.037   2.061   2.065
  2.074   2.102   2.113   2.162   2.171   2.181   2.193   2.202
  2.225   2.233   2.256   2.277   2.290   2.332   2.362   2.363
  2.417   2.439   2.444   2.447   2.466   2.470   2.479   2.499
  2.524   2.533   2.537   2.545   2.571   2.588   2.610   2.636
  2.668   2.686   2.705   2.715   2.722   2.830   2.867   2.884
  2.923   2.928   2.942   2.954   3.129   3.179   3.223   3.271
  3.271   3.326   3.414   3.415   3.670   3.729   3.739   3.972
  3.980   3.982   4.257   4.270   4.308   4.319   4.323   4.337
  4.387   4.480   4.550   4.648   4.696   4.729
 --------------------------------------------------------------
 
          Ground-State Mulliken Net Atomic Charges

     Atom                 Charge (a.u.)
  ----------------------------------------
      1 H                     0.196460
      2 H                     0.119683
      3 C                     0.013780
      4 C                    -0.308192
      5 S                    -0.099069
      6 C                     0.614618
      7 H                     0.135371
      8 C                    -0.428958
      9 H                     0.127383
     10 C                    -0.236637
     11 C                     0.135198
     12 S                    -0.417883
     13 C                     0.033402
     14 H                     0.117984
     15 C                    -0.229616
     16 C                    -0.405997
     17 H                     0.125125
     18 C                     0.596580
     19 S                    -0.129200
     20 C                    -0.290436
     21 C                     0.010833
     22 H                     0.121267
     23 H                     0.198304
  ----------------------------------------
  Sum of atomic charges =     0.000000

 -----------------------------------------------------------------
                    Cartesian Multipole Moments
 -----------------------------------------------------------------
    Charge (ESU x 10^10)
                 0.0000
    Dipole Moment (Debye)
         X       0.0137      Y       0.5166      Z      -0.0237
       Tot       0.5174
    Quadrupole Moments (Debye-Ang)
        XX     -90.3672     XY      -0.0373     YY    -101.5139
        XZ      -0.0520     YZ       2.6917     ZZ    -115.7712
    Octopole Moments (Debye-Ang^2)
       XXX      -8.6960    XXY      18.6509    XYY      -0.2363
       YYY      10.5795    XXZ      13.6783    XYZ      -9.9052
       YYZ      10.3880    XZZ      -6.6249    YZZ       0.4390
       ZZZ      36.5551
    Hexadecapole Moments (Debye-Ang^3)
      XXXX   -6348.6467   XXXY      13.4619   XXYY   -1304.5292
      XYYY      30.3163   YYYY    -816.5613   XXXZ     -20.6476
      XXYZ       6.8940   XYYZ     -44.8603   YYYZ     -47.3106
      XXZZ   -1388.0481   XYZZ       4.2295   YYZZ    -187.9317
      XZZZ     -83.4886   YZZZ     -68.8923   ZZZZ    -225.1613
 -----------------------------------------------------------------
 Calculating analytic gradient of the SCF energy
 Gradient of SCF Energy
            1           2           3           4           5           6
    1   0.0000012  -0.0000025   0.0000141   0.0000050   0.0000200  -0.0000320
    2  -0.0000034   0.0000006   0.0000169  -0.0000170  -0.0000134   0.0000217
    3   0.0000121  -0.0000079  -0.0000338   0.0000256   0.0000507  -0.0000312
            7           8           9          10          11          12
    1  -0.0000047  -0.0000072   0.0000168   0.0000195   0.0001201  -0.0000864
    2  -0.0000096  -0.0000142   0.0000117   0.0000710  -0.0000133  -0.0001514
    3  -0.0000179  -0.0001352  -0.0000173  -0.0002512   0.0001987   0.0001956
           13          14          15          16          17          18
    1  -0.0000178  -0.0000131   0.0002028  -0.0002265   0.0000804  -0.0001101
    2  -0.0002692   0.0002006   0.0000567   0.0000960   0.0002113  -0.0003609
    3   0.0010081  -0.0006113  -0.0004630  -0.0002508  -0.0006422   0.0010972
           19          20          21          22          23
    1   0.0000916  -0.0000425   0.0000066  -0.0000266  -0.0000087
    2   0.0001262  -0.0000301  -0.0000134   0.0000008   0.0000824
    3   0.0000627   0.0000293  -0.0000941  -0.0000421  -0.0000819
 Max gradient component =       1.097E-03
 RMS gradient           =       2.399E-04
 Gradient time:  CPU 4.68 s  wall 4.57 s
 Geometry Optimization Parameters
   NAtoms,    NIC,     NZ,  NCons,   NDum,   NFix, NCnnct, MaxDiis
       23     166       0       1       0       0       0       0

 Cartesian Hessian Update
 Hessian Updated using BFGS Update


** CONSTRAINED OPTIMIZATION IN DELOCALIZED INTERNAL COORDINATES **
   Searching for a Minimum

   Optimization Cycle:   2

                       Coordinates (Angstroms)
     ATOM                X               Y               Z
      1  H         6.2309034572   -0.2294291481    0.2022107598
      2  H         5.3034103473    2.2234562377   -0.0989320776
      3  C         5.1970222367    0.0707030022    0.1009315913
      4  C         4.6870750532    1.3328065256   -0.0552906007
      5  S         3.9424062710   -1.1270619865    0.1314453780
      6  C         3.2671327051    1.3457998007   -0.1672720477
      7  H         2.6850535567    2.2480660795   -0.3187030486
      8  C         2.6967533836    0.0901278808   -0.0934000985
      9  H         1.3319480215   -2.3876845872   -0.6944092189
     10  C         1.2983715296   -0.2818755970   -0.1751665132
     11  C         0.7382802405   -1.5094431341   -0.4663544564
     12  S         0.0373997401    0.9041961997    0.1169991856
     13  C        -0.6800296889   -1.5044800712   -0.4639760436
     14  H        -1.2789922766   -2.3807696644   -0.6855439209
     15  C        -1.2325445218   -0.2720933704   -0.1760920878
     16  C        -2.6289447728    0.1082502990   -0.0962798851
     17  H        -2.5894642614    2.1090769348    0.7444382191
     18  C        -3.1848179797    1.2838910324    0.3696713468
     19  S        -3.8944060370   -0.9857064876   -0.6321926328
     20  C        -4.6071994063    1.3087289338    0.2992260464
     21  C        -5.1345490359    0.1539042358   -0.2154586965
     22  H        -5.2120651174    2.1490586937    0.6201081614
     23  H        -6.1735042347   -0.0973729492   -0.3786236100
   Point Group: c1    Number of degrees of freedom:    63


   Energy is  -1656.664213303

              Constraints and their Current Values
                                        Value     Constraint
   Dihedral:       13  15  16  18      170.000      170.000
 Hessian Updated using BFGS Update

 55 Hessian modes will be used to form the next step
  Hessian Eigenvalues:
     0.027314    0.045000    0.045000    0.045001    0.045001    0.045003
     0.045003    0.045009    0.045009    0.045014    0.045018    0.052373
     0.159574    0.159903    0.159944    0.159959    0.159992    0.159996
     0.159999    0.160081    0.221277    0.221313    0.227517    0.237825
     0.238570    0.246443    0.249712    0.249998    0.250000    0.250681
     0.293307    0.293704    0.294745    0.294768    0.312569    0.312602
     0.354731    0.354740    0.354742    0.354776    0.355161    0.355164
     0.358373    0.358373    0.383111    0.383706    0.405787    0.405835
     0.413666    0.458814    0.461989    0.462943    0.485477    0.497290
     0.497320

 Minimum Search - Taking Simple RFO Step
 Searching for Lamda that Minimizes Along All modes
 Value Taken    Lamda =  -0.00003536
 Step Taken.  Stepsize is  0.035495

                             Maximum     Tolerance    Cnvgd?
         Gradient           0.000371      0.000300      NO
         Displacement       0.014330      0.001200      NO
         Energy change     -0.000103      0.000001      NO


 New Cartesian Coordinates Obtained by Inverse Iteration

 Displacement from previous Coordinates is:  0.073650
 ----------------------------------------------------------------
             Standard Nuclear Orientation (Angstroms)
    I     Atom           X                Y                Z
 ----------------------------------------------------------------
    1      H       6.2291240577    -0.2333679172     0.2131608493
    2      H       5.3066699486     2.2207109382    -0.0933491956
    3      C       5.1960795789     0.0683001151     0.1080404825
    4      C       4.6887508431     1.3310839583    -0.0512281480
    5      S       3.9394791501    -1.1274283121     0.1348802935
    6      C       3.2692677786     1.3461842156    -0.1684056824
    7      H       2.6892359257     2.2493027573    -0.3226443297
    8      C       2.6966100648     0.0914732847    -0.0955753454
    9      H       1.3310628528    -2.3863880744    -0.6955222071
   10      C       1.2980815116    -0.2788719473    -0.1825933249
   11      C       0.7376732224    -1.5064552946    -0.4733888249
   12      S       0.0375406296     0.9098458887     0.1005790629
   13      C      -0.6804037571    -1.5014288050    -0.4705162526
   14      H      -1.2791345247    -2.3809378750    -0.6799143704
   15      C      -1.2327136487    -0.2685978695    -0.1841988248
   16      C      -2.6288146542     0.1103805823    -0.1019534099
   17      H      -2.5904539759     2.1103314226     0.7420117564
   18      C      -3.1847601057     1.2865234611     0.3624752267
   19      S      -3.8947043601    -0.9867014402    -0.6316463469
   20      C      -4.6074709105     1.3077645097     0.3001603222
   21      C      -5.1350941444     0.1500815217    -0.2078299264
   22      H      -5.2123829720     2.1460673654     0.6261850100
   23      H      -6.1744033008    -0.1057236253    -0.3613910643
 ----------------------------------------------------------------
 Nuclear Repulsion Energy =  1173.0470769112 hartrees
 There are       64 alpha and       64 beta electrons
 Applying Cartesian multipole field
    Component          Value
    ---------          -----
     (2,0,0)        1.00000E-12
     (0,2,0)        2.00000E-11
     (0,0,2)       -3.00000E-11
 Nucleus-field energy     =     0.0000000144 hartrees
 Requested basis set is 6-31++G(d,p)
 There are 110 shells and 345 basis functions
 A cutoff of  1.0D-12 yielded   4682 shell pairs
 There are     47615 function pairs

 Q-Chem warning in module /project/projectdirs/jcesr/qchem/qc44/cnl_qc441/compile/cori/qc_src/libqints/qchem/aobasis.C, line 68:

 Using reconstructed effective core potential

 Smallest overlap matrix eigenvalue = 6.63E-08
 Linear dependence detected in AO basis
 Number of orthogonalized atomic orbitals = 342
 Maximum deviation from orthogonality = 1.017E-10
 Guess MOs from SCF MO coefficient file
 Reading MOs from coefficient file
 Reading MOs from coefficient file
 A restricted hybrid HF-DFT SCF calculation will be
 performed using Pulay DIIS extrapolation
 Exchange:     0.2000 Hartree-Fock + 0.0800 Slater + 0.7200 B88
 Correlation:  0.1900 VWN1RPA + 0.8100 LYP
 Using SG-1 standard quadrature grid
 SCF converges when DIIS error is below 1.0E-08
 Geometry optimization detected.  Setting ReadMinima to 0
 Setting SaveMinima to 0
 ---------------------------------------
  Cycle       Energy         DIIS Error
 ---------------------------------------
    1   -1656.6640144979      1.71E-04
    2   -1656.6642294168      1.55E-05
    3   -1656.6642194502      3.04E-05
    4   -1656.6642342020      4.66E-06
    5   -1656.6642344750      2.28E-06
    6   -1656.6642345452      9.05E-07
    7   -1656.6642345573      3.48E-07
    8   -1656.6642345606      1.00E-07
    9   -1656.6642345584      2.94E-08
   10   -1656.6642345587      1.10E-08
   11   -1656.6642345576      3.51E-09 Convergence criterion met
 ---------------------------------------
 SCF time:  CPU 11.96 s  wall 10.97 s
 SCF   energy in the final basis set = -1656.6642345576
 Total energy in the final basis set = -1656.6642345576
 
 --------------------------------------------------------------
 
                    Orbital Energies (a.u.)
 --------------------------------------------------------------
 
 Alpha MOs
 -- Occupied --
-88.921 -88.921 -88.921 -10.242 -10.242 -10.241 -10.241 -10.227
-10.227 -10.207 -10.206 -10.206 -10.206 -10.205 -10.205  -7.981
 -7.981  -7.981  -5.945  -5.945  -5.945  -5.941  -5.941  -5.941
 -5.938  -5.938  -5.937  -0.907  -0.893  -0.877  -0.788  -0.757
 -0.746  -0.745  -0.732  -0.698  -0.618  -0.598  -0.570  -0.560
 -0.536  -0.535  -0.530  -0.502  -0.462  -0.423  -0.422  -0.417
 -0.416  -0.409  -0.402  -0.398  -0.388  -0.379  -0.370  -0.362
 -0.350  -0.343  -0.299  -0.268  -0.263  -0.260  -0.249  -0.200
 -- Virtual --
 -0.073  -0.032  -0.008  -0.005   0.000   0.007   0.007   0.008
  0.011   0.016   0.024   0.029   0.030   0.033   0.040   0.044
  0.047   0.051   0.054   0.055   0.061   0.064   0.072   0.079
  0.082   0.087   0.088   0.092   0.098   0.105   0.108   0.111
  0.113   0.118   0.121   0.124   0.126   0.126   0.129   0.133
  0.137   0.141   0.144   0.148   0.150   0.154   0.157   0.165
  0.166   0.171   0.171   0.176   0.181   0.183   0.186   0.192
  0.195   0.201   0.205   0.207   0.214   0.218   0.218   0.224
  0.228   0.237   0.238   0.240   0.245   0.252   0.266   0.269
  0.270   0.276   0.279   0.285   0.288   0.294   0.307   0.309
  0.322   0.325   0.341   0.344   0.354   0.361   0.364   0.367
  0.373   0.382   0.395   0.398   0.453   0.456   0.466   0.501
  0.508   0.514   0.520   0.527   0.568   0.569   0.577   0.584
  0.602   0.606   0.624   0.627   0.649   0.651   0.655   0.661
  0.662   0.664   0.677   0.689   0.699   0.713   0.715   0.718
  0.725   0.731   0.739   0.757   0.762   0.780   0.782   0.788
  0.820   0.822   0.828   0.834   0.837   0.853   0.869   0.885
  0.931   0.933   0.938   0.944   0.953   0.959   0.960   0.968
  0.971   0.980   0.985   0.988   0.996   1.004   1.028   1.029
  1.052   1.056   1.076   1.085   1.100   1.105   1.111   1.114
  1.151   1.157   1.166   1.175   1.185   1.209   1.238   1.250
  1.267   1.275   1.284   1.317   1.331   1.341   1.344   1.350
  1.359   1.361   1.371   1.450   1.468   1.488   1.495   1.500
  1.514   1.550   1.584   1.642   1.676   1.688   1.709   1.734
  1.798   1.833   1.862   1.867   1.893   1.895   1.909   1.913
  1.926   1.928   1.956   1.963   2.007   2.037   2.061   2.065
  2.074   2.102   2.113   2.161   2.171   2.181   2.193   2.202
  2.225   2.233   2.256   2.277   2.290   2.332   2.362   2.363
  2.417   2.440   2.443   2.447   2.466   2.469   2.480   2.499
  2.524   2.533   2.537   2.545   2.571   2.588   2.610   2.636
  2.667   2.687   2.705   2.716   2.722   2.830   2.868   2.884
  2.924   2.928   2.942   2.954   3.129   3.179   3.223   3.271
  3.271   3.326   3.414   3.415   3.670   3.729   3.739   3.972
  3.980   3.982   4.258   4.269   4.308   4.319   4.323   4.337
  4.387   4.481   4.550   4.648   4.696   4.729
 --------------------------------------------------------------
 
          Ground-State Mulliken Net Atomic Charges

     Atom                 Charge (a.u.)
  ----------------------------------------
      1 H                     0.196473
      2 H                     0.119696
      3 C                     0.013953
      4 C                    -0.304958
      5 S                    -0.100847
      6 C                     0.615667
      7 H                     0.135176
      8 C                    -0.430753
      9 H                     0.127219
     10 C                    -0.241982
     11 C                     0.136295
     12 S                    -0.419956
     13 C                     0.035133
     14 H                     0.118422
     15 C                    -0.231338
     16 C                    -0.407902
     17 H                     0.125679
     18 C                     0.604730
     19 S                    -0.129912
     20 C                    -0.291523
     21 C                     0.011228
     22 H                     0.121199
     23 H                     0.198301
  ----------------------------------------
  Sum of atomic charges =     0.000000

 -----------------------------------------------------------------
                    Cartesian Multipole Moments
 -----------------------------------------------------------------
    Charge (ESU x 10^10)
                 0.0000
    Dipole Moment (Debye)
         X       0.0122      Y       0.5065      Z       0.0046
       Tot       0.5067
    Quadrupole Moments (Debye-Ang)
        XX     -90.3645     XY       0.0008     YY    -101.5058
        XZ      -0.1234     YZ       2.6696     ZZ    -115.7837
    Octopole Moments (Debye-Ang^2)
       XXX      -8.7069    XXY      18.2657    XYY      -0.1765
       YYY      10.1915    XXZ      14.8134    XYZ      -9.9631
       YYZ      10.7423    XZZ      -6.5316    YZZ       0.3811
       ZZZ      37.4385
    Hexadecapole Moments (Debye-Ang^3)
      XXXX   -6348.2297   XXXY      14.7970   XXYY   -1304.4310
      XYYY      30.1650   YYYY    -816.7634   XXXZ     -23.7825
      XXYZ       7.1357   XYYZ     -45.2799   YYYZ     -47.0239
      XXZZ   -1388.1376   XYZZ       3.9394   YYZZ    -188.0403
      XZZZ     -84.6692   YZZZ     -68.5177   ZZZZ    -225.3268
 -----------------------------------------------------------------
 Calculating analytic gradient of the SCF energy
 Gradient of SCF Energy
            1           2           3           4           5           6
    1   0.0000001   0.0000012  -0.0000113   0.0000074   0.0000034  -0.0000011
    2  -0.0000004   0.0000013   0.0000121  -0.0000015  -0.0000013   0.0000132
    3  -0.0000055  -0.0000082  -0.0000160   0.0000137   0.0000538  -0.0000373
            7           8           9          10          11          12
    1   0.0000001  -0.0000147  -0.0000128  -0.0000208  -0.0000366   0.0000355
    2  -0.0000065  -0.0000244  -0.0000078  -0.0000362   0.0000423   0.0000600
    3  -0.0000183   0.0000221   0.0000405   0.0001028  -0.0002217  -0.0000471
           13          14          15          16          17          18
    1   0.0000120   0.0000137  -0.0000129  -0.0000116  -0.0000003  -0.0000337
    2  -0.0000873   0.0000418   0.0000219  -0.0000477   0.0001354  -0.0001491
    3   0.0004134  -0.0002795  -0.0000288   0.0000286  -0.0002669   0.0003945
           19          20          21          22          23
    1  -0.0000061   0.0000623   0.0000222   0.0000010   0.0000032
    2   0.0000244   0.0000849  -0.0000392  -0.0000271  -0.0000088
    3  -0.0001259  -0.0001610   0.0000764   0.0000550   0.0000157
 Max gradient component =       4.134E-04
 RMS gradient           =       9.913E-05
 Gradient time:  CPU 4.56 s  wall 4.57 s
 Geometry Optimization Parameters
   NAtoms,    NIC,     NZ,  NCons,   NDum,   NFix, NCnnct, MaxDiis
       23     166       0       1       0       0       0       0

 Cartesian Hessian Update
 Hessian Updated using BFGS Update


** CONSTRAINED OPTIMIZATION IN DELOCALIZED INTERNAL COORDINATES **
   Searching for a Minimum

   Optimization Cycle:   3

                       Coordinates (Angstroms)
     ATOM                X               Y               Z
      1  H         6.2291240577   -0.2333679172    0.2131608493
      2  H         5.3066699486    2.2207109382   -0.0933491956
      3  C         5.1960795789    0.0683001151    0.1080404825
      4  C         4.6887508431    1.3310839583   -0.0512281480
      5  S         3.9394791501   -1.1274283121    0.1348802935
      6  C         3.2692677786    1.3461842156   -0.1684056824
      7  H         2.6892359257    2.2493027573   -0.3226443297
      8  C         2.6966100648    0.0914732847   -0.0955753454
      9  H         1.3310628528   -2.3863880744   -0.6955222071
     10  C         1.2980815116   -0.2788719473   -0.1825933249
     11  C         0.7376732224   -1.5064552946   -0.4733888249
     12  S         0.0375406296    0.9098458887    0.1005790629
     13  C        -0.6804037571   -1.5014288050   -0.4705162526
     14  H        -1.2791345247   -2.3809378750   -0.6799143704
     15  C        -1.2327136487   -0.2685978695   -0.1841988248
     16  C        -2.6288146542    0.1103805823   -0.1019534099
     17  H        -2.5904539759    2.1103314226    0.7420117564
     18  C        -3.1847601057    1.2865234611    0.3624752267
     19  S        -3.8947043601   -0.9867014402   -0.6316463469
     20  C        -4.6074709105    1.3077645097    0.3001603222
     21  C        -5.1350941444    0.1500815217   -0.2078299264
     22  H        -5.2123829720    2.1460673654    0.6261850100
     23  H        -6.1744033008   -0.1057236253   -0.3613910643
   Point Group: c1    Number of degrees of freedom:    63


   Energy is  -1656.664234558

              Constraints and their Current Values
                                        Value     Constraint
   Dihedral:       13  15  16  18      170.000      170.000
 Hessian Updated using BFGS Update

 56 Hessian modes will be used to form the next step
  Hessian Eigenvalues:
     0.019575    0.045000    0.045000    0.045000    0.045001    0.045003
     0.045003    0.045007    0.045009    0.045014    0.045016    0.046162
     0.055687    0.159901    0.159928    0.159957    0.159992    0.159996
     0.159999    0.160044    0.160324    0.221296    0.221314    0.227506
     0.237824    0.238864    0.246929    0.249968    0.250000    0.250307
     0.250594    0.293546    0.293705    0.294751    0.295088    0.312564
     0.312602    0.354735    0.354742    0.354744    0.354823    0.355163
     0.355165    0.358373    0.358374    0.383209    0.384846    0.405832
     0.406208    0.414498    0.458841    0.461997    0.462970    0.485505
     0.497289    0.497358

 Minimum Search - Taking Simple RFO Step
 Searching for Lamda that Minimizes Along All modes
 Value Taken    Lamda =  -0.00000631
 Step Taken.  Stepsize is  0.016037

                             Maximum     Tolerance    Cnvgd?
         Gradient           0.000140      0.000300     YES
         Displacement       0.006121      0.001200      NO
         Energy change     -0.000021      0.000001      NO


 New Cartesian Coordinates Obtained by Inverse Iteration

 Displacement from previous Coordinates is:  0.018432
 ----------------------------------------------------------------
             Standard Nuclear Orientation (Angstroms)
    I     Atom           X                Y                Z
 ----------------------------------------------------------------
    1      H       6.2293187857    -0.2339645567     0.2113373542
    2      H       5.3071871772     2.2206517224    -0.0918688157
    3      C       5.1963100874     0.0679973013     0.1067051422
    4      C       4.6891404411     1.3310622062    -0.0509402740
    5      S       3.9394975946    -1.1275153709     0.1320688292
    6      C       3.2696399992     1.3465621716    -0.1678823291
    7      H       2.6897523869     2.2500390754    -0.3206085723
    8      C       2.6967735736     0.0918763609    -0.0965109933
    9      H       1.3312953572    -2.3865496808    -0.6938307859
   10      C       1.2982086714    -0.2783997451    -0.1836322866
   11      C       0.7378233698    -1.5062757207    -0.4732070473
   12      S       0.0374795012     0.9103315450     0.0987550499
   13      C      -0.6803114606    -1.5013545608    -0.4701596842
   14      H      -1.2790042166    -2.3821491343    -0.6741034880
   15      C      -1.2328190708    -0.2684989234    -0.1842553221
   16      C      -2.6289339180     0.1105255035    -0.1023612279
   17      H      -2.5911976268     2.1085264770     0.7460240941
   18      C      -3.1851218352     1.2867098902     0.3616372293
   19      S      -3.8948707082    -0.9864058528    -0.6324897508
   20      C      -4.6079091782     1.3079470465     0.2991745098
   21      C      -5.1354409703     0.1505376194    -0.2094577393
   22      H      -5.2128632859     2.1459493632     0.6259164555
   23      H      -6.1747154648    -0.1054538770    -0.3629745975
 ----------------------------------------------------------------
 Nuclear Repulsion Energy =  1173.0219511869 hartrees
 There are       64 alpha and       64 beta electrons
 Applying Cartesian multipole field
    Component          Value
    ---------          -----
     (2,0,0)        1.00000E-12
     (0,2,0)        2.00000E-11
     (0,0,2)       -3.00000E-11
 Nucleus-field energy     =     0.0000000144 hartrees
 Requested basis set is 6-31++G(d,p)
 There are 110 shells and 345 basis functions
 A cutoff of  1.0D-12 yielded   4682 shell pairs
 There are     47615 function pairs

 Q-Chem warning in module /project/projectdirs/jcesr/qchem/qc44/cnl_qc441/compile/cori/qc_src/libqints/qchem/aobasis.C, line 68:

 Using reconstructed effective core potential

 Smallest overlap matrix eigenvalue = 6.66E-08
 Linear dependence detected in AO basis
 Number of orthogonalized atomic orbitals = 342
 Maximum deviation from orthogonality = 9.258E-11
 Guess MOs from SCF MO coefficient file
 Reading MOs from coefficient file
 Reading MOs from coefficient file
 A restricted hybrid HF-DFT SCF calculation will be
 performed using Pulay DIIS extrapolation
 Exchange:     0.2000 Hartree-Fock + 0.0800 Slater + 0.7200 B88
 Correlation:  0.1900 VWN1RPA + 0.8100 LYP
 Using SG-1 standard quadrature grid
 SCF converges when DIIS error is below 1.0E-08
 Geometry optimization detected.  Setting ReadMinima to 0
 Setting SaveMinima to 0
 ---------------------------------------
  Cycle       Energy         DIIS Error
 ---------------------------------------
    1   -1656.6637332063      4.31E-05
    2   -1656.6642384355      4.11E-06
    3   -1656.6642377087      8.11E-06
    4   -1656.6642387853      1.35E-06
    5   -1656.6642388091      5.77E-07
    6   -1656.6642388145      2.45E-07
    7   -1656.6642388180      5.93E-08
    8   -1656.6642388156      2.57E-08
    9   -1656.6642388160      8.28E-09 Convergence criterion met
 ---------------------------------------
 SCF time:  CPU 9.82 s  wall 9.05 s
 SCF   energy in the final basis set = -1656.6642388160
 Total energy in the final basis set = -1656.6642388160
 
 --------------------------------------------------------------
 
                    Orbital Energies (a.u.)
 --------------------------------------------------------------
 
 Alpha MOs
 -- Occupied --
-88.921 -88.921 -88.921 -10.242 -10.242 -10.241 -10.241 -10.227
-10.227 -10.207 -10.206 -10.206 -10.206 -10.205 -10.205  -7.981
 -7.981  -7.981  -5.945  -5.945  -5.945  -5.941  -5.941  -5.941
 -5.938  -5.938  -5.937  -0.907  -0.893  -0.877  -0.788  -0.757
 -0.746  -0.745  -0.732  -0.698  -0.618  -0.598  -0.570  -0.560
 -0.536  -0.535  -0.530  -0.502  -0.462  -0.423  -0.422  -0.417
 -0.416  -0.409  -0.402  -0.398  -0.388  -0.379  -0.370  -0.362
 -0.350  -0.343  -0.299  -0.268  -0.263  -0.260  -0.249  -0.200
 -- Virtual --
 -0.073  -0.032  -0.008  -0.005   0.000   0.007   0.007   0.008
  0.011   0.016   0.024   0.029   0.030   0.033   0.040   0.044
  0.047   0.051   0.054   0.055   0.061   0.064   0.072   0.079
  0.082   0.087   0.088   0.092   0.098   0.105   0.108   0.111
  0.113   0.118   0.121   0.124   0.126   0.126   0.129   0.133
  0.137   0.141   0.144   0.148   0.150   0.154   0.157   0.165
  0.166   0.171   0.171   0.176   0.181   0.183   0.186   0.192
  0.195   0.201   0.205   0.207   0.213   0.218   0.219   0.224
  0.228   0.237   0.238   0.240   0.245   0.252   0.266   0.269
  0.270   0.276   0.279   0.285   0.288   0.294   0.307   0.309
  0.323   0.325   0.341   0.344   0.354   0.361   0.364   0.367
  0.373   0.382   0.395   0.398   0.453   0.456   0.466   0.501
  0.508   0.514   0.521   0.527   0.568   0.569   0.577   0.584
  0.602   0.606   0.624   0.627   0.649   0.651   0.655   0.661
  0.662   0.664   0.677   0.689   0.699   0.713   0.715   0.718
  0.725   0.731   0.739   0.757   0.762   0.780   0.782   0.788
  0.820   0.822   0.828   0.834   0.837   0.853   0.869   0.885
  0.931   0.933   0.938   0.944   0.953   0.959   0.960   0.968
  0.971   0.980   0.985   0.988   0.996   1.004   1.028   1.029
  1.052   1.057   1.076   1.085   1.100   1.105   1.111   1.114
  1.151   1.157   1.166   1.175   1.185   1.209   1.238   1.250
  1.267   1.274   1.284   1.317   1.330   1.341   1.344   1.351
  1.359   1.361   1.371   1.450   1.468   1.488   1.495   1.501
  1.514   1.550   1.584   1.642   1.676   1.688   1.709   1.734
  1.798   1.833   1.862   1.867   1.893   1.895   1.909   1.913
  1.926   1.928   1.956   1.963   2.007   2.037   2.061   2.065
  2.074   2.102   2.113   2.161   2.171   2.181   2.193   2.202
  2.225   2.233   2.256   2.277   2.290   2.332   2.362   2.363
  2.417   2.440   2.443   2.448   2.466   2.469   2.480   2.499
  2.525   2.533   2.537   2.545   2.571   2.588   2.610   2.637
  2.667   2.687   2.705   2.716   2.722   2.830   2.867   2.884
  2.924   2.928   2.942   2.954   3.129   3.179   3.223   3.271
  3.271   3.326   3.414   3.415   3.670   3.729   3.739   3.972
  3.980   3.982   4.258   4.269   4.308   4.319   4.323   4.337
  4.387   4.481   4.550   4.648   4.696   4.729
 --------------------------------------------------------------
 
          Ground-State Mulliken Net Atomic Charges

     Atom                 Charge (a.u.)
  ----------------------------------------
      1 H                     0.196510
      2 H                     0.119709
      3 C                     0.013825
      4 C                    -0.303983
      5 S                    -0.101405
      6 C                     0.615248
      7 H                     0.135100
      8 C                    -0.430128
      9 H                     0.127107
     10 C                    -0.242726
     11 C                     0.136108
     12 S                    -0.420525
     13 C                     0.035040
     14 H                     0.118578
     15 C                    -0.231624
     16 C                    -0.409107
     17 H                     0.125874
     18 C                     0.607274
     19 S                    -0.130234
     20 C                    -0.291899
     21 C                     0.011731
     22 H                     0.121180
     23 H                     0.198345
  ----------------------------------------
  Sum of atomic charges =     0.000000

 -----------------------------------------------------------------
                    Cartesian Multipole Moments
 -----------------------------------------------------------------
    Charge (ESU x 10^10)
                 0.0000
    Dipole Moment (Debye)
         X       0.0124      Y       0.5038      Z       0.0148
       Tot       0.5042
    Quadrupole Moments (Debye-Ang)
        XX     -90.3547     XY       0.0053     YY    -101.5081
        XZ      -0.1386     YZ       2.6696     ZZ    -115.7880
    Octopole Moments (Debye-Ang^2)
       XXX      -8.7151    XXY      18.2343    XYY      -0.1447
       YYY      10.0797    XXZ      14.9405    XYZ      -9.9457
       YYZ      10.9053    XZZ      -6.5496    YZZ       0.3960
       ZZZ      37.7629
    Hexadecapole Moments (Debye-Ang^3)
      XXXX   -6348.5681   XXXY      14.8491   XXYY   -1304.6023
      XYYY      30.4049   YYYY    -816.8315   XXXZ     -23.7850
      XXYZ       7.3028   XYYZ     -45.2661   YYYZ     -47.0850
      XXZZ   -1388.2820   XYZZ       3.9192   YYZZ    -188.0926
      XZZZ     -84.5533   YZZZ     -68.5656   ZZZZ    -225.2713
 -----------------------------------------------------------------
 Calculating analytic gradient of the SCF energy
 Gradient of SCF Energy
            1           2           3           4           5           6
    1   0.0000019   0.0000007   0.0000028   0.0000001  -0.0000085   0.0000049
    2   0.0000007  -0.0000011  -0.0000080   0.0000014   0.0000167  -0.0000011
    3  -0.0000051  -0.0000039  -0.0000042   0.0000015   0.0000450  -0.0000459
            7           8           9          10          11          12
    1  -0.0000016   0.0000062   0.0000038   0.0000082   0.0000065   0.0000276
    2  -0.0000012  -0.0000046  -0.0000112  -0.0000522   0.0000528  -0.0000076
    3  -0.0000117   0.0000400   0.0000562   0.0000910  -0.0002179  -0.0000104
           13          14          15          16          17          18
    1  -0.0000009   0.0000162  -0.0000669   0.0000639  -0.0000157   0.0000048
    2  -0.0000034   0.0000134   0.0000232  -0.0000475   0.0000467  -0.0000518
    3   0.0000891  -0.0000875   0.0000579   0.0000547  -0.0000865   0.0000611
           19          20          21          22          23
    1  -0.0000219  -0.0000001  -0.0000256  -0.0000049  -0.0000015
    2   0.0000202   0.0000545   0.0000087  -0.0000327  -0.0000157
    3  -0.0000210  -0.0001358   0.0000318   0.0000750   0.0000270
 Max gradient component =       2.179E-04
 RMS gradient           =       4.730E-05
 Gradient time:  CPU 4.57 s  wall 4.58 s
 Geometry Optimization Parameters
   NAtoms,    NIC,     NZ,  NCons,   NDum,   NFix, NCnnct, MaxDiis
       23     166       0       1       0       0       0       0

 Cartesian Hessian Update
 Hessian Updated using BFGS Update


** CONSTRAINED OPTIMIZATION IN DELOCALIZED INTERNAL COORDINATES **
   Searching for a Minimum

   Optimization Cycle:   4

                       Coordinates (Angstroms)
     ATOM                X               Y               Z
      1  H         6.2293187857   -0.2339645567    0.2113373542
      2  H         5.3071871772    2.2206517224   -0.0918688157
      3  C         5.1963100874    0.0679973013    0.1067051422
      4  C         4.6891404411    1.3310622062   -0.0509402740
      5  S         3.9394975946   -1.1275153709    0.1320688292
      6  C         3.2696399992    1.3465621716   -0.1678823291
      7  H         2.6897523869    2.2500390754   -0.3206085723
      8  C         2.6967735736    0.0918763609   -0.0965109933
      9  H         1.3312953572   -2.3865496808   -0.6938307859
     10  C         1.2982086714   -0.2783997451   -0.1836322866
     11  C         0.7378233698   -1.5062757207   -0.4732070473
     12  S         0.0374795012    0.9103315450    0.0987550499
     13  C        -0.6803114606   -1.5013545608   -0.4701596842
     14  H        -1.2790042166   -2.3821491343   -0.6741034880
     15  C        -1.2328190708   -0.2684989234   -0.1842553221
     16  C        -2.6289339180    0.1105255035   -0.1023612279
     17  H        -2.5911976268    2.1085264770    0.7460240941
     18  C        -3.1851218352    1.2867098902    0.3616372293
     19  S        -3.8948707082   -0.9864058528   -0.6324897508
     20  C        -4.6079091782    1.3079470465    0.2991745098
     21  C        -5.1354409703    0.1505376194   -0.2094577393
     22  H        -5.2128632859    2.1459493632    0.6259164555
     23  H        -6.1747154648   -0.1054538770   -0.3629745975
   Point Group: c1    Number of degrees of freedom:    63


   Energy is  -1656.664238816

              Constraints and their Current Values
                                        Value     Constraint
   Dihedral:       13  15  16  18      170.000      170.000
 Hessian Updated using BFGS Update

 60 Hessian modes will be used to form the next step
  Hessian Eigenvalues:
     0.013949    0.044321    0.045000    0.045000    0.045000    0.045000
     0.045000    0.045001    0.045002    0.045002    0.045003    0.045004
     0.045009    0.045014    0.045017    0.045609    0.050675    0.159858
     0.159924    0.159953    0.159974    0.159993    0.159999    0.160008
     0.160075    0.221311    0.221336    0.227519    0.237835    0.240497
     0.249685    0.249919    0.249998    0.250346    0.252348    0.293631
     0.293731    0.294751    0.294907    0.312584    0.312603    0.354733
     0.354742    0.354750    0.354893    0.355163    0.355169    0.358373
     0.358378    0.383318    0.384899    0.405830    0.407099    0.415542
     0.459052    0.461987    0.463168    0.485521    0.497292    0.497561

 Minimum Search - Taking Simple RFO Step
 Searching for Lamda that Minimizes Along All modes
 Value Taken    Lamda =  -0.00000282
 Step Taken.  Stepsize is  0.012317

                             Maximum     Tolerance    Cnvgd?
         Gradient           0.000124      0.000300     YES
         Displacement       0.004602      0.001200      NO
         Energy change     -0.000004      0.000001      NO


 New Cartesian Coordinates Obtained by Inverse Iteration

 Displacement from previous Coordinates is:  0.031539
 ----------------------------------------------------------------
             Standard Nuclear Orientation (Angstroms)
    I     Atom           X                Y                Z
 ----------------------------------------------------------------
    1      H       6.2297051649    -0.2333807360     0.2054358076
    2      H       5.3062735276     2.2215727257    -0.0910621445
    3      C       5.1964560390     0.0684279241     0.1027793831
    4      C       4.6886218154     1.3316506133    -0.0514186410
    5      S       3.9401329431    -1.1276233816     0.1270797704
    6      C       3.2689692775     1.3468891391    -0.1664274363
    7      H       2.6885580892     2.2505421588    -0.3160880904
    8      C       2.6966451181     0.0918549131    -0.0970010034
    9      H       1.3312895179    -2.3873192065    -0.6915587610
   10      C       1.2981047948    -0.2787674480    -0.1828029203
   11      C       0.7377984570    -1.5070531287    -0.4709415060
   12      S       0.0373577457     0.9097482613     0.1003277622
   13      C      -0.6803181450    -1.5023067473    -0.4675821162
   14      H      -1.2791177802    -2.3837727028    -0.6683135266
   15      C      -1.2327630868    -0.2693850377    -0.1819445589
   16      C      -2.6288173436     0.1100482569    -0.1011575793
   17      H      -2.5911854682     2.1063108529     0.7511108589
   18      C      -3.1849650127     1.2863291850     0.3625806814
   19      S      -3.8944023245    -0.9858922548    -0.6341050526
   20      C      -4.6076062320     1.3085102702     0.2975884741
   21      C      -5.1348995409     0.1519068039    -0.2131565304
   22      H      -5.2125629577     2.1469365218     0.6232397369
   23      H      -6.1740353887    -0.1030781227    -0.3692468577
 ----------------------------------------------------------------
 Nuclear Repulsion Energy =  1173.0461884718 hartrees
 There are       64 alpha and       64 beta electrons
 Applying Cartesian multipole field
    Component          Value
    ---------          -----
     (2,0,0)        1.00000E-12
     (0,2,0)        2.00000E-11
     (0,0,2)       -3.00000E-11
 Nucleus-field energy     =     0.0000000144 hartrees
 Requested basis set is 6-31++G(d,p)
 There are 110 shells and 345 basis functions
 A cutoff of  1.0D-12 yielded   4683 shell pairs
 There are     47616 function pairs

 Q-Chem warning in module /project/projectdirs/jcesr/qchem/qc44/cnl_qc441/compile/cori/qc_src/libqints/qchem/aobasis.C, line 68:

 Using reconstructed effective core potential

 Smallest overlap matrix eigenvalue = 6.68E-08
 Linear dependence detected in AO basis
 Number of orthogonalized atomic orbitals = 342
 Maximum deviation from orthogonality = 6.529E-11
 Guess MOs from SCF MO coefficient file
 Reading MOs from coefficient file
 Reading MOs from coefficient file
 A restricted hybrid HF-DFT SCF calculation will be
 performed using Pulay DIIS extrapolation
 Exchange:     0.2000 Hartree-Fock + 0.0800 Slater + 0.7200 B88
 Correlation:  0.1900 VWN1RPA + 0.8100 LYP
 Using SG-1 standard quadrature grid
 SCF converges when DIIS error is below 1.0E-08
 Geometry optimization detected.  Setting ReadMinima to 0
 Setting SaveMinima to 0
 ---------------------------------------
  Cycle       Energy         DIIS Error
 ---------------------------------------
    1   -1656.6638093491      6.91E-05
    2   -1656.6642395255      7.06E-06
    3   -1656.6642362864      1.60E-05
    4   -1656.6642406035      1.58E-06
    5   -1656.6642406375      7.91E-07
    6   -1656.6642406439      3.69E-07
    7   -1656.6642406458      1.23E-07
    8   -1656.6642406468      3.73E-08
    9   -1656.6642406463      1.07E-08
   10   -1656.6642406451      4.81E-09 Convergence criterion met
 ---------------------------------------
 SCF time:  CPU 10.72 s  wall 9.91 s
 SCF   energy in the final basis set = -1656.6642406451
 Total energy in the final basis set = -1656.6642406451
 
 --------------------------------------------------------------
 
                    Orbital Energies (a.u.)
 --------------------------------------------------------------
 
 Alpha MOs
 -- Occupied --
-88.921 -88.921 -88.921 -10.242 -10.242 -10.241 -10.241 -10.227
-10.227 -10.207 -10.206 -10.206 -10.206 -10.205 -10.205  -7.981
 -7.981  -7.981  -5.945  -5.945  -5.945  -5.941  -5.941  -5.941
 -5.938  -5.938  -5.937  -0.907  -0.893  -0.877  -0.788  -0.757
 -0.746  -0.745  -0.732  -0.698  -0.618  -0.598  -0.570  -0.560
 -0.536  -0.535  -0.530  -0.502  -0.462  -0.423  -0.422  -0.417
 -0.416  -0.409  -0.402  -0.398  -0.388  -0.379  -0.370  -0.362
 -0.350  -0.343  -0.299  -0.268  -0.263  -0.260  -0.249  -0.200
 -- Virtual --
 -0.073  -0.032  -0.008  -0.005   0.000   0.007   0.007   0.008
  0.011   0.016   0.024   0.029   0.030   0.033   0.040   0.044
  0.047   0.051   0.054   0.055   0.061   0.064   0.072   0.079
  0.082   0.087   0.088   0.092   0.098   0.105   0.108   0.111
  0.113   0.118   0.121   0.124   0.126   0.126   0.129   0.133
  0.137   0.141   0.144   0.148   0.150   0.154   0.157   0.165
  0.166   0.171   0.171   0.176   0.181   0.183   0.186   0.192
  0.195   0.202   0.205   0.207   0.213   0.218   0.219   0.224
  0.227   0.237   0.238   0.240   0.245   0.252   0.266   0.269
  0.270   0.276   0.279   0.285   0.288   0.294   0.307   0.309
  0.323   0.325   0.341   0.344   0.355   0.361   0.364   0.367
  0.373   0.382   0.395   0.398   0.453   0.456   0.466   0.501
  0.508   0.514   0.520   0.526   0.568   0.569   0.577   0.584
  0.602   0.606   0.624   0.627   0.649   0.651   0.655   0.661
  0.662   0.664   0.677   0.689   0.699   0.713   0.715   0.718
  0.725   0.731   0.739   0.757   0.761   0.780   0.782   0.788
  0.820   0.822   0.828   0.834   0.837   0.853   0.869   0.885
  0.931   0.933   0.938   0.944   0.953   0.959   0.960   0.968
  0.971   0.980   0.985   0.988   0.996   1.004   1.028   1.029
  1.052   1.057   1.076   1.085   1.100   1.105   1.111   1.114
  1.151   1.157   1.166   1.176   1.185   1.210   1.238   1.250
  1.267   1.274   1.284   1.317   1.330   1.341   1.344   1.351
  1.359   1.361   1.371   1.450   1.467   1.488   1.495   1.502
  1.514   1.550   1.584   1.642   1.676   1.688   1.709   1.734
  1.798   1.833   1.862   1.867   1.893   1.895   1.909   1.913
  1.926   1.928   1.956   1.963   2.007   2.037   2.061   2.065
  2.074   2.102   2.113   2.161   2.171   2.181   2.193   2.202
  2.225   2.233   2.256   2.277   2.290   2.332   2.362   2.363
  2.417   2.440   2.443   2.448   2.466   2.469   2.480   2.499
  2.525   2.533   2.537   2.545   2.570   2.588   2.610   2.637
  2.667   2.687   2.705   2.716   2.722   2.830   2.868   2.884
  2.924   2.928   2.942   2.954   3.129   3.179   3.223   3.271
  3.271   3.326   3.414   3.415   3.670   3.729   3.739   3.972
  3.980   3.982   4.258   4.269   4.308   4.319   4.323   4.337
  4.387   4.481   4.550   4.648   4.696   4.729
 --------------------------------------------------------------
 
          Ground-State Mulliken Net Atomic Charges

     Atom                 Charge (a.u.)
  ----------------------------------------
      1 H                     0.196538
      2 H                     0.119726
      3 C                     0.013532
      4 C                    -0.303123
      5 S                    -0.101712
      6 C                     0.615004
      7 H                     0.135002
      8 C                    -0.429401
      9 H                     0.126997
     10 C                    -0.242463
     11 C                     0.135363
     12 S                    -0.421437
     13 C                     0.035333
     14 H                     0.118693
     15 C                    -0.232228
     16 C                    -0.409985
     17 H                     0.126022
     18 C                     0.608395
     19 S                    -0.130305
     20 C                    -0.291211
     21 C                     0.011766
     22 H                     0.121155
     23 H                     0.198339
  ----------------------------------------
  Sum of atomic charges =     0.000000

 -----------------------------------------------------------------
                    Cartesian Multipole Moments
 -----------------------------------------------------------------
    Charge (ESU x 10^10)
                 0.0000
    Dipole Moment (Debye)
         X       0.0119      Y       0.5036      Z       0.0178
       Tot       0.5041
    Quadrupole Moments (Debye-Ang)
        XX     -90.3613     XY       0.0025     YY    -101.5047
        XZ      -0.1323     YZ       2.6784     ZZ    -115.7894
    Octopole Moments (Debye-Ang^2)
       XXX      -8.6985    XXY      18.2892    XYY      -0.1479
       YYY      10.0617    XXZ      14.7630    XYZ      -9.8967
       YYZ      11.0149    XZZ      -6.6055    YZZ       0.4221
       ZZZ      37.9514
    Hexadecapole Moments (Debye-Ang^3)
      XXXX   -6348.3487   XXXY      14.5814   XXYY   -1304.5173
      XYYY      30.6717   YYYY    -816.9538   XXXZ     -22.9006
      XXYZ       7.4531   XYYZ     -45.0745   YYYZ     -47.2531
      XXZZ   -1388.1385   XYZZ       3.9811   YYZZ    -188.1507
      XZZZ     -84.0293   YZZZ     -68.7590   ZZZZ    -225.1131
 -----------------------------------------------------------------
 Calculating analytic gradient of the SCF energy
 Gradient of SCF Energy
            1           2           3           4           5           6
    1  -0.0000001   0.0000000  -0.0000011  -0.0000047  -0.0000150   0.0000058
    2   0.0000023   0.0000005  -0.0000136   0.0000036   0.0000088  -0.0000077
    3  -0.0000026  -0.0000001  -0.0000014  -0.0000052   0.0000401  -0.0000537
            7           8           9          10          11          12
    1  -0.0000018   0.0000177   0.0000018  -0.0000158  -0.0000065   0.0000085
    2  -0.0000004   0.0000204  -0.0000105  -0.0000227   0.0000220  -0.0000042
    3  -0.0000035   0.0000270   0.0000390   0.0000273  -0.0001204   0.0000777
           13          14          15          16          17          18
    1   0.0000009   0.0000039  -0.0000208   0.0000240  -0.0000083   0.0000095
    2   0.0000272  -0.0000103  -0.0000040  -0.0000161  -0.0000020   0.0000341
    3  -0.0001191   0.0000263   0.0000664   0.0000567   0.0000240  -0.0001137
           19          20          21          22          23
    1  -0.0000145   0.0000025   0.0000073   0.0000028   0.0000038
    2  -0.0000470   0.0000300   0.0000175  -0.0000164  -0.0000117
    3   0.0000321  -0.0000582  -0.0000037   0.0000521   0.0000129
 Max gradient component =       1.204E-04
 RMS gradient           =       3.443E-05
 Gradient time:  CPU 4.59 s  wall 4.54 s
 Geometry Optimization Parameters
   NAtoms,    NIC,     NZ,  NCons,   NDum,   NFix, NCnnct, MaxDiis
       23     166       0       1       0       0       0       0

 Cartesian Hessian Update
 Hessian Updated using BFGS Update


** CONSTRAINED OPTIMIZATION IN DELOCALIZED INTERNAL COORDINATES **
   Searching for a Minimum

   Optimization Cycle:   5

                       Coordinates (Angstroms)
     ATOM                X               Y               Z
      1  H         6.2297051649   -0.2333807360    0.2054358076
      2  H         5.3062735276    2.2215727257   -0.0910621445
      3  C         5.1964560390    0.0684279241    0.1027793831
      4  C         4.6886218154    1.3316506133   -0.0514186410
      5  S         3.9401329431   -1.1276233816    0.1270797704
      6  C         3.2689692775    1.3468891391   -0.1664274363
      7  H         2.6885580892    2.2505421588   -0.3160880904
      8  C         2.6966451181    0.0918549131   -0.0970010034
      9  H         1.3312895179   -2.3873192065   -0.6915587610
     10  C         1.2981047948   -0.2787674480   -0.1828029203
     11  C         0.7377984570   -1.5070531287   -0.4709415060
     12  S         0.0373577457    0.9097482613    0.1003277622
     13  C        -0.6803181450   -1.5023067473   -0.4675821162
     14  H        -1.2791177802   -2.3837727028   -0.6683135266
     15  C        -1.2327630868   -0.2693850377   -0.1819445589
     16  C        -2.6288173436    0.1100482569   -0.1011575793
     17  H        -2.5911854682    2.1063108529    0.7511108589
     18  C        -3.1849650127    1.2863291850    0.3625806814
     19  S        -3.8944023245   -0.9858922548   -0.6341050526
     20  C        -4.6076062320    1.3085102702    0.2975884741
     21  C        -5.1348995409    0.1519068039   -0.2131565304
     22  H        -5.2125629577    2.1469365218    0.6232397369
     23  H        -6.1740353887   -0.1030781227   -0.3692468577
   Point Group: c1    Number of degrees of freedom:    63


   Energy is  -1656.664240645

              Constraints and their Current Values
                                        Value     Constraint
   Dihedral:       13  15  16  18      170.000      170.000
 Hessian Updated using BFGS Update

 61 Hessian modes will be used to form the next step
  Hessian Eigenvalues:
     0.010542    0.034843    0.045000    0.045000    0.045000    0.045000
     0.045000    0.045001    0.045002    0.045002    0.045003    0.045004
     0.045009    0.045014    0.045016    0.045037    0.046135    0.057680
     0.159541    0.159917    0.159953    0.159989    0.159994    0.160002
     0.160028    0.160179    0.221328    0.221444    0.227485    0.237856
     0.240806    0.249798    0.249852    0.249998    0.250928    0.255456
     0.293325    0.293741    0.294754    0.294872    0.312581    0.312661
     0.354739    0.354744    0.354750    0.354907    0.355164    0.355169
     0.358373    0.358388    0.383299    0.385230    0.405836    0.407415
     0.416024    0.459111    0.462084    0.463509    0.485547    0.497291
     0.497588

 Minimum Search - Taking Simple RFO Step
 Searching for Lamda that Minimizes Along All modes
 Value Taken    Lamda =  -0.00000119
 Step Taken.  Stepsize is  0.008603

                             Maximum     Tolerance    Cnvgd?
         Gradient           0.000078      0.000300     YES
         Displacement       0.003419      0.001200      NO
         Energy change     -0.000002      0.000001      NO


 New Cartesian Coordinates Obtained by Inverse Iteration

 Displacement from previous Coordinates is:  0.028535
 ----------------------------------------------------------------
             Standard Nuclear Orientation (Angstroms)
    I     Atom           X                Y                Z
 ----------------------------------------------------------------
    1      H       6.2303784839    -0.2326905560     0.1994770272
    2      H       5.3054177979     2.2225115836    -0.0901897728
    3      C       5.1968555588     0.0688937513     0.0989268081
    4      C       4.6882329889     1.3322151187    -0.0517269198
    5      S       3.9411069257    -1.1277949625     0.1222543777
    6      C       3.2684095798     1.3470638442    -0.1646866520
    7      H       2.6874068953     2.2508308598    -0.3113229557
    8      C       2.6967012806     0.0916333823    -0.0972248260
    9      H       1.3313132105    -2.3880610607    -0.6896459990
[...]
    5   -1656.6642415042      7.73E-07
    6   -1656.6642415109      4.02E-07
    7   -1656.6642415135      1.21E-07
    8   -1656.6642415132      3.71E-08
    9   -1656.6642415138      1.09E-08
   10   -1656.6642415119      4.85E-09 Convergence criterion met
 ---------------------------------------
 SCF time:  CPU 10.91 s  wall 10.00 s
 SCF   energy in the final basis set = -1656.6642415119
 Total energy in the final basis set = -1656.6642415119
 
 --------------------------------------------------------------
 
                    Orbital Energies (a.u.)
 --------------------------------------------------------------
 
 Alpha MOs
 -- Occupied --
-88.921 -88.921 -88.921 -10.242 -10.242 -10.241 -10.241 -10.227
-10.227 -10.207 -10.206 -10.206 -10.206 -10.205 -10.205  -7.981
 -7.981  -7.981  -5.945  -5.945  -5.945  -5.941  -5.941  -5.941
 -5.938  -5.938  -5.937  -0.907  -0.893  -0.877  -0.788  -0.757
 -0.746  -0.745  -0.732  -0.698  -0.618  -0.598  -0.570  -0.560
 -0.536  -0.535  -0.530  -0.502  -0.462  -0.423  -0.422  -0.417
 -0.416  -0.409  -0.402  -0.398  -0.388  -0.379  -0.370  -0.362
 -0.350  -0.343  -0.299  -0.268  -0.263  -0.260  -0.249  -0.200
 -- Virtual --
 -0.073  -0.032  -0.008  -0.005   0.000   0.007   0.007   0.008
  0.011   0.016   0.024   0.029   0.030   0.033   0.040   0.044
  0.047   0.051   0.054   0.055   0.061   0.064   0.072   0.079
  0.082   0.087   0.088   0.092   0.098   0.105   0.108   0.111
  0.113   0.118   0.121   0.124   0.126   0.126   0.129   0.133
  0.137   0.141   0.144   0.148   0.150   0.154   0.157   0.165
  0.166   0.171   0.171   0.176   0.181   0.183   0.186   0.192
  0.195   0.202   0.205   0.207   0.213   0.218   0.219   0.224
  0.227   0.237   0.237   0.241   0.245   0.252   0.266   0.269
  0.270   0.276   0.279   0.286   0.288   0.294   0.307   0.309
  0.323   0.325   0.341   0.344   0.355   0.361   0.364   0.367
  0.373   0.382   0.395   0.398   0.453   0.456   0.466   0.501
  0.508   0.514   0.520   0.526   0.568   0.569   0.577   0.584
  0.602   0.606   0.624   0.627   0.649   0.651   0.655   0.661
  0.662   0.664   0.677   0.689   0.699   0.713   0.715   0.718
  0.725   0.731   0.739   0.757   0.761   0.780   0.782   0.788
  0.820   0.822   0.828   0.834   0.837   0.853   0.869   0.885
  0.931   0.933   0.938   0.944   0.953   0.959   0.960   0.968
  0.971   0.980   0.985   0.988   0.995   1.003   1.028   1.029
  1.052   1.057   1.076   1.085   1.100   1.105   1.111   1.114
  1.151   1.157   1.166   1.176   1.185   1.210   1.238   1.250
  1.267   1.274   1.283   1.317   1.331   1.341   1.344   1.350
  1.359   1.361   1.371   1.450   1.467   1.488   1.496   1.502
  1.514   1.550   1.584   1.642   1.676   1.688   1.709   1.734
  1.798   1.833   1.862   1.867   1.893   1.895   1.909   1.913
  1.926   1.928   1.956   1.962   2.007   2.037   2.061   2.065
  2.074   2.102   2.113   2.161   2.171   2.181   2.193   2.202
  2.225   2.233   2.256   2.277   2.290   2.332   2.362   2.363
  2.417   2.440   2.443   2.448   2.466   2.469   2.480   2.499
  2.525   2.533   2.537   2.545   2.570   2.588   2.610   2.637
  2.667   2.687   2.705   2.716   2.722   2.830   2.868   2.884
  2.924   2.928   2.942   2.954   3.129   3.179   3.223   3.271
  3.271   3.326   3.414   3.415   3.670   3.729   3.739   3.972
  3.980   3.982   4.258   4.269   4.308   4.319   4.323   4.337
  4.387   4.481   4.550   4.648   4.696   4.729
 --------------------------------------------------------------
 
          Ground-State Mulliken Net Atomic Charges

     Atom                 Charge (a.u.)
  ----------------------------------------
      1 H                     0.196571
      2 H                     0.119747
      3 C                     0.013356
      4 C                    -0.302327
      5 S                    -0.102036
      6 C                     0.615331
      7 H                     0.134905
      8 C                    -0.429006
      9 H                     0.126907
     10 C                    -0.242192
     11 C                     0.134255
     12 S                    -0.422507
     13 C                     0.036075
     14 H                     0.118790
     15 C                    -0.232944
     16 C                    -0.410554
     17 H                     0.126153
     18 C                     0.608870
     19 S                    -0.130275
     20 C                    -0.290463
     21 C                     0.011867
     22 H                     0.121133
     23 H                     0.198347
  ----------------------------------------
  Sum of atomic charges =     0.000000

 -----------------------------------------------------------------
                    Cartesian Multipole Moments
 -----------------------------------------------------------------
    Charge (ESU x 10^10)
                 0.0000
    Dipole Moment (Debye)
         X       0.0118      Y       0.5047      Z       0.0166
       Tot       0.5051
    Quadrupole Moments (Debye-Ang)
        XX     -90.3609     XY      -0.0041     YY    -101.5024
        XZ      -0.1201     YZ       2.6867     ZZ    -115.7921
    Octopole Moments (Debye-Ang^2)
       XXX      -8.7039    XXY      18.3665    XYY      -0.1591
       YYY      10.0888    XXZ      14.5445    XYZ      -9.8373
       YYZ      11.0845    XZZ      -6.6554    YZZ       0.4394
       ZZZ      38.0717
    Hexadecapole Moments (Debye-Ang^3)
      XXXX   -6348.4469   XXXY      14.2999   XXYY   -1304.5586
      XYYY      30.8922   YYYY    -817.0628   XXXZ     -21.9492
      XXYZ       7.5650   XYYZ     -44.8207   YYYZ     -47.3977
      XXZZ   -1388.1671   XYZZ       4.0764   YYZZ    -188.1948
      XZZZ     -83.4028   YZZZ     -68.9383   ZZZZ    -224.8951
 -----------------------------------------------------------------
 Calculating analytic gradient of the SCF energy
 Gradient of SCF Energy
            1           2           3           4           5           6
    1   0.0000010   0.0000005   0.0000030   0.0000026  -0.0000100   0.0000021
    2   0.0000033   0.0000000  -0.0000088  -0.0000006   0.0000101  -0.0000087
    3  -0.0000013   0.0000009  -0.0000013  -0.0000038   0.0000356  -0.0000542
            7           8           9          10          11          12
    1  -0.0000022   0.0000140   0.0000033  -0.0000097   0.0000083  -0.0000029
    2  -0.0000015   0.0000201  -0.0000003  -0.0000070   0.0000095  -0.0000345
    3  -0.0000004   0.0000113   0.0000085  -0.0000047  -0.0000350   0.0000948
           13          14          15          16          17          18
    1  -0.0000041  -0.0000038   0.0000055  -0.0000002   0.0000002   0.0000183
    2   0.0000435  -0.0000095  -0.0000149  -0.0000185  -0.0000261   0.0000650
    3  -0.0001919   0.0000604   0.0000777   0.0000673   0.0000532  -0.0001746
           19          20          21          22          23
    1  -0.0000036  -0.0000163  -0.0000061   0.0000013  -0.0000012
    2  -0.0000200  -0.0000086   0.0000111  -0.0000034  -0.0000001
    3   0.0000548   0.0000010  -0.0000066   0.0000111  -0.0000028
 Max gradient component =       1.919E-04
 RMS gradient           =       4.056E-05
 Gradient time:  CPU 4.57 s  wall 4.58 s
 Geometry Optimization Parameters
   NAtoms,    NIC,     NZ,  NCons,   NDum,   NFix, NCnnct, MaxDiis
       23     166       0       1       0       0       0       0

 Cartesian Hessian Update
 Hessian Updated using BFGS Update


** CONSTRAINED OPTIMIZATION IN DELOCALIZED INTERNAL COORDINATES **
   Searching for a Minimum

   Optimization Cycle:   6

                       Coordinates (Angstroms)
     ATOM                X               Y               Z
      1  H         6.2303784839   -0.2326905560    0.1994770272
      2  H         5.3054177979    2.2225115836   -0.0901897728
      3  C         5.1968555588    0.0688937513    0.0989268081
      4  C         4.6882329889    1.3322151187   -0.0517269198
      5  S         3.9411069257   -1.1277949625    0.1222543777
      6  C         3.2684095798    1.3470638442   -0.1646866520
      7  H         2.6874068953    2.2508308598   -0.3113229557
      8  C         2.6967012806    0.0916333823   -0.0972248260
      9  H         1.3313132105   -2.3880610607   -0.6896459990
     10  C         1.2981758345   -0.2793133468   -0.1816850923
     11  C         0.7378488145   -1.5078874521   -0.4685925761
     12  S         0.0373671926    0.9090819336    0.1016894793
     13  C        -0.6802902644   -1.5032652962   -0.4647860292
     14  H        -1.2791663389   -2.3849778356   -0.6641850576
     15  C        -1.2327399483   -0.2702704813   -0.1795311532
     16  C        -2.6288093231    0.1095135750   -0.0997117662
     17  H        -2.5913098245    2.1049759740    0.7542202104
     18  C        -3.1850131140    1.2859137731    0.3636496232
     19  S        -3.8941495770   -0.9853363633   -0.6353253473
     20  C        -4.6075535991    1.3089908634    0.2962461333
     21  C        -5.1346969867    0.1530356512   -0.2161163014
     22  H        -5.2125362710    2.1480105084    0.6203130329
     23  H        -6.1737101059   -0.1009246040   -0.3747104935
   Point Group: c1    Number of degrees of freedom:    63


   Energy is  -1656.664241512

              Constraints and their Current Values
                                        Value     Constraint
   Dihedral:       13  15  16  18      170.000      170.000
 Hessian Updated using BFGS Update

 61 Hessian modes will be used to form the next step
  Hessian Eigenvalues:
     0.006714    0.025777    0.045000    0.045000    0.045000    0.045000
     0.045000    0.045001    0.045002    0.045002    0.045003    0.045004
     0.045009    0.045014    0.045016    0.045279    0.047999    0.060288
     0.159836    0.159918    0.159960    0.159989    0.159994    0.160002
     0.160145    0.160782    0.221313    0.221637    0.227561    0.237907
     0.241051    0.249801    0.249996    0.250277    0.250690    0.256989
     0.293451    0.293718    0.294758    0.295289    0.312570    0.312685
     0.354738    0.354748    0.354750    0.354917    0.355165    0.355170
     0.358373    0.358408    0.383284    0.386418    0.405856    0.408231
     0.418122    0.459110    0.462012    0.463479    0.485644    0.497312
     0.497862

 Minimum Search - Taking Simple RFO Step
 Searching for Lamda that Minimizes Along All modes
 Value Taken    Lamda =  -0.00000122
 Step Taken.  Stepsize is  0.011407

                             Maximum     Tolerance    Cnvgd?
         Gradient           0.000069      0.000300     YES
         Displacement       0.004449      0.001200      NO
         Energy change     -0.000001      0.000001     YES

 Final energy is   -1656.66424151186     


 ******************************
 **  OPTIMIZATION CONVERGED  **
 ******************************

                       Coordinates (Angstroms)
     ATOM                X               Y               Z
      1  H         6.2303784839   -0.2326905560    0.1994770272
      2  H         5.3054177979    2.2225115836   -0.0901897728
      3  C         5.1968555588    0.0688937513    0.0989268081
      4  C         4.6882329889    1.3322151187   -0.0517269198
      5  S         3.9411069257   -1.1277949625    0.1222543777
      6  C         3.2684095798    1.3470638442   -0.1646866520
      7  H         2.6874068953    2.2508308598   -0.3113229557
      8  C         2.6967012806    0.0916333823   -0.0972248260
      9  H         1.3313132105   -2.3880610607   -0.6896459990
     10  C         1.2981758345   -0.2793133468   -0.1816850923
     11  C         0.7378488145   -1.5078874521   -0.4685925761
     12  S         0.0373671926    0.9090819336    0.1016894793
     13  C        -0.6802902644   -1.5032652962   -0.4647860292
     14  H        -1.2791663389   -2.3849778356   -0.6641850576
     15  C        -1.2327399483   -0.2702704813   -0.1795311532
     16  C        -2.6288093231    0.1095135750   -0.0997117662
     17  H        -2.5913098245    2.1049759740    0.7542202104
     18  C        -3.1850131140    1.2859137731    0.3636496232
     19  S        -3.8941495770   -0.9853363633   -0.6353253473
     20  C        -4.6075535991    1.3089908634    0.2962461333
     21  C        -5.1346969867    0.1530356512   -0.2161163014
     22  H        -5.2125362710    2.1480105084    0.6203130329
     23  H        -6.1737101059   -0.1009246040   -0.3747104935

Z-matrix Print:
$molecule
0 1
S 
C  1 1.755626
C  2 1.380462 1 110.149940
H  3 1.084329 2 122.862692 1 179.248030 0
C  3 1.418152 2 113.730547 1 0.080833 0
H  5 1.084357 3 123.307914 2 -179.622754 0
C  5 1.380886 3 113.799043 2 0.213056 0
C  7 1.449005 5 129.113728 3 179.482843 0
C  8 1.381298 7 129.024774 5 170.000000 0
H  9 1.084385 8 122.931956 7 -0.677733 0
C  9 1.424323 8 113.583649 7 -179.819504 0
H  11 1.083964 9 123.766876 8 179.714214 0
C  11 1.369901 9 112.851882 8 0.047088 0
H  13 1.081294 11 128.520964 9 179.751518 0
C  2 1.449348 1 120.684942 3 -179.918438 0
C  15 1.381125 2 128.993322 1 -19.192115 0
H  16 1.084371 15 122.847993 2 -0.861348 0
C  16 1.424387 15 113.532424 2 -179.610135 0
H  18 1.083985 16 123.791079 15 179.540833 0
C  18 1.370173 16 112.852021 15 0.110533 0
H  20 1.081311 18 128.475897 16 179.519724 0
S  20 1.734795 18 111.641332 16 -0.609286 0
S  13 1.735104 11 111.645251 9 -0.326179 0
$end

 
 --------------------------------------------------------------
 
                    Orbital Energies (a.u.)
 --------------------------------------------------------------
 
 Alpha MOs
 -- Occupied --
-88.921 -88.921 -88.921 -10.242 -10.242 -10.241 -10.241 -10.227
-10.227 -10.207 -10.206 -10.206 -10.206 -10.205 -10.205  -7.981
 -7.981  -7.981  -5.945  -5.945  -5.945  -5.941  -5.941  -5.941
 -5.938  -5.938  -5.937  -0.907  -0.893  -0.877  -0.788  -0.757
 -0.746  -0.745  -0.732  -0.698  -0.618  -0.598  -0.570  -0.560
 -0.536  -0.535  -0.530  -0.502  -0.462  -0.423  -0.422  -0.417
 -0.416  -0.409  -0.402  -0.398  -0.388  -0.379  -0.370  -0.362
 -0.350  -0.343  -0.299  -0.268  -0.263  -0.260  -0.249  -0.200
 -- Virtual --
 -0.073  -0.032  -0.008  -0.005   0.000   0.007   0.007   0.008
  0.011   0.016   0.024   0.029   0.030   0.033   0.040   0.044
  0.047   0.051   0.054   0.055   0.061   0.064   0.072   0.079
  0.082   0.087   0.088   0.092   0.098   0.105   0.108   0.111
  0.113   0.118   0.121   0.124   0.126   0.126   0.129   0.133
  0.137   0.141   0.144   0.148   0.150   0.154   0.157   0.165
  0.166   0.171   0.171   0.176   0.181   0.183   0.186   0.192
  0.195   0.202   0.205   0.207   0.213   0.218   0.219   0.224
  0.227   0.237   0.237   0.241   0.245   0.252   0.266   0.269
  0.270   0.276   0.279   0.286   0.288   0.294   0.307   0.309
  0.323   0.325   0.341   0.344   0.355   0.361   0.364   0.367
  0.373   0.382   0.395   0.398   0.453   0.456   0.466   0.501
  0.508   0.514   0.520   0.526   0.568   0.569   0.577   0.584
  0.602   0.606   0.624   0.627   0.649   0.651   0.655   0.661
  0.662   0.664   0.677   0.689   0.699   0.713   0.715   0.718
  0.725   0.731   0.739   0.757   0.761   0.780   0.782   0.788
  0.820   0.822   0.828   0.834   0.837   0.853   0.869   0.885
  0.931   0.933   0.938   0.944   0.953   0.959   0.960   0.968
  0.971   0.980   0.985   0.988   0.995   1.003   1.028   1.029
  1.052   1.057   1.076   1.085   1.100   1.105   1.111   1.114
  1.151   1.157   1.166   1.176   1.185   1.210   1.238   1.250
  1.267   1.274   1.283   1.317   1.331   1.341   1.344   1.350
  1.359   1.361   1.371   1.450   1.467   1.488   1.496   1.502
  1.514   1.550   1.584   1.642   1.676   1.688   1.709   1.734
  1.798   1.833   1.862   1.867   1.893   1.895   1.909   1.913
  1.926   1.928   1.956   1.962   2.007   2.037   2.061   2.065
  2.074   2.102   2.113   2.161   2.171   2.181   2.193   2.202
  2.225   2.233   2.256   2.277   2.290   2.332   2.362   2.363
  2.417   2.440   2.443   2.448   2.466   2.469   2.480   2.499
  2.525   2.533   2.537   2.545   2.570   2.588   2.610   2.637
  2.667   2.687   2.705   2.716   2.722   2.830   2.868   2.884
  2.924   2.928   2.942   2.954   3.129   3.179   3.223   3.271
  3.271   3.326   3.414   3.415   3.670   3.729   3.739   3.972
  3.980   3.982   4.258   4.269   4.308   4.319   4.323   4.337
  4.387   4.481   4.550   4.648   4.696   4.729
 --------------------------------------------------------------
 
          Ground-State Mulliken Net Atomic Charges

     Atom                 Charge (a.u.)
  ----------------------------------------
      1 H                     0.196571
      2 H                     0.119747
      3 C                     0.013356
      4 C                    -0.302327
      5 S                    -0.102036
      6 C                     0.615331
      7 H                     0.134905
      8 C                    -0.429006
      9 H                     0.126907
     10 C                    -0.242192
     11 C                     0.134255
     12 S                    -0.422507
     13 C                     0.036075
     14 H                     0.118790
     15 C                    -0.232944
     16 C                    -0.410554
     17 H                     0.126153
     18 C                     0.608870
     19 S                    -0.130275
     20 C                    -0.290463
     21 C                     0.011867
     22 H                     0.121133
     23 H                     0.198347
  ----------------------------------------
  Sum of atomic charges =     0.000000

 -----------------------------------------------------------------
                    Cartesian Multipole Moments
 -----------------------------------------------------------------
    Charge (ESU x 10^10)
                 0.0000
    Dipole Moment (Debye)
         X       0.0118      Y       0.5047      Z       0.0166
       Tot       0.5051
    Quadrupole Moments (Debye-Ang)
        XX     -90.3609     XY      -0.0041     YY    -101.5024
        XZ      -0.1201     YZ       2.6867     ZZ    -115.7921
    Octopole Moments (Debye-Ang^2)
       XXX      -8.7039    XXY      18.3665    XYY      -0.1591
       YYY      10.0888    XXZ      14.5445    XYZ      -9.8373
       YYZ      11.0845    XZZ      -6.6554    YZZ       0.4394
       ZZZ      38.0717
    Hexadecapole Moments (Debye-Ang^3)
      XXXX   -6348.4469   XXXY      14.2999   XXYY   -1304.5586
      XYYY      30.8922   YYYY    -817.0628   XXXZ     -21.9492
      XXYZ       7.5650   XYYZ     -44.8207   YYYZ     -47.3977
      XXZZ   -1388.1671   XYZZ       4.0764   YYZZ    -188.1948
      XZZZ     -83.4028   YZZZ     -68.9383   ZZZZ    -224.8951
 -----------------------------------------------------------------
Archival summary:
1\1\nid00549\OPT\ProcedureUnspecified\BasisUnspecified\3128\bwood\TueMay3010:54:182017TueMay3010:54:182017\0\\#,OPT,ProcedureUnspecified,BasisUnspecified,\\0,1\S\C,1,1.75563\C,2,1.38046,1,110.15\H,3,1.08433,2,122.863,1,179.248,0\C,3,1.41815,2,113.731,1,0.0808328,0\H,5,1.08436,3,123.308,2,-179.623,0\C,5,1.38089,3,113.799,2,0.213056,0\C,7,1.44901,5,129.114,3,179.483,0\C,8,1.3813,7,129.025,5,170,0\H,9,1.08439,8,122.932,7,-0.677733,0\C,9,1.42432,8,113.584,7,-179.82,0\H,11,1.08396,9,123.767,8,179.714,0\C,11,1.3699,9,112.852,8,0.0470882,0\H,13,1.08129,11,128.521,9,179.752,0\C,2,1.44935,1,120.685,3,-179.918,0\C,15,1.38113,2,128.993,1,-19.1921,0\H,16,1.08437,15,122.848,2,-0.861348,0\C,16,1.42439,15,113.532,2,-179.61,0\H,18,1.08399,16,123.791,15,179.541,0\C,18,1.37017,16,112.852,15,0.110533,0\H,20,1.08131,18,128.476,16,179.52,0\S,20,1.73479,18,111.641,16,-0.609286,0\S,13,1.7351,11,111.645,9,-0.326179,0\\\@

 Total job time:  96.10s(wall), 100.99s(cpu) 
 Tue May 30 10:54:18 2017

        *************************************************************
        *                                                           *
        *  Thank you very much for using Q-Chem.  Have a nice day.  *
        *                                                           *
        *************************************************************


0 sent ACK to 0 
now end server 0 ... 
