srun -N 1 --ntasks-per-node 22 --cpus-per-task 2 --cpu_bind=cores --nodelist nid00485 /global/project/projectdirs/jcesr/qchem/qc44/cnl_qc441/dist/exe/qcprog.cori.haswell.exe .pt_nn_neutral_-110.0.in.36529.qcin.1 /dev/shm/eg_qchem/qchem36529/
Process 4 of 22 is on nid00485 - thread support 0
Process 5 of 22 is on nid00485 - thread support 0
Process 3 of 22 is on nid00485 - thread support 0
Process 21 of 22 is on nid00485 - thread support 0
Process 1 of 22 is on nid00485 - thread support 0
Process 2 of 22 is on nid00485 - thread support 0
Process 6 of 22 is on nid00485 - thread support 0
Process 0 of 22 is on nid00485 - thread support 0
initial socket setup ...start
initial socket setup ...done 
now start server 0 ... 
nid00485 10.128.1
Q-Chem Developer Version! Running on 10.128.1.*
                  Welcome to Q-Chem
     A Quantum Leap Into The Future Of Chemistry


 Q-Chem 4.4, Q-Chem, Inc., Pleasanton, CA (2016)

 Y. Shao,  Z. Gan,  E. Epifanovsky,  A. T. B. Gilbert,  M. Wormit,  
 J. Kussmann,  A. W. Lange,  A. Behn,  J. Deng,  X. Feng,  D. Ghosh,  
 M. Goldey,  P. R. Horn,  L. D. Jacobson,  I. Kaliman,  F. Rob,  
 R. Z. Khaliullin,  T. Kus,  A. Landau,  J. Liu,  E. I. Proynov,  Y. M. Rhee,  
 R. M. Richard,  M. A. Rohrdanz,  R. P. Steele,  E. J. Sundstrom,  
 H. L. Woodcock III,  P. M. Zimmerman,  D. Zuev,  B. Albrecht,  E. Alguire,  
 B. Austin,  S. A. Baeppler,  G. J. O. Beran,  Y. A. Bernard,  
 E. J. Berquist,  K. Brandhorst,  K. B. Bravaya,  S. T. Brown,  D. Casanova,  
 C.-M. Chang,  Y. Chen,  S. H. Chien,  K. D. Closser,  M. P. Coons,  
 D. L. Crittenden,  S. Dasgupta,  M. Diedenhofen,  R. A. DiStasio Jr.,  
 H. Do,  A. D. Dutoi,  R. G. Edgar,  P.-T. Fang,  S. Fatehi,  Q. Feng,  
 L. Fusti-Molnar,  A. Ghysels,  A. Golubeva-Zadorozhnaya,  J. Gomes,  
 A. Gunina,  M. W. D. Hanson-Heine,  P. H. P. Harbach,  A. W. Hauser,  
 J. E. Herr,  E. G. Hohenstein,  Z. C. Holden,  K. Hui,  T.-C. Jagau,  H. Ji,  
 B. Kaduk,  K. Khistyaev,  Jaehoon Kim,  Jihan Kim,  R. A. King,  
 P. Klunzinger,  K. Koh,  D. Kosenkov,  T. Kowalczyk,  C. M. Krauter,  
 A. Kunitsa,  K. U. Lao,  A. Laurent,  K. V. Lawler,  J. Lee,  D. Lefrancois,  
 S. Lehtola,  S. V. Levchenko,  C. Y. Lin,  Y.-S. Lin,  F. Liu,  E. Livshits,  
 R. C. Lochan,  A. Luenser,  P. Manohar,  S. F. Manzer,  S.-P. Mao,  Y. Mao,  
 N. Mardirossian,  A. V. Marenich,  L. A. Martinez-Martinez,  S. A. Maurer,  
 N. J. Mayhall,  J.-M. Mewes,  A. F. Morrison,  K. Nanda,  T. S. Nguyen-Beck,  
 C. M. Oana,  R. Olivares-Amaya,  D. P. O'Neill,  J. A. Parkhill,  
 T. M. Perrine,  R. Peverati,  P. A. Pieniazek,  F. Plasser,  A. Prociuk,  
 D. R. Rehn,  E. Rosta,  N. J. Russ,  N. Sergueev,  S. M. Sharada,  
 S. Sharma,  D. W. Small,  A. Sodt,  T. Stauch,  T. Stein,  D. Stuck,  
 Y.-C. Su,  A. J. W. Thom,  T. Tsuchimochi,  L. Vogt,  O. Vydrov,  T. Wang,  
 M. A. Watson,  J. Wenzel,  A. White,  C. F. Williams,  V. Vanovschi,  
 K. Yao,  S. Yeganeh,  S. R. Yost,  Z.-Q. You,  I. Y. Zhang,  X. Zhang,  
 Y. Zhao,  B. R. Brooks,  G. K. L. Chan,  D. M. Chipman,  C. J. Cramer,  
 W. A. Goddard III,  M. S. Gordon,  W. J. Hehre,  A. Klamt,  
 H. F. Schaefer III,  M. W. Schmidt,  C. D. Sherrill,  D. G. Truhlar,  
 A. Warshel,  X. Xu,  A. Aspuru-Guzik,  R. Baer,  A. T. Bell,  N. A. Besley,  
 J.-D. Chai,  A. Dreuw,  B. D. Dunietz,  T. R. Furlani,  S. R. Gwaltney,  
 C.-P. Hsu,  Y. Jung,  J. Kong,  D. S. Lambrecht,  W. Liang,  C. Ochsenfeld,  
 V. A. Rassolov,  L. V. Slipchenko,  J. E. Subotnik,  T. Van Voorhis,  
 J. M. Herbert,  A. I. Krylov,  P. M. W. Gill,  M. Head-Gordon

 Contributors to earlier versions of Q-Chem not listed above: 
 R. D. Adamson,  J. Baker,  E. F. C. Byrd,  A. K. Chakraborty,  C.-L. Cheng,  
 H. Dachsel,  R. J. Doerksen,  G. Hawkins,  A. Heyden,  S. Hirata,  
 G. Kedziora,  F. J. Keil,  C. Kelley,  P. P. Korambath,  W. Kurlancheek,  
 A. M. Lee,  M. S. Lee,  D. Liotard,  I. Lotan,  P. E. Maslen,  N. Nair,  
 D. Neuhauser,  R. Olson,  B. Peters,  J. Ritchie,  N. E. Schultz,  
 N. Shenvi,  A. C. Simmonett,  K. S. Thanthiriwatte,  Q. Wu,  W. Zhang

 Please cite Q-Chem as follows:
 Y. Shao et al., Mol. Phys. 113, 184-215 (2015)
 DOI: 10.1080/00268976.2014.952696

 Q-Chem 4.4.2 for Intel X86 EM64T Linux

 Parts of Q-Chem use Armadillo 5.200.1 (Boston Tea Smuggler).
 http://arma.sourceforge.net/

 Q-Chem begins on Tue May 30 10:52:41 2017  

Host: nid00478
0

     Scratch files written to /dev/shm/eg_qchem/qchem36529.0//
 Parallel job on  22  processors

Checking the input file for inconsistencies... 	...done.

--------------------------------------------------------------
User input:
--------------------------------------------------------------
$molecule
 0  1
 H           6.23254100       -0.22338900        0.17638100
 H           5.29752400        2.22850500       -0.10953100
 C           5.19733500        0.07486000        0.08356300
 C           4.68347900        1.33634400       -0.06443600
 S           3.94559900       -1.12581000        0.11905200
 C           3.26267300        1.34659400       -0.16511200
 H           2.67740100        2.24810800       -0.30841700
 C           2.69562400        0.08941900       -0.09094600
 H           1.33241900       -2.39005500       -0.68762600
 C           1.29739300       -0.28590200       -0.16150800
 C           0.73808300       -1.51455700       -0.45078400
 S           0.03601800        0.89451200        0.14982500
 C          -0.68041100       -1.51067300       -0.44936800
 H          -1.28012400       -2.38277100       -0.68510300
 C          -1.23220500       -0.27900200       -0.15852500
 C          -2.62830100        0.10383400       -0.08465000
 H          -2.92409045        1.37020064       -1.82140327
 C          -3.35336453        0.91417908       -0.93620268
 S          -3.65271224       -0.47152993        1.22020965
 C          -4.71720197        1.06478236       -0.55373719
 C          -5.03039072        0.36972633        0.58472815
 H          -5.43664369        1.65742485       -1.10710885
 H          -5.98367097        0.30162021        1.09053006
$end


$rem
         jobtype = opt
        exchange = b3lyp
           basis = 6-31++g**
  max_scf_cycles = 150
      mem_static = 281
       mem_total = 2818
      sym_ignore = true
        symmetry = false
          thresh = 12
$end


$opt
CONSTRAINT
tors 13 15 16 18 -110.0
ENDCONSTRAINT
$end

--------------------------------------------------------------
 ----------------------------------------------------------------
             Standard Nuclear Orientation (Angstroms)
    I     Atom           X                Y                Z
 ----------------------------------------------------------------
    1      H       6.2325410000    -0.2233890000     0.1763810000
    2      H       5.2975240000     2.2285050000    -0.1095310000
    3      C       5.1973350000     0.0748600000     0.0835630000
    4      C       4.6834790000     1.3363440000    -0.0644360000
    5      S       3.9455990000    -1.1258100000     0.1190520000
    6      C       3.2626730000     1.3465940000    -0.1651120000
    7      H       2.6774010000     2.2481080000    -0.3084170000
    8      C       2.6956240000     0.0894190000    -0.0909460000
    9      H       1.3324190000    -2.3900550000    -0.6876260000
   10      C       1.2973930000    -0.2859020000    -0.1615080000
   11      C       0.7380830000    -1.5145570000    -0.4507840000
   12      S       0.0360180000     0.8945120000     0.1498250000
   13      C      -0.6804110000    -1.5106730000    -0.4493680000
   14      H      -1.2801240000    -2.3827710000    -0.6851030000
   15      C      -1.2322050000    -0.2790020000    -0.1585250000
   16      C      -2.6283010000     0.1038340000    -0.0846500000
   17      H      -2.9240904500     1.3702006400    -1.8214032700
   18      C      -3.3533645300     0.9141790800    -0.9362026800
   19      S      -3.6527122400    -0.4715299300     1.2202096500
   20      C      -4.7172019700     1.0647823600    -0.5537371900
   21      C      -5.0303907200     0.3697263300     0.5847281500
   22      H      -5.4366436900     1.6574248500    -1.1071088500
   23      H      -5.9836709700     0.3016202100     1.0905300600
 ----------------------------------------------------------------
 Nuclear Repulsion Energy =  1172.9005181716 hartrees
 There are       64 alpha and       64 beta electrons
 Requested basis set is 6-31++G(d,p)
 There are 110 shells and 345 basis functions

 Total QAlloc Memory Limit   2818 MB
 Mega-Array Size       275 MB
 MEM_STATIC part       281 MB
 A cutoff of  1.0D-12 yielded   4679 shell pairs
 There are     47624 function pairs

 Q-Chem warning in module /project/projectdirs/jcesr/qchem/qc44/cnl_qc441/compile/cori/qc_src/libqints/qchem/aobasis.C, line 68:

 Using reconstructed effective core potential

 
 -------------------------------------------------------
 OpenMP Integral Computing Module                       
 Release: version 1.0, May 2013, Q-Chem Inc. Pittsburgh 
 -------------------------------------------------------
 Integral Job Info:
 Integral job number is                      11
 Integral operator is                         1
 short-range coefficients                     0
 long-range coefficients              100000000
 Omega coefficients                           0
 if combine SR and LR in K                    0
 Integral screening is                        0
 Integral computing path is                   2
 max size of driver memory is            800000
 size of driver memory is                593474
 size of scratch memory is             15166112
 max col of scratch BK array               1296
 max len of scratch array in speh3          155
 max len of scratch index in speh4           18
 max int batch size is                      520
 min int batch size is                       52
 fixed nKL is                                52
 max L of basis functions is                  2
 order of int derivative is                   0
 number of shells is                        110
 number of basis is                         345
 number of cartesian basis is               345
 number of contracted shell pairs          4679
 number of primitive shell pairs          14603
 maxK2 (contraction) of shell pair           36
 max number of K2 of shell pair               1
 max number of CS2 of shell pair            516
 max number of PS2 of shell pair           3030
 mem total for path MDJ                  101288
 -------------------------------------------------------
 Smallest overlap matrix eigenvalue = 8.61E-08
 Linear dependence detected in AO basis
 Number of orthogonalized atomic orbitals = 343
 Maximum deviation from orthogonality = 1.124E-10

 Scale SEOQF with 1.000000e-02/1.000000e-01/1.000000e-01

 Standard Electronic Orientation quadrupole field applied
 Nucleus-field energy     =     0.0000000094 hartrees
 Guess from superposition of atomic densities
 Warning:  Energy on first SCF cycle will be non-variational
 A restricted hybrid HF-DFT SCF calculation will be
 performed using Pulay DIIS extrapolation
 Exchange:     0.2000 Hartree-Fock + 0.0800 Slater + 0.7200 B88
 Correlation:  0.1900 VWN1RPA + 0.8100 LYP
 Using SG-1 standard quadrature grid
 SCF converges when DIIS error is below 1.0E-08
 ---------------------------------------
  Cycle       Energy         DIIS Error
 ---------------------------------------
    1   -1660.2791322148      3.67E-02
    2   -1656.4108772079      3.87E-03
    3   -1656.0506444962      5.93E-03
    4   -1656.6393864702      1.13E-03
    5   -1656.6551575700      5.99E-04
    6   -1656.6603633298      1.90E-04
    7   -1656.6609192205      6.90E-05
    8   -1656.6609905980      1.38E-05
    9   -1656.6609933568      3.95E-06
   10   -1656.6609935459      2.25E-06
   11   -1656.6609936329      3.67E-07
   12   -1656.6609936340      2.47E-07
   13   -1656.6609936362      6.10E-08
   14   -1656.6609936365      2.41E-08
   15   -1656.6609936372      9.48E-09 Convergence criterion met
 ---------------------------------------
 SCF time:  CPU 16.34 s  wall 15.16 s
 SCF   energy in the final basis set = -1656.6609936372
 Total energy in the final basis set = -1656.6609936372
 
 --------------------------------------------------------------
 
                    Orbital Energies (a.u.)
 --------------------------------------------------------------
 
 Alpha MOs
 -- Occupied --
-88.921 -88.921 -88.921 -10.241 -10.240 -10.238 -10.237 -10.226
-10.226 -10.206 -10.206 -10.205 -10.205 -10.205 -10.204  -7.980
 -7.980  -7.980  -5.945  -5.944  -5.944  -5.941  -5.940  -5.940
 -5.938  -5.937  -5.937  -0.905  -0.891  -0.875  -0.786  -0.754
 -0.745  -0.743  -0.733  -0.697  -0.617  -0.594  -0.569  -0.562
 -0.537  -0.534  -0.527  -0.500  -0.462  -0.421  -0.419  -0.417
 -0.416  -0.407  -0.403  -0.399  -0.384  -0.375  -0.369  -0.358
 -0.351  -0.344  -0.282  -0.267  -0.262  -0.259  -0.246  -0.210
 -- Virtual --
 -0.064  -0.034  -0.010  -0.007  -0.005   0.002   0.008   0.009
  0.011   0.019   0.023   0.025   0.029   0.033   0.037   0.042
  0.047   0.049   0.052   0.054   0.058   0.062   0.074   0.075
  0.080   0.087   0.093   0.095   0.100   0.103   0.107   0.110
  0.110   0.118   0.123   0.124   0.125   0.125   0.128   0.130
  0.134   0.138   0.143   0.145   0.147   0.149   0.153   0.156
  0.160   0.168   0.170   0.175   0.176   0.179   0.181   0.195
  0.199   0.201   0.203   0.206   0.210   0.213   0.217   0.221
  0.230   0.234   0.234   0.240   0.249   0.254   0.259   0.262
  0.266   0.268   0.274   0.280   0.281   0.287   0.294   0.307
  0.311   0.318   0.326   0.330   0.337   0.348   0.355   0.358
  0.364   0.376   0.379   0.396   0.398   0.450   0.456   0.461
  0.490   0.508   0.520   0.523   0.542   0.559   0.569   0.577
  0.582   0.601   0.608   0.627   0.639   0.641   0.654   0.660
  0.665   0.667   0.677   0.691   0.702   0.712   0.716   0.720
  0.726   0.728   0.742   0.747   0.756   0.774   0.783   0.786
  0.802   0.810   0.812   0.823   0.831   0.839   0.847   0.875
  0.895   0.931   0.932   0.936   0.952   0.957   0.961   0.966
  0.967   0.974   0.980   0.984   0.993   0.996   1.001   1.020
  1.032   1.041   1.048   1.059   1.079   1.080   1.094   1.108
  1.109   1.126   1.149   1.154   1.170   1.185   1.204   1.222
  1.249   1.262   1.275   1.287   1.310   1.331   1.346   1.349
  1.355   1.362   1.367   1.390   1.449   1.461   1.475   1.496
  1.506   1.527   1.551   1.561   1.602   1.684   1.693   1.726
  1.769   1.801   1.838   1.854   1.872   1.881   1.895   1.902
  1.922   1.927   1.952   1.962   1.996   2.007   2.017   2.054
  2.069   2.078   2.107   2.125   2.153   2.174   2.175   2.187
  2.198   2.237   2.245   2.257   2.285   2.300   2.337   2.363
  2.367   2.420   2.437   2.442   2.452   2.459   2.474   2.483
  2.499   2.515   2.523   2.533   2.564   2.582   2.596   2.603
  2.621   2.655   2.681   2.699   2.713   2.738   2.803   2.855
  2.871   2.894   2.910   2.941   2.944   3.138   3.171   3.208
  3.271   3.273   3.327   3.414   3.415   3.674   3.730   3.737
  3.971   3.976   3.983   4.253   4.290   4.306   4.318   4.328
  4.356   4.404   4.483   4.547   4.649   4.693   4.726
 --------------------------------------------------------------
 
          Ground-State Mulliken Net Atomic Charges

     Atom                 Charge (a.u.)
  ----------------------------------------
      1 H                     0.196829
      2 H                     0.119308
      3 C                     0.033938
      4 C                    -0.401369
      5 S                    -0.133310
      6 C                     0.533053
      7 H                     0.126794
      8 C                    -0.384456
      9 H                     0.126065
     10 C                    -0.088899
     11 C                    -0.096465
     12 S                    -0.038522
     13 C                     0.078651
     14 H                     0.125390
     15 C                    -0.204782
     16 C                    -0.467905
     17 H                     0.138019
     18 C                     0.312180
     19 S                     0.072767
     20 C                    -0.357585
     21 C                    -0.004117
     22 H                     0.120748
     23 H                     0.193667
  ----------------------------------------
  Sum of atomic charges =     0.000000

 -----------------------------------------------------------------
                    Cartesian Multipole Moments
 -----------------------------------------------------------------
    Charge (ESU x 10^10)
                 0.0000
    Dipole Moment (Debye)
         X      -0.0621      Y       0.3524      Z      -0.6614
       Tot       0.7520
    Quadrupole Moments (Debye-Ang)
        XX     -90.4307     XY      -0.3043     YY    -104.1369
        XZ       0.4532     YZ      -1.4623     ZZ    -112.4664
    Octopole Moments (Debye-Ang^2)
       XXX      -9.1665    XXY      22.1921    XYY       7.4507
       YYY      -7.8161    XXZ       7.5926    XYZ       7.2903
       YYZ     -12.4931    XZZ     -23.2809    YZZ      -0.2668
       ZZZ     -11.9998
    Hexadecapole Moments (Debye-Ang^3)
      XXXX   -6314.8192   XXXY      14.6367   XXYY   -1309.5317
      XYYY     121.8805   YYYY    -721.0604   XXXZ      60.6763
      XXYZ     -40.7124   XYYZ      50.1348   YYYZ      31.0374
      XXZZ   -1321.7203   XYZZ      14.3023   YYZZ    -187.6219
      XZZZ     111.0334   YZZZ      17.7469   ZZZZ    -358.3612
 -----------------------------------------------------------------
 Calculating analytic gradient of the SCF energy
 Gradient of SCF Energy
            1           2           3           4           5           6
    1  -0.0000168   0.0000039   0.0000862  -0.0001592   0.0000142   0.0002587
    2  -0.0000132  -0.0000059   0.0000534   0.0000588  -0.0002405   0.0005233
    3  -0.0000210  -0.0000127  -0.0000237   0.0000153   0.0000356   0.0001209
            7           8           9          10          11          12
    1   0.0000196  -0.0016467  -0.0001021   0.0020320  -0.0016599  -0.0010630
    2   0.0000077  -0.0003473   0.0000273  -0.0013824  -0.0001268   0.0009817
    3  -0.0000509  -0.0000565   0.0001403  -0.0009583   0.0003003   0.0013568
           13          14          15          16          17          18
    1   0.0020330   0.0008260  -0.0095329   0.0103858  -0.0010444  -0.0021026
    2  -0.0021588  -0.0005430   0.0048122  -0.0032472   0.0001637   0.0009215
    3  -0.0014331  -0.0005383   0.0018945   0.0019009  -0.0005338  -0.0020282
           19          20          21          22          23
    1   0.0012869   0.0011017  -0.0012371   0.0001139   0.0004029
    2  -0.0000974  -0.0001118   0.0009000  -0.0000080  -0.0001673
    3   0.0013769   0.0000134  -0.0017327   0.0000895   0.0001449
 Max gradient component =       1.039E-02
 RMS gradient           =       2.050E-03
 Gradient time:  CPU 4.58 s  wall 4.59 s
 Geometry Optimization Parameters
   NAtoms,    NIC,     NZ,  NCons,   NDum,   NFix, NCnnct, MaxDiis
       23     166       0       1       0       0       0       0


** CONSTRAINED OPTIMIZATION IN DELOCALIZED INTERNAL COORDINATES **
   Searching for a Minimum

   Optimization Cycle:   1

                       Coordinates (Angstroms)
     ATOM                X               Y               Z
      1  H         6.2325410000   -0.2233890000    0.1763810000
      2  H         5.2975240000    2.2285050000   -0.1095310000
      3  C         5.1973350000    0.0748600000    0.0835630000
      4  C         4.6834790000    1.3363440000   -0.0644360000
      5  S         3.9455990000   -1.1258100000    0.1190520000
      6  C         3.2626730000    1.3465940000   -0.1651120000
      7  H         2.6774010000    2.2481080000   -0.3084170000
      8  C         2.6956240000    0.0894190000   -0.0909460000
      9  H         1.3324190000   -2.3900550000   -0.6876260000
     10  C         1.2973930000   -0.2859020000   -0.1615080000
     11  C         0.7380830000   -1.5145570000   -0.4507840000
     12  S         0.0360180000    0.8945120000    0.1498250000
     13  C        -0.6804110000   -1.5106730000   -0.4493680000
     14  H        -1.2801240000   -2.3827710000   -0.6851030000
     15  C        -1.2322050000   -0.2790020000   -0.1585250000
     16  C        -2.6283010000    0.1038340000   -0.0846500000
     17  H        -2.9240904500    1.3702006400   -1.8214032700
     18  C        -3.3533645300    0.9141790800   -0.9362026800
     19  S        -3.6527122400   -0.4715299300    1.2202096500
     20  C        -4.7172019700    1.0647823600   -0.5537371900
     21  C        -5.0303907200    0.3697263300    0.5847281500
     22  H        -5.4366436900    1.6574248500   -1.1071088500
     23  H        -5.9836709700    0.3016202100    1.0905300600
   Point Group: c1    Number of degrees of freedom:    63


   Energy is  -1656.660993637

              Constraints and their Current Values
                                        Value     Constraint
   Dihedral:       13  15  16  18     -110.000     -110.000

 Attempting to Generate Delocalized Internal Coordinates

 62 Hessian modes will be used to form the next step
  Hessian Eigenvalues:
     0.045000    0.045000    0.045000    0.045000    0.045000    0.045000
     0.045000    0.045000    0.045000    0.045001    0.045002    0.045002
     0.045003    0.045003    0.045009    0.045010    0.045011    0.045018
     0.045019    0.159886    0.159939    0.159955    0.159957    0.159992
     0.159993    0.160000    0.160000    0.221281    0.221281    0.226855
     0.237826    0.237826    0.245311    0.249998    0.249998    0.250000
     0.250000    0.293636    0.293684    0.294746    0.294936    0.312571
     0.312615    0.354732    0.354740    0.354742    0.354756    0.355161
     0.355164    0.358372    0.358373    0.383080    0.383176    0.405793
     0.405832    0.413732    0.458107    0.461989    0.461995    0.485493
     0.497291    0.497294

 Minimum Search - Taking Simple RFO Step
 Searching for Lamda that Minimizes Along All modes
 Value Taken    Lamda =  -0.00040265
 Step Taken.  Stepsize is  0.049377

                             Maximum     Tolerance    Cnvgd?
         Gradient           0.003897      0.000300      NO
         Displacement       0.016953      0.001200      NO
         Energy change     *********      0.000001      NO


 New Cartesian Coordinates Obtained by Inverse Iteration

 Displacement from previous Coordinates is:  0.113458
 ----------------------------------------------------------------
             Standard Nuclear Orientation (Angstroms)
    I     Atom           X                Y                Z
 ----------------------------------------------------------------
    1      H       6.2384166687    -0.2272633621     0.1755385724
    2      H       5.3075089934     2.2254056241    -0.1174847216
    3      C       5.2037064792     0.0725258115     0.0819177189
    4      C       4.6920320663     1.3343642174    -0.0697508447
    5      S       3.9497183189    -1.1253955907     0.1209187985
    6      C       3.2710289193     1.3466334149    -0.1697926352
    7      H       2.6871115448     2.2487235704    -0.3149655280
    8      C       2.7018604918     0.0912727091    -0.0914664029
    9      H       1.3351835033    -2.3865162843    -0.6866572620
   10      C       1.3010475238    -0.2821604794    -0.1599476359
   11      C       0.7410738942    -1.5109392262    -0.4488040207
   12      S       0.0402787671     0.8965602923     0.1467764894
   13      C      -0.6796655863    -1.5067568526    -0.4434287172
   14      H      -1.2859988698    -2.3755443489    -0.6737214326
   15      C      -1.2294665688    -0.2788668203    -0.1506546755
   16      C      -2.6378073218     0.1069577999    -0.0786545739
   17      H      -2.9147953849     1.3796965882    -1.8039936760
   18      C      -3.3569517947     0.9180805663    -0.9282463939
   19      S      -3.6718477445    -0.4843896089     1.2114748567
   20      C      -4.7254773813     1.0642072030    -0.5544525365
   21      C      -5.0450224463     0.3614844833     0.5783334863
   22      H      -5.4421692715     1.6594831798    -1.1089360109
   23      H      -6.0027913709     0.2888576532     1.0758280152
 ----------------------------------------------------------------
 Nuclear Repulsion Energy =  1171.9025213662 hartrees
 There are       64 alpha and       64 beta electrons
 Applying Cartesian multipole field
    Component          Value
    ---------          -----
     (2,0,0)        1.00000E-12
     (0,2,0)        2.00000E-11
     (0,0,2)       -3.00000E-11
 Nucleus-field energy     =     0.0000000095 hartrees
 Requested basis set is 6-31++G(d,p)
 There are 110 shells and 345 basis functions
 A cutoff of  1.0D-12 yielded   4676 shell pairs
 There are     47592 function pairs

 Q-Chem warning in module /project/projectdirs/jcesr/qchem/qc44/cnl_qc441/compile/cori/qc_src/libqints/qchem/aobasis.C, line 68:

 Using reconstructed effective core potential

 Smallest overlap matrix eigenvalue = 8.87E-08
 Linear dependence detected in AO basis
 Number of orthogonalized atomic orbitals = 343
 Maximum deviation from orthogonality = 1.058E-10
 Guess MOs from SCF MO coefficient file
 Reading MOs from coefficient file
 Reading MOs from coefficient file
 A restricted hybrid HF-DFT SCF calculation will be
 performed using Pulay DIIS extrapolation
 Exchange:     0.2000 Hartree-Fock + 0.0800 Slater + 0.7200 B88
 Correlation:  0.1900 VWN1RPA + 0.8100 LYP
 Using SG-1 standard quadrature grid
 SCF converges when DIIS error is below 1.0E-08
 Geometry optimization detected.  Setting ReadMinima to 0
 Setting SaveMinima to 0
 ---------------------------------------
  Cycle       Energy         DIIS Error
 ---------------------------------------
    1   -1656.6612030320      3.07E-04
    2   -1656.6611914907      4.28E-05
    3   -1656.6611017366      8.68E-05
    4   -1656.6612221819      1.39E-05
    5   -1656.6612250041      4.79E-06
    6   -1656.6612253482      1.71E-06
    7   -1656.6612253925      5.95E-07
    8   -1656.6612254002      1.81E-07
    9   -1656.6612254031      6.29E-08
   10   -1656.6612254019      2.38E-08
   11   -1656.6612254007      6.74E-09 Convergence criterion met
 ---------------------------------------
 SCF time:  CPU 12.19 s  wall 11.24 s
 SCF   energy in the final basis set = -1656.6612254007
 Total energy in the final basis set = -1656.6612254007
 
 --------------------------------------------------------------
 
                    Orbital Energies (a.u.)
 --------------------------------------------------------------
 
 Alpha MOs
 -- Occupied --
-88.921 -88.921 -88.921 -10.241 -10.240 -10.238 -10.237 -10.226
-10.226 -10.206 -10.206 -10.205 -10.205 -10.205 -10.205  -7.981
 -7.980  -7.980  -5.945  -5.944  -5.944  -5.941  -5.941  -5.940
 -5.938  -5.937  -5.937  -0.905  -0.891  -0.876  -0.786  -0.754
 -0.745  -0.743  -0.733  -0.697  -0.616  -0.594  -0.569  -0.562
 -0.537  -0.534  -0.527  -0.501  -0.462  -0.421  -0.419  -0.416
 -0.416  -0.407  -0.404  -0.399  -0.384  -0.376  -0.370  -0.358
 -0.351  -0.344  -0.282  -0.267  -0.262  -0.259  -0.247  -0.211
 -- Virtual --
 -0.063  -0.033  -0.010  -0.007  -0.005   0.003   0.008   0.009
  0.011   0.019   0.023   0.025   0.029   0.033   0.037   0.042
  0.047   0.049   0.052   0.054   0.058   0.062   0.074   0.075
  0.080   0.087   0.093   0.094   0.100   0.103   0.107   0.110
  0.110   0.118   0.123   0.124   0.124   0.126   0.128   0.130
  0.134   0.138   0.142   0.145   0.147   0.149   0.152   0.155
  0.160   0.168   0.170   0.175   0.175   0.179   0.181   0.194
  0.198   0.201   0.203   0.206   0.210   0.213   0.217   0.220
  0.230   0.234   0.234   0.240   0.249   0.253   0.258   0.262
  0.266   0.268   0.273   0.279   0.281   0.287   0.294   0.307
  0.311   0.318   0.326   0.330   0.336   0.348   0.355   0.358
  0.364   0.376   0.378   0.396   0.399   0.450   0.457   0.461
  0.491   0.508   0.520   0.523   0.541   0.558   0.568   0.577
  0.582   0.601   0.609   0.626   0.639   0.641   0.654   0.660
  0.665   0.667   0.677   0.691   0.700   0.712   0.715   0.719
  0.726   0.728   0.742   0.747   0.756   0.774   0.783   0.786
  0.801   0.809   0.811   0.823   0.831   0.839   0.846   0.875
  0.895   0.931   0.932   0.937   0.952   0.957   0.961   0.965
  0.967   0.975   0.979   0.984   0.993   0.996   1.000   1.020
  1.032   1.041   1.048   1.058   1.079   1.080   1.095   1.108
  1.109   1.125   1.149   1.154   1.169   1.185   1.203   1.221
  1.249   1.262   1.274   1.287   1.310   1.332   1.346   1.349
  1.354   1.362   1.367   1.389   1.448   1.461   1.475   1.496
  1.506   1.527   1.551   1.558   1.601   1.684   1.693   1.726
  1.768   1.798   1.835   1.860   1.871   1.879   1.893   1.901
  1.920   1.926   1.952   1.960   1.994   2.006   2.017   2.055
  2.070   2.079   2.107   2.126   2.154   2.174   2.175   2.186
  2.198   2.235   2.244   2.255   2.282   2.299   2.335   2.363
  2.367   2.419   2.436   2.441   2.452   2.460   2.473   2.483
  2.499   2.515   2.523   2.533   2.563   2.581   2.596   2.603
  2.620   2.653   2.680   2.698   2.713   2.736   2.800   2.854
  2.869   2.892   2.909   2.939   2.943   3.138   3.170   3.207
  3.270   3.272   3.325   3.413   3.414   3.673   3.730   3.736
  3.972   3.975   3.983   4.252   4.288   4.305   4.317   4.328
  4.356   4.403   4.483   4.546   4.648   4.692   4.724
 --------------------------------------------------------------
 
          Ground-State Mulliken Net Atomic Charges

     Atom                 Charge (a.u.)
  ----------------------------------------
      1 H                     0.196890
      2 H                     0.119269
      3 C                     0.035392
      4 C                    -0.403627
      5 S                    -0.132432
      6 C                     0.535281
      7 H                     0.127015
      8 C                    -0.382723
      9 H                     0.126138
     10 C                    -0.099060
     11 C                    -0.091308
     12 S                    -0.039538
     13 C                     0.074307
     14 H                     0.125922
     15 C                    -0.191805
     16 C                    -0.474037
     17 H                     0.138431
     18 C                     0.315169
     19 S                     0.069529
     20 C                    -0.364389
     21 C                     0.000724
     22 H                     0.120566
     23 H                     0.194283
  ----------------------------------------
  Sum of atomic charges =     0.000000

 -----------------------------------------------------------------
                    Cartesian Multipole Moments
 -----------------------------------------------------------------
    Charge (ESU x 10^10)
                 0.0000
    Dipole Moment (Debye)
         X      -0.0577      Y       0.3507      Z      -0.6690
       Tot       0.7576
    Quadrupole Moments (Debye-Ang)
        XX     -90.2828     XY      -0.2521     YY    -104.1562
        XZ       0.4442     YZ      -1.5108     ZZ    -112.5570
    Octopole Moments (Debye-Ang^2)
       XXX      -9.2549    XXY      21.9551    XYY       7.5519
       YYY      -7.3938    XXZ       7.6300    XYZ       7.2975
       YYZ     -12.4307    XZZ     -22.8152    YZZ      -0.1902
       ZZZ     -11.7971
    Hexadecapole Moments (Debye-Ang^3)
      XXXX   -6335.0730   XXXY      14.0019   XXYY   -1314.7370
      XYYY     119.2865   YYYY    -721.5338   XXXZ      60.6617
      XXYZ     -41.1461   XYYZ      50.0958   YYYZ      32.0147
      XXZZ   -1328.2665   XYZZ      13.7088   YYZZ    -187.1257
      XZZZ     111.9110   YZZZ      19.3313   ZZZZ    -355.8376
 -----------------------------------------------------------------
 Calculating analytic gradient of the SCF energy
 Gradient of SCF Energy
            1           2           3           4           5           6
    1   0.0000044   0.0000137   0.0001063  -0.0000931   0.0001125   0.0001941
    2  -0.0000004  -0.0000060   0.0000243  -0.0000344   0.0000044   0.0001223
    3  -0.0000093  -0.0000080   0.0000194   0.0000142  -0.0000462   0.0000954
            7           8           9          10          11          12
    1   0.0000010  -0.0005371   0.0000463   0.0012954  -0.0007187   0.0001097
    2  -0.0000262   0.0000441  -0.0000147  -0.0002839   0.0002022  -0.0003084
    3  -0.0000512   0.0000200   0.0000566  -0.0001500   0.0001666   0.0003781
           13          14          15          16          17          18
    1   0.0005725   0.0001459  -0.0019510   0.0022231  -0.0002562  -0.0006913
    2   0.0001270   0.0000208  -0.0002020   0.0010006  -0.0002017  -0.0009105
    3  -0.0012562  -0.0003036   0.0013125   0.0003048  -0.0001824  -0.0006584
           19          20          21          22          23
    1  -0.0002066   0.0005049  -0.0008835  -0.0000374   0.0000450
    2   0.0004161  -0.0002456   0.0003272   0.0000142  -0.0000694
    3   0.0001109   0.0001135  -0.0000936   0.0000033   0.0001635
 Max gradient component =       2.223E-03
 RMS gradient           =       5.387E-04
 Gradient time:  CPU 4.58 s  wall 4.56 s
 Geometry Optimization Parameters
   NAtoms,    NIC,     NZ,  NCons,   NDum,   NFix, NCnnct, MaxDiis
       23     166       0       1       0       0       0       0

 Cartesian Hessian Update
 Hessian Updated using BFGS Update


** CONSTRAINED OPTIMIZATION IN DELOCALIZED INTERNAL COORDINATES **
   Searching for a Minimum

   Optimization Cycle:   2

                       Coordinates (Angstroms)
     ATOM                X               Y               Z
      1  H         6.2384166687   -0.2272633621    0.1755385724
      2  H         5.3075089934    2.2254056241   -0.1174847216
      3  C         5.2037064792    0.0725258115    0.0819177189
      4  C         4.6920320663    1.3343642174   -0.0697508447
      5  S         3.9497183189   -1.1253955907    0.1209187985
      6  C         3.2710289193    1.3466334149   -0.1697926352
      7  H         2.6871115448    2.2487235704   -0.3149655280
      8  C         2.7018604918    0.0912727091   -0.0914664029
      9  H         1.3351835033   -2.3865162843   -0.6866572620
     10  C         1.3010475238   -0.2821604794   -0.1599476359
     11  C         0.7410738942   -1.5109392262   -0.4488040207
     12  S         0.0402787671    0.8965602923    0.1467764894
     13  C        -0.6796655863   -1.5067568526   -0.4434287172
     14  H        -1.2859988698   -2.3755443489   -0.6737214326
     15  C        -1.2294665688   -0.2788668203   -0.1506546755
     16  C        -2.6378073218    0.1069577999   -0.0786545739
     17  H        -2.9147953849    1.3796965882   -1.8039936760
     18  C        -3.3569517947    0.9180805663   -0.9282463939
     19  S        -3.6718477445   -0.4843896089    1.2114748567
     20  C        -4.7254773813    1.0642072030   -0.5544525365
     21  C        -5.0450224463    0.3614844833    0.5783334863
     22  H        -5.4421692715    1.6594831798   -1.1089360109
     23  H        -6.0027913709    0.2888576532    1.0758280152
   Point Group: c1    Number of degrees of freedom:    63


   Energy is  -1656.661225401

              Constraints and their Current Values
                                        Value     Constraint
   Dihedral:       13  15  16  18     -110.000     -110.000
 Hessian Updated using BFGS Update

 58 Hessian modes will be used to form the next step
  Hessian Eigenvalues:
     0.036094    0.045000    0.045000    0.045000    0.045000    0.045000
     0.045000    0.045001    0.045002    0.045008    0.045009    0.045009
     0.045018    0.045018    0.045615    0.155929    0.159901    0.159950
     0.159958    0.159991    0.159993    0.160000    0.160284    0.221088
     0.221282    0.226841    0.236384    0.237848    0.242803    0.249854
     0.249999    0.250000    0.252049    0.291689    0.293644    0.294584
     0.295743    0.312570    0.313264    0.354721    0.354735    0.354743
     0.354755    0.355163    0.355164    0.358372    0.358388    0.383076
     0.400099    0.405831    0.409851    0.423169    0.457621    0.460528
     0.463066    0.484301    0.497252    0.497843

 Minimum Search - Taking Simple RFO Step
 Searching for Lamda that Minimizes Along All modes
 Value Taken    Lamda =  -0.00006765
 Step Taken.  Stepsize is  0.037067

                             Maximum     Tolerance    Cnvgd?
         Gradient           0.001124      0.000300      NO
         Displacement       0.018068      0.001200      NO
         Energy change     -0.000232      0.000001      NO


 New Cartesian Coordinates Obtained by Inverse Iteration

 Displacement from previous Coordinates is:  0.110683
 ----------------------------------------------------------------
             Standard Nuclear Orientation (Angstroms)
    I     Atom           X                Y                Z
 ----------------------------------------------------------------
    1      H       6.2365308739    -0.2296210598     0.1684238477
    2      H       5.3078767139     2.2236503403    -0.1275743184
    3      C       5.2019759227     0.0711168367     0.0761836098
    4      C       4.6916000975     1.3333266557    -0.0769433898
    5      S       3.9469407162    -1.1254325921     0.1204832270
    6      C       3.2703284325     1.3468627642    -0.1737433370
    7      H       2.6868867927     2.2493179838    -0.3187714910
    8      C       2.7005465551     0.0923349831    -0.0916535036
    9      H       1.3344173331    -2.3847902202    -0.6834477829
   10      C       1.2986845899    -0.2799045741    -0.1560752062
   11      C       0.7403310950    -1.5097076786    -0.4438265192
   12      S       0.0404867412     0.8997429720     0.1522356295
   13      C      -0.6807821332    -1.5055727962    -0.4342478968
   14      H      -1.2902769523    -2.3732629992    -0.6604791991
   15      C      -1.2274960500    -0.2782846774    -0.1385626408
   16      C      -2.6381235690     0.1101206130    -0.0706040859
   17      H      -2.8977197658     1.3962618544    -1.7863387095
   18      C      -3.3499014089     0.9256464270    -0.9204792093
   19      S      -3.6794525434    -0.4978459565     1.2046478519
   20      C      -4.7221207703     1.0656272219    -0.5573271181
   21      C      -5.0476719836     0.3510401822     0.5666052700
   22      H      -5.4358243670     1.6639683940    -1.1123161773
   23      H      -6.0102628903     0.2718258658     1.0536420190
 ----------------------------------------------------------------
 Nuclear Repulsion Energy =  1172.0642667507 hartrees
 There are       64 alpha and       64 beta electrons
 Applying Cartesian multipole field
    Component          Value
    ---------          -----
     (2,0,0)        1.00000E-12
     (0,2,0)        2.00000E-11
     (0,0,2)       -3.00000E-11
 Nucleus-field energy     =     0.0000000096 hartrees
 Requested basis set is 6-31++G(d,p)
 There are 110 shells and 345 basis functions
 A cutoff of  1.0D-12 yielded   4679 shell pairs
 There are     47598 function pairs

 Q-Chem warning in module /project/projectdirs/jcesr/qchem/qc44/cnl_qc441/compile/cori/qc_src/libqints/qchem/aobasis.C, line 68:

 Using reconstructed effective core potential

 Smallest overlap matrix eigenvalue = 8.86E-08
 Linear dependence detected in AO basis
 Number of orthogonalized atomic orbitals = 343
 Maximum deviation from orthogonality = 1.430E-10
 Guess MOs from SCF MO coefficient file
 Reading MOs from coefficient file
 Reading MOs from coefficient file
 A restricted hybrid HF-DFT SCF calculation will be
 performed using Pulay DIIS extrapolation
 Exchange:     0.2000 Hartree-Fock + 0.0800 Slater + 0.7200 B88
 Correlation:  0.1900 VWN1RPA + 0.8100 LYP
 Using SG-1 standard quadrature grid
 SCF converges when DIIS error is below 1.0E-08
 Geometry optimization detected.  Setting ReadMinima to 0
 Setting SaveMinima to 0
 ---------------------------------------
  Cycle       Energy         DIIS Error
 ---------------------------------------
    1   -1656.6634592457      2.68E-04
    2   -1656.6612391950      3.98E-05
    3   -1656.6611736075      7.57E-05
    4   -1656.6612663929      1.38E-05
    5   -1656.6612692962      4.35E-06
    6   -1656.6612695491      1.96E-06
    7   -1656.6612696082      5.49E-07
    8   -1656.6612696133      2.20E-07
    9   -1656.6612696174      7.62E-08
   10   -1656.6612696183      2.03E-08
   11   -1656.6612696176      8.00E-09 Convergence criterion met
 ---------------------------------------
 SCF time:  CPU 11.98 s  wall 11.17 s
 SCF   energy in the final basis set = -1656.6612696176
 Total energy in the final basis set = -1656.6612696176
 
 --------------------------------------------------------------
 
                    Orbital Energies (a.u.)
 --------------------------------------------------------------
 
 Alpha MOs
 -- Occupied --
-88.921 -88.921 -88.921 -10.241 -10.240 -10.238 -10.237 -10.226
-10.226 -10.206 -10.206 -10.205 -10.205 -10.205 -10.205  -7.981
 -7.980  -7.980  -5.945  -5.944  -5.944  -5.941  -5.941  -5.940
 -5.938  -5.937  -5.937  -0.906  -0.891  -0.876  -0.785  -0.754
 -0.745  -0.743  -0.733  -0.697  -0.615  -0.594  -0.569  -0.562
 -0.537  -0.534  -0.527  -0.501  -0.462  -0.421  -0.419  -0.416
 -0.415  -0.407  -0.403  -0.399  -0.384  -0.376  -0.370  -0.358
 -0.351  -0.345  -0.282  -0.267  -0.262  -0.259  -0.247  -0.211
 -- Virtual --
 -0.063  -0.033  -0.010  -0.007  -0.005   0.003   0.008   0.009
  0.011   0.019   0.023   0.025   0.029   0.033   0.037   0.042
  0.047   0.049   0.052   0.054   0.058   0.062   0.074   0.075
  0.080   0.087   0.093   0.094   0.100   0.103   0.107   0.110
  0.110   0.118   0.123   0.124   0.124   0.126   0.128   0.130
  0.134   0.138   0.142   0.145   0.147   0.149   0.152   0.156
  0.160   0.168   0.170   0.175   0.175   0.179   0.181   0.194
  0.198   0.201   0.203   0.206   0.210   0.213   0.217   0.220
  0.229   0.234   0.235   0.239   0.250   0.253   0.258   0.261
  0.266   0.268   0.273   0.279   0.281   0.287   0.295   0.307
  0.311   0.318   0.326   0.330   0.336   0.348   0.355   0.358
  0.365   0.376   0.378   0.396   0.399   0.451   0.457   0.462
  0.491   0.508   0.520   0.524   0.541   0.558   0.568   0.577
  0.582   0.601   0.609   0.626   0.638   0.640   0.654   0.661
  0.664   0.668   0.678   0.692   0.700   0.712   0.716   0.720
  0.726   0.728   0.742   0.747   0.756   0.774   0.783   0.786
  0.801   0.809   0.811   0.823   0.831   0.839   0.846   0.875
  0.895   0.931   0.932   0.938   0.951   0.957   0.961   0.965
  0.967   0.975   0.979   0.983   0.993   0.996   1.000   1.020
  1.031   1.041   1.048   1.058   1.079   1.080   1.094   1.108
  1.109   1.124   1.149   1.154   1.169   1.185   1.203   1.221
  1.250   1.262   1.274   1.288   1.310   1.332   1.346   1.349
  1.354   1.362   1.366   1.390   1.447   1.461   1.474   1.498
  1.506   1.527   1.551   1.556   1.600   1.684   1.693   1.726
  1.767   1.796   1.835   1.862   1.870   1.879   1.893   1.901
  1.920   1.926   1.952   1.960   1.994   2.007   2.019   2.056
  2.070   2.079   2.108   2.126   2.154   2.174   2.177   2.187
  2.199   2.235   2.244   2.255   2.281   2.299   2.334   2.364
  2.368   2.420   2.436   2.441   2.452   2.460   2.473   2.483
  2.500   2.516   2.523   2.533   2.563   2.581   2.596   2.603
  2.620   2.653   2.680   2.698   2.713   2.736   2.800   2.854
  2.869   2.892   2.909   2.938   2.943   3.137   3.170   3.207
  3.269   3.272   3.325   3.413   3.414   3.674   3.730   3.737
  3.972   3.975   3.983   4.252   4.288   4.305   4.317   4.328
  4.356   4.402   4.483   4.547   4.648   4.693   4.724
 --------------------------------------------------------------
 
          Ground-State Mulliken Net Atomic Charges

     Atom                 Charge (a.u.)
  ----------------------------------------
      1 H                     0.196742
      2 H                     0.119174
      3 C                     0.035311
      4 C                    -0.404764
      5 S                    -0.132259
      6 C                     0.537897
      7 H                     0.126964
      8 C                    -0.382037
      9 H                     0.126048
     10 C                    -0.102721
     11 C                    -0.096224
     12 S                    -0.037984
     13 C                     0.082015
     14 H                     0.126529
     15 C                    -0.191811
     16 C                    -0.478699
     17 H                     0.138762
     18 C                     0.320399
     19 S                     0.069554
     20 C                    -0.368710
     21 C                     0.001598
     22 H                     0.120336
     23 H                     0.193879
  ----------------------------------------
  Sum of atomic charges =     0.000000

 -----------------------------------------------------------------
                    Cartesian Multipole Moments
 -----------------------------------------------------------------
    Charge (ESU x 10^10)
                 0.0000
    Dipole Moment (Debye)
         X      -0.0630      Y       0.3490      Z      -0.6739
       Tot       0.7616
    Quadrupole Moments (Debye-Ang)
        XX     -90.3681     XY      -0.2020     YY    -104.1012
        XZ       0.4415     YZ      -1.5679     ZZ    -112.6166
    Octopole Moments (Debye-Ang^2)
       XXX      -9.1411    XXY      21.5184    XYY       7.5119
       YYY      -6.9863    XXZ       7.1567    XYZ       7.4292
       YYZ     -12.5097    XZZ     -22.3707    YZZ      -0.1059
       ZZZ     -11.8900
    Hexadecapole Moments (Debye-Ang^3)
      XXXX   -6335.4961   XXXY      14.0920   XXYY   -1314.4810
      XYYY     116.2912   YYYY    -722.9085   XXXZ      61.9908
      XXYZ     -41.8642   XYYZ      50.2256   YYYZ      33.0488
      XXZZ   -1329.4532   XYZZ      13.1101   YYZZ    -186.7691
      XZZZ     112.9366   YZZZ      20.8650   ZZZZ    -353.1755
 -----------------------------------------------------------------
 Calculating analytic gradient of the SCF energy
 Gradient of SCF Energy
            1           2           3           4           5           6
    1  -0.0000081  -0.0000063  -0.0000637  -0.0000725   0.0000469   0.0000472
    2  -0.0000049   0.0000081  -0.0000244   0.0000146  -0.0000580  -0.0000107
    3   0.0000028  -0.0000004   0.0000117  -0.0000120  -0.0000461   0.0000658
            7           8           9          10          11          12
    1  -0.0000077  -0.0000106   0.0000061  -0.0000607  -0.0001778   0.0002317
    2  -0.0000058   0.0001295  -0.0000735   0.0000394  -0.0000476   0.0001593
    3  -0.0000291   0.0000022   0.0000129   0.0001397   0.0000122   0.0002567
           13          14          15          16          17          18
    1   0.0000945  -0.0000569   0.0006476  -0.0004273   0.0000091  -0.0004134
    2   0.0007009   0.0000632  -0.0018332   0.0025161  -0.0001683  -0.0015308
    3  -0.0015110  -0.0001585   0.0015101   0.0001673  -0.0001004  -0.0006165
           19          20          21          22          23
    1  -0.0001729   0.0001307   0.0002230   0.0000025   0.0000385
    2   0.0000840   0.0000547  -0.0000222   0.0000434  -0.0000336
    3   0.0003741  -0.0001553   0.0001077  -0.0000686   0.0000346
 Max gradient component =       2.516E-03
 RMS gradient           =       5.233E-04
 Gradient time:  CPU 4.55 s  wall 4.56 s
 Geometry Optimization Parameters
   NAtoms,    NIC,     NZ,  NCons,   NDum,   NFix, NCnnct, MaxDiis
       23     166       0       1       0       0       0       0

 Cartesian Hessian Update
 Hessian Updated using BFGS Update


** CONSTRAINED OPTIMIZATION IN DELOCALIZED INTERNAL COORDINATES **
   Searching for a Minimum

   Optimization Cycle:   3

                       Coordinates (Angstroms)
     ATOM                X               Y               Z
      1  H         6.2365308739   -0.2296210598    0.1684238477
      2  H         5.3078767139    2.2236503403   -0.1275743184
      3  C         5.2019759227    0.0711168367    0.0761836098
      4  C         4.6916000975    1.3333266557   -0.0769433898
      5  S         3.9469407162   -1.1254325921    0.1204832270
      6  C         3.2703284325    1.3468627642   -0.1737433370
      7  H         2.6868867927    2.2493179838   -0.3187714910
      8  C         2.7005465551    0.0923349831   -0.0916535036
      9  H         1.3344173331   -2.3847902202   -0.6834477829
     10  C         1.2986845899   -0.2799045741   -0.1560752062
     11  C         0.7403310950   -1.5097076786   -0.4438265192
     12  S         0.0404867412    0.8997429720    0.1522356295
     13  C        -0.6807821332   -1.5055727962   -0.4342478968
     14  H        -1.2902769523   -2.3732629992   -0.6604791991
     15  C        -1.2274960500   -0.2782846774   -0.1385626408
     16  C        -2.6381235690    0.1101206130   -0.0706040859
     17  H        -2.8977197658    1.3962618544   -1.7863387095
     18  C        -3.3499014089    0.9256464270   -0.9204792093
     19  S        -3.6794525434   -0.4978459565    1.2046478519
     20  C        -4.7221207703    1.0656272219   -0.5573271181
     21  C        -5.0476719836    0.3510401822    0.5666052700
     22  H        -5.4358243670    1.6639683940   -1.1123161773
     23  H        -6.0102628903    0.2718258658    1.0536420190
   Point Group: c1    Number of degrees of freedom:    63


   Energy is  -1656.661269618

              Constraints and their Current Values
                                        Value     Constraint
   Dihedral:       13  15  16  18     -110.000     -110.000
 Hessian Updated using BFGS Update

 58 Hessian modes will be used to form the next step
  Hessian Eigenvalues:
     0.017076    0.045000    0.045000    0.045000    0.045001    0.045002
     0.045002    0.045003    0.045004    0.045009    0.045009    0.045016
     0.045018    0.045134    0.045520    0.158760    0.159917    0.159957
     0.159959    0.159993    0.159999    0.160175    0.161450    0.221281
     0.222598    0.226869    0.237736    0.241059    0.248672    0.249992
     0.249999    0.250204    0.290152    0.293405    0.293970    0.295375
     0.302937    0.312575    0.313717    0.354705    0.354742    0.354749
     0.354965    0.355164    0.355177    0.358372    0.358648    0.383198
     0.405717    0.408986    0.418068    0.423001    0.459464    0.462253
     0.480003    0.496848    0.497271    0.507006

 Minimum Search - Taking Simple RFO Step
 Searching for Lamda that Minimizes Along All modes
 Value Taken    Lamda =  -0.00003841
 Step Taken.  Stepsize is  0.045057

                             Maximum     Tolerance    Cnvgd?
         Gradient           0.000536      0.000300      NO
         Displacement       0.024969      0.001200      NO
         Energy change     -0.000044      0.000001      NO


 New Cartesian Coordinates Obtained by Inverse Iteration

 Displacement from previous Coordinates is:  0.148443
 ----------------------------------------------------------------
             Standard Nuclear Orientation (Angstroms)
    I     Atom           X                Y                Z
 ----------------------------------------------------------------
    1      H       6.2371669164    -0.2309673564     0.1576649935
    2      H       5.3093293905     2.2221759074    -0.1415672960
    3      C       5.2025257665     0.0702641887     0.0678936895
    4      C       4.6925921613     1.3324260300    -0.0867649080
    5      S       3.9465429449    -1.1250682900     0.1196447939
    6      C       3.2708024089     1.3466835554    -0.1787740240
    7      H       2.6875527679     2.2493132247    -0.3235417382
    8      C       2.7004660347     0.0928304389    -0.0917634327
    9      H       1.3329477978    -2.3831481774    -0.6784471028
   10      C       1.2976361425    -0.2785866153    -0.1505487138
   11      C       0.7392354784    -1.5087035977    -0.4361639332
   12      S       0.0407213253     0.9007585574     0.1619246306
   13      C      -0.6824938809    -1.5047093277    -0.4214002842
   14      H      -1.2937276893    -2.3721040373    -0.6439193847
   15      C      -1.2273506958    -0.2777541563    -0.1216630070
   16      C      -2.6377893680     0.1139581054    -0.0598863161
   17      H      -2.8789972836     1.4198567926    -1.7627571989
   18      C      -3.3416297294     0.9364265868    -0.9095721297
   19      S      -3.6918965871    -0.5140742079     1.1936862804
   20      C      -4.7190175716     1.0679825986    -0.5608178894
   21      C      -5.0552308162     0.3380931284     0.5499582245
   22      H      -5.4283869462     1.6706357230    -1.1164693007
   23      H      -6.0240251367     0.2501314686     1.0231149168
 ----------------------------------------------------------------
 Nuclear Repulsion Energy =  1172.0322851670 hartrees
 There are       64 alpha and       64 beta electrons
 Applying Cartesian multipole field
    Component          Value
    ---------          -----
     (2,0,0)        1.00000E-12
     (0,2,0)        2.00000E-11
     (0,0,2)       -3.00000E-11
 Nucleus-field energy     =     0.0000000097 hartrees
 Requested basis set is 6-31++G(d,p)
 There are 110 shells and 345 basis functions
 A cutoff of  1.0D-12 yielded   4681 shell pairs
 There are     47606 function pairs

 Q-Chem warning in module /project/projectdirs/jcesr/qchem/qc44/cnl_qc441/compile/cori/qc_src/libqints/qchem/aobasis.C, line 68:

 Using reconstructed effective core potential

 Smallest overlap matrix eigenvalue = 8.88E-08
 Linear dependence detected in AO basis
 Number of orthogonalized atomic orbitals = 343
 Maximum deviation from orthogonality = 1.501E-10
 Guess MOs from SCF MO coefficient file
 Reading MOs from coefficient file
 Reading MOs from coefficient file
 A restricted hybrid HF-DFT SCF calculation will be
 performed using Pulay DIIS extrapolation
 Exchange:     0.2000 Hartree-Fock + 0.0800 Slater + 0.7200 B88
 Correlation:  0.1900 VWN1RPA + 0.8100 LYP
 Using SG-1 standard quadrature grid
 SCF converges when DIIS error is below 1.0E-08
 Geometry optimization detected.  Setting ReadMinima to 0
 Setting SaveMinima to 0
 ---------------------------------------
  Cycle       Energy         DIIS Error
 ---------------------------------------
    1   -1656.6614772059      3.61E-04
    2   -1656.6612540530      4.74E-05
    3   -1656.6611368079      9.78E-05
    4   -1656.6612950771      1.33E-05
    5   -1656.6612974441      5.92E-06
    6   -1656.6612979413      2.19E-06
    7   -1656.6612980140      7.18E-07
    8   -1656.6612980206      2.87E-07
    9   -1656.6612980230      8.49E-08
   10   -1656.6612980228      2.13E-08
   11   -1656.6612980230      1.04E-08
   12   -1656.6612980215      2.68E-09 Convergence criterion met
 ---------------------------------------
 SCF time:  CPU 13.07 s  wall 12.07 s
 SCF   energy in the final basis set = -1656.6612980215
 Total energy in the final basis set = -1656.6612980215
 
 --------------------------------------------------------------
 
                    Orbital Energies (a.u.)
 --------------------------------------------------------------
 
 Alpha MOs
 -- Occupied --
-88.921 -88.921 -88.921 -10.241 -10.240 -10.238 -10.237 -10.226
-10.226 -10.206 -10.206 -10.205 -10.205 -10.205 -10.205  -7.980
 -7.980  -7.980  -5.945  -5.944  -5.944  -5.941  -5.941  -5.940
 -5.938  -5.937  -5.937  -0.906  -0.892  -0.876  -0.785  -0.754
 -0.745  -0.743  -0.733  -0.697  -0.615  -0.594  -0.569  -0.562
 -0.537  -0.534  -0.527  -0.501  -0.462  -0.421  -0.419  -0.416
 -0.415  -0.407  -0.403  -0.399  -0.384  -0.376  -0.370  -0.358
 -0.351  -0.345  -0.282  -0.267  -0.262  -0.259  -0.247  -0.211
 -- Virtual --
 -0.063  -0.033  -0.010  -0.007  -0.005   0.003   0.008   0.009
  0.011   0.019   0.023   0.025   0.029   0.033   0.037   0.042
  0.046   0.049   0.052   0.054   0.057   0.062   0.074   0.075
  0.080   0.087   0.093   0.094   0.100   0.103   0.107   0.110
  0.111   0.118   0.123   0.124   0.124   0.126   0.128   0.130
  0.134   0.138   0.142   0.145   0.148   0.149   0.152   0.156
  0.160   0.168   0.170   0.175   0.175   0.179   0.181   0.194
  0.198   0.201   0.203   0.205   0.210   0.213   0.218   0.220
  0.229   0.234   0.235   0.239   0.250   0.253   0.258   0.261
  0.266   0.267   0.273   0.279   0.280   0.287   0.295   0.307
  0.311   0.318   0.326   0.329   0.336   0.348   0.355   0.358
  0.365   0.376   0.378   0.396   0.399   0.452   0.457   0.462
  0.492   0.508   0.520   0.524   0.540   0.558   0.569   0.577
  0.582   0.601   0.610   0.626   0.636   0.640   0.655   0.661
  0.664   0.668   0.678   0.692   0.699   0.712   0.716   0.720
  0.726   0.728   0.743   0.747   0.757   0.775   0.783   0.786
  0.801   0.808   0.811   0.823   0.831   0.839   0.846   0.875
  0.894   0.930   0.932   0.938   0.951   0.957   0.962   0.966
  0.967   0.975   0.979   0.983   0.993   0.996   1.000   1.020
  1.031   1.041   1.048   1.058   1.079   1.080   1.094   1.108
  1.109   1.124   1.150   1.154   1.169   1.185   1.203   1.221
  1.251   1.262   1.273   1.288   1.311   1.333   1.346   1.350
  1.354   1.362   1.366   1.391   1.446   1.460   1.473   1.499
  1.507   1.528   1.551   1.555   1.599   1.684   1.692   1.726
  1.765   1.795   1.834   1.864   1.870   1.878   1.894   1.901
  1.921   1.926   1.952   1.960   1.995   2.007   2.020   2.057
  2.071   2.080   2.108   2.126   2.153   2.175   2.178   2.188
  2.199   2.235   2.244   2.254   2.280   2.300   2.335   2.364
  2.368   2.420   2.436   2.441   2.452   2.459   2.472   2.483
  2.500   2.516   2.523   2.533   2.564   2.581   2.596   2.603
  2.619   2.653   2.680   2.698   2.713   2.737   2.799   2.854
  2.869   2.891   2.908   2.937   2.942   3.137   3.170   3.206
  3.269   3.272   3.325   3.413   3.414   3.674   3.730   3.737
  3.972   3.975   3.984   4.252   4.288   4.305   4.317   4.328
  4.356   4.402   4.483   4.547   4.648   4.692   4.724
 --------------------------------------------------------------
 
          Ground-State Mulliken Net Atomic Charges

     Atom                 Charge (a.u.)
  ----------------------------------------
      1 H                     0.196664
      2 H                     0.119120
      3 C                     0.035750
      4 C                    -0.406457
      5 S                    -0.131538
      6 C                     0.539527
      7 H                     0.127046
      8 C                    -0.380308
      9 H                     0.125841
     10 C                    -0.107721
     11 C                    -0.101001
     12 S                    -0.037146
     13 C                     0.087910
     14 H                     0.127123
     15 C                    -0.188707
     16 C                    -0.482161
     17 H                     0.139052
     18 C                     0.327585
     19 S                     0.067313
     20 C                    -0.377082
     21 C                     0.005506
     22 H                     0.119989
     23 H                     0.193694
  ----------------------------------------
  Sum of atomic charges =     0.000000

 -----------------------------------------------------------------
                    Cartesian Multipole Moments
 -----------------------------------------------------------------
    Charge (ESU x 10^10)
                 0.0000
    Dipole Moment (Debye)
         X      -0.0637      Y       0.3494      Z      -0.6852
       Tot       0.7718
    Quadrupole Moments (Debye-Ang)
        XX     -90.3578     XY      -0.1451     YY    -104.0555
        XZ       0.4403     YZ      -1.6289     ZZ    -112.7167
    Octopole Moments (Debye-Ang^2)
       XXX      -9.1503    XXY      21.1329    XYY       7.4658
       YYY      -6.3833    XXZ       6.5112    XYZ       7.5449
       YYZ     -12.6418    XZZ     -21.7408    YZZ       0.0490
       ZZZ     -12.0848
    Hexadecapole Moments (Debye-Ang^3)
      XXXX   -6337.0648   XXXY      14.4665   XXYY   -1315.5756
      XYYY     112.7190   YYYY    -724.6365   XXXZ      63.0147
      XXYZ     -42.6356   XYYZ      50.3816   YYYZ      34.2573
      XXZZ   -1332.5254   XYZZ      12.3564   YYZZ    -186.2367
      XZZZ     114.3016   YZZZ      22.7706   ZZZZ    -349.3956
 -----------------------------------------------------------------
 Calculating analytic gradient of the SCF energy
 Gradient of SCF Energy
            1           2           3           4           5           6
    1   0.0000046  -0.0000017  -0.0000358   0.0000655  -0.0000144  -0.0000838
    2   0.0000080   0.0000000  -0.0000192   0.0000057   0.0000434  -0.0000938
    3   0.0000134   0.0000077   0.0000010  -0.0000193  -0.0000421   0.0000487
            7           8           9          10          11          12
    1  -0.0000049   0.0002853  -0.0000060  -0.0006783   0.0004990   0.0000833
    2   0.0000008   0.0000473   0.0000045   0.0001250  -0.0000899   0.0000007
    3  -0.0000050  -0.0000523   0.0000062   0.0002559  -0.0000256   0.0000684
           13          14          15          16          17          18
    1  -0.0003660  -0.0001372   0.0011680  -0.0008017   0.0001573  -0.0001418
    2   0.0009019   0.0000875  -0.0023528   0.0031856  -0.0001039  -0.0019462
    3  -0.0019316  -0.0000022   0.0020440   0.0004331   0.0000103  -0.0009741
           19          20          21          22          23
    1  -0.0000119  -0.0004078   0.0004752   0.0000152  -0.0000621
    2   0.0001610   0.0001376  -0.0001077  -0.0000129   0.0000176
    3   0.0000728  -0.0000227   0.0001903  -0.0000052  -0.0000718
 Max gradient component =       3.186E-03
 RMS gradient           =       6.913E-04
 Gradient time:  CPU 4.66 s  wall 4.57 s
 Geometry Optimization Parameters
   NAtoms,    NIC,     NZ,  NCons,   NDum,   NFix, NCnnct, MaxDiis
       23     166       0       1       0       0       0       0

 Cartesian Hessian Update
 Hessian Updated using BFGS Update


** CONSTRAINED OPTIMIZATION IN DELOCALIZED INTERNAL COORDINATES **
   Searching for a Minimum

   Optimization Cycle:   4

                       Coordinates (Angstroms)
     ATOM                X               Y               Z
      1  H         6.2371669164   -0.2309673564    0.1576649935
      2  H         5.3093293905    2.2221759074   -0.1415672960
      3  C         5.2025257665    0.0702641887    0.0678936895
      4  C         4.6925921613    1.3324260300   -0.0867649080
      5  S         3.9465429449   -1.1250682900    0.1196447939
      6  C         3.2708024089    1.3466835554   -0.1787740240
      7  H         2.6875527679    2.2493132247   -0.3235417382
      8  C         2.7004660347    0.0928304389   -0.0917634327
      9  H         1.3329477978   -2.3831481774   -0.6784471028
     10  C         1.2976361425   -0.2785866153   -0.1505487138
     11  C         0.7392354784   -1.5087035977   -0.4361639332
     12  S         0.0407213253    0.9007585574    0.1619246306
     13  C        -0.6824938809   -1.5047093277   -0.4214002842
     14  H        -1.2937276893   -2.3721040373   -0.6439193847
     15  C        -1.2273506958   -0.2777541563   -0.1216630070
     16  C        -2.6377893680    0.1139581054   -0.0598863161
     17  H        -2.8789972836    1.4198567926   -1.7627571989
     18  C        -3.3416297294    0.9364265868   -0.9095721297
     19  S        -3.6918965871   -0.5140742079    1.1936862804
     20  C        -4.7190175716    1.0679825986   -0.5608178894
     21  C        -5.0552308162    0.3380931284    0.5499582245
     22  H        -5.4283869462    1.6706357230   -1.1164693007
     23  H        -6.0240251367    0.2501314686    1.0231149168
   Point Group: c1    Number of degrees of freedom:    63


   Energy is  -1656.661298021

              Constraints and their Current Values
                                        Value     Constraint
   Dihedral:       13  15  16  18     -110.000     -110.000
 Hessian Updated using BFGS Update

 60 Hessian modes will be used to form the next step
  Hessian Eigenvalues:
     0.008360    0.045000    0.045000    0.045000    0.045000    0.045000
     0.045000    0.045001    0.045002    0.045003    0.045006    0.045009
     0.045013    0.045016    0.045024    0.045245    0.045696    0.159917
     0.159955    0.159958    0.159988    0.159999    0.160112    0.160393
     0.163476    0.221288    0.222408    0.226890    0.238220    0.241430
     0.249972    0.249998    0.250096    0.251459    0.291826    0.293704
     0.295114    0.295348    0.312503    0.312836    0.315779    0.354742
     0.354748    0.354829    0.354986    0.355164    0.355441    0.358373
     0.358633    0.384332    0.405594    0.406674    0.409713    0.436735
     0.459302    0.462257    0.472837    0.492483    0.497293    0.504337

 Minimum Search - Taking Simple RFO Step
 Searching for Lamda that Minimizes Along All modes
 Value Taken    Lamda =  -0.00003416
 Step Taken.  Stepsize is  0.057128

                             Maximum     Tolerance    Cnvgd?
         Gradient           0.000738      0.000300      NO
         Displacement       0.033042      0.001200      NO
         Energy change     -0.000028      0.000001      NO


 New Cartesian Coordinates Obtained by Inverse Iteration

 Displacement from previous Coordinates is:  0.193068
 ----------------------------------------------------------------
             Standard Nuclear Orientation (Angstroms)
    I     Atom           X                Y                Z
 ----------------------------------------------------------------
    1      H       6.2377750672    -0.2312789647     0.1436835900
    2      H       5.3095052241     2.2211663186    -0.1602894001
    3      C       5.2028675995     0.0700187641     0.0573349952
    4      C       4.6927267203     1.3318255670    -0.0995805867
    5      S       3.9466731594    -1.1247338844     0.1189966635
    6      C       3.2705539228     1.3462859077    -0.1854818756
    7      H       2.6870336837     2.2487020895    -0.3305321415
    8      C       2.7003008014     0.0928483760    -0.0917569644
    9      H       1.3293672985    -2.3822518109    -0.6722224781
   10      C       1.2970916779    -0.2780841268    -0.1434009202
   11      C       0.7369526913    -1.5080849712    -0.4259670932
   12      S       0.0417194892     0.9009817685     0.1763727846
   13      C      -0.6846582851    -1.5040850817    -0.4044667837
   14      H      -1.2965914387    -2.3716884356    -0.6240990503
   15      C      -1.2278467829    -0.2772260603    -0.0990348354
   16      C      -2.6362965869     0.1186426043    -0.0454735144
   17      H      -2.8565484920     1.4508232731    -1.7319732098
   18      C      -3.3303605936     0.9508417326    -0.8946255383
   19      S      -3.7079744200    -0.5351097629     1.1791141490
   20      C      -4.7134292985     1.0714933834    -0.5653308003
   21      C      -5.0646799830     0.3220778481     0.5275816981
   22      H      -5.4165071585     1.6802359021    -1.1223191018
   23      H      -6.0407008659     0.2230201032     0.9833012834
 ----------------------------------------------------------------
 Nuclear Repulsion Energy =  1171.9897935928 hartrees
 There are       64 alpha and       64 beta electrons
 Applying Cartesian multipole field
    Component          Value
    ---------          -----
     (2,0,0)        1.00000E-12
     (0,2,0)        2.00000E-11
     (0,0,2)       -3.00000E-11
 Nucleus-field energy     =     0.0000000099 hartrees
 Requested basis set is 6-31++G(d,p)
 There are 110 shells and 345 basis functions
 A cutoff of  1.0D-12 yielded   4681 shell pairs
 There are     47606 function pairs

 Q-Chem warning in module /project/projectdirs/jcesr/qchem/qc44/cnl_qc441/compile/cori/qc_src/libqints/qchem/aobasis.C, line 68:

 Using reconstructed effective core potential

 Smallest overlap matrix eigenvalue = 8.95E-08
 Linear dependence detected in AO basis
 Number of orthogonalized atomic orbitals = 343
 Maximum deviation from orthogonality = 2.047E-10
 Guess MOs from SCF MO coefficient file
 Reading MOs from coefficient file
 Reading MOs from coefficient file
 A restricted hybrid HF-DFT SCF calculation will be
 performed using Pulay DIIS extrapolation
 Exchange:     0.2000 Hartree-Fock + 0.0800 Slater + 0.7200 B88
 Correlation:  0.1900 VWN1RPA + 0.8100 LYP
 Using SG-1 standard quadrature grid
 SCF converges when DIIS error is below 1.0E-08
 Geometry optimization detected.  Setting ReadMinima to 0
 Setting SaveMinima to 0
 ---------------------------------------
  Cycle       Energy         DIIS Error
 ---------------------------------------
    1   -1656.6606287948      4.88E-04
    2   -1656.6612441629      6.22E-05
    3   -1656.6610199190      1.33E-04
    4   -1656.6613155257      1.64E-05
    5   -1656.6613189449      7.69E-06
    6   -1656.6613197793      2.78E-06
    7   -1656.6613198955      1.02E-06
    8   -1656.6613199106      3.50E-07
    9   -1656.6613199132      1.14E-07
   10   -1656.6613199122      2.41E-08
   11   -1656.6613199132      1.28E-08
   12   -1656.6613199127      3.48E-09 Convergence criterion met
 ---------------------------------------
 SCF time:  CPU 13.15 s  wall 12.09 s
 SCF   energy in the final basis set = -1656.6613199127
 Total energy in the final basis set = -1656.6613199127
 
 --------------------------------------------------------------
 
                    Orbital Energies (a.u.)
 --------------------------------------------------------------
 
 Alpha MOs
 -- Occupied --
-88.921 -88.921 -88.921 -10.241 -10.240 -10.238 -10.238 -10.226
-10.226 -10.206 -10.206 -10.205 -10.205 -10.205 -10.205  -7.981
 -7.980  -7.980  -5.945  -5.944  -5.944  -5.941  -5.941  -5.941
 -5.938  -5.937  -5.937  -0.906  -0.892  -0.876  -0.785  -0.754
 -0.745  -0.743  -0.733  -0.697  -0.615  -0.594  -0.569  -0.562
 -0.537  -0.534  -0.527  -0.501  -0.462  -0.421  -0.419  -0.416
 -0.415  -0.407  -0.403  -0.399  -0.384  -0.376  -0.370  -0.359
 -0.351  -0.345  -0.282  -0.267  -0.262  -0.259  -0.247  -0.210
 -- Virtual --
 -0.063  -0.032  -0.009  -0.007  -0.005   0.003   0.008   0.009
  0.011   0.019   0.023   0.025   0.029   0.033   0.037   0.042
  0.046   0.049   0.052   0.054   0.057   0.062   0.074   0.075
  0.080   0.087   0.093   0.094   0.100   0.103   0.107   0.110
  0.111   0.118   0.123   0.124   0.124   0.126   0.128   0.130
  0.134   0.138   0.142   0.145   0.148   0.149   0.152   0.156
  0.159   0.168   0.170   0.175   0.175   0.178   0.181   0.194
  0.198   0.201   0.202   0.205   0.210   0.213   0.218   0.221
  0.228   0.234   0.235   0.239   0.250   0.253   0.259   0.261
  0.266   0.267   0.273   0.278   0.280   0.287   0.296   0.307
  0.311   0.317   0.326   0.329   0.337   0.348   0.356   0.359
  0.365   0.376   0.378   0.396   0.399   0.453   0.457   0.462
  0.492   0.508   0.521   0.525   0.539   0.558   0.569   0.577
  0.582   0.600   0.611   0.626   0.635   0.640   0.655   0.661
  0.663   0.668   0.678   0.692   0.698   0.712   0.717   0.721
  0.725   0.728   0.743   0.747   0.757   0.775   0.783   0.786
  0.801   0.808   0.811   0.823   0.831   0.839   0.846   0.875
  0.894   0.930   0.932   0.938   0.951   0.957   0.962   0.966
  0.967   0.975   0.979   0.982   0.993   0.997   1.000   1.021
  1.031   1.041   1.048   1.058   1.079   1.080   1.094   1.108
  1.109   1.123   1.151   1.154   1.168   1.185   1.202   1.221
  1.252   1.262   1.273   1.288   1.311   1.333   1.346   1.350
  1.353   1.363   1.366   1.392   1.444   1.459   1.472   1.501
  1.508   1.530   1.550   1.554   1.598   1.684   1.692   1.726
  1.762   1.794   1.835   1.864   1.870   1.878   1.894   1.901
  1.921   1.926   1.952   1.960   1.995   2.007   2.021   2.058
  2.071   2.081   2.107   2.125   2.152   2.175   2.179   2.188
  2.198   2.234   2.243   2.254   2.280   2.300   2.335   2.364
  2.368   2.420   2.437   2.441   2.452   2.459   2.472   2.482
  2.500   2.516   2.523   2.533   2.564   2.581   2.597   2.603
  2.619   2.654   2.680   2.698   2.713   2.738   2.799   2.854
  2.868   2.890   2.908   2.937   2.942   3.137   3.170   3.206
  3.269   3.272   3.325   3.413   3.414   3.674   3.730   3.737
  3.973   3.975   3.984   4.252   4.288   4.305   4.317   4.328
  4.356   4.402   4.484   4.547   4.648   4.692   4.724
 --------------------------------------------------------------
 
          Ground-State Mulliken Net Atomic Charges

     Atom                 Charge (a.u.)
  ----------------------------------------
      1 H                     0.196530
      2 H                     0.119068
      3 C                     0.035895
      4 C                    -0.408170
      5 S                    -0.129881
      6 C                     0.540603
      7 H                     0.127239
      8 C                    -0.378532
      9 H                     0.125558
     10 C                    -0.115685
     11 C                    -0.103624
     12 S                    -0.036838
     13 C                     0.092178
     14 H                     0.127781
     15 C                    -0.182202
     16 C                    -0.485047
     17 H                     0.139378
     18 C                     0.336318
     19 S                     0.064324
     20 C                    -0.388032
     21 C                     0.010088
     22 H                     0.119522
     23 H                     0.193528
  ----------------------------------------
  Sum of atomic charges =     0.000000

 -----------------------------------------------------------------
                    Cartesian Multipole Moments
 -----------------------------------------------------------------
    Charge (ESU x 10^10)
                 0.0000
    Dipole Moment (Debye)
         X      -0.0620      Y       0.3500      Z      -0.7032
       Tot       0.7880
    Quadrupole Moments (Debye-Ang)
        XX     -90.3409     XY      -0.0754     YY    -103.9924
        XZ       0.4423     YZ      -1.7037     ZZ    -112.8403
    Octopole Moments (Debye-Ang^2)
       XXX      -9.1511    XXY      20.6842    XYY       7.3865
       YYY      -5.5544    XXZ       5.5969    XYZ       7.6652
       YYZ     -12.8638    XZZ     -20.9550    YZZ       0.2726
       ZZZ     -12.4529
    Hexadecapole Moments (Debye-Ang^3)
      XXXX   -6338.5801   XXXY      15.0793   XXYY   -1316.7829
      XYYY     108.1147   YYYY    -727.1027   XXXZ      64.2008
      XXYZ     -43.6062   XYYZ      50.5238   YYYZ      35.7300
      XXZZ   -1336.1692   XYZZ      11.3490   YYZZ    -185.5933
      XZZZ     115.9568   YZZZ      25.1677   ZZZZ    -344.5657
 -----------------------------------------------------------------
 Calculating analytic gradient of the SCF energy
 Gradient of SCF Energy
            1           2           3           4           5           6
    1  -0.0000014  -0.0000075  -0.0000432   0.0000772  -0.0000532  -0.0001207
    2   0.0000086   0.0000037   0.0000021   0.0000128   0.0000125  -0.0000744
    3   0.0000175   0.0000057  -0.0000099  -0.0000234  -0.0000175   0.0000303
            7           8           9          10          11          12
    1   0.0000057   0.0003767  -0.0000153  -0.0006612   0.0005810  -0.0000446
    2   0.0000185  -0.0000301   0.0000430   0.0001413  -0.0000511  -0.0001098
    3   0.0000156  -0.0000929  -0.0000083   0.0002383   0.0000121  -0.0000638
           13          14          15          16          17          18
    1  -0.0003828  -0.0000858   0.0004971  -0.0000144   0.0001400  -0.0002936
    2   0.0007858   0.0000337  -0.0023644   0.0035438   0.0000221  -0.0021233
    3  -0.0024935   0.0001232   0.0028143   0.0008833   0.0000813  -0.0015567
           19          20          21          22          23
    1   0.0001355  -0.0004009   0.0003834   0.0000091  -0.0000811
    2   0.0001125   0.0000870  -0.0000703  -0.0000376   0.0000335
    3  -0.0000842   0.0000487   0.0001916   0.0000122  -0.0001240
 Max gradient component =       3.544E-03
 RMS gradient           =       7.860E-04
 Gradient time:  CPU 4.66 s  wall 4.56 s
 Geometry Optimization Parameters
   NAtoms,    NIC,     NZ,  NCons,   NDum,   NFix, NCnnct, MaxDiis
       23     166       0       1       0       0       0       0

 Cartesian Hessian Update
 Hessian Updated using BFGS Update


** CONSTRAINED OPTIMIZATION IN DELOCALIZED INTERNAL COORDINATES **
   Searching for a Minimum

   Optimization Cycle:   5

                       Coordinates (Angstroms)
     ATOM                X               Y               Z
      1  H         6.2377750672   -0.2312789647    0.1436835900
      2  H         5.3095052241    2.2211663186   -0.1602894001
      3  C         5.2028675995    0.0700187641    0.0573349952
      4  C         4.6927267203    1.3318255670   -0.0995805867
      5  S         3.9466731594   -1.1247338844    0.1189966635
      6  C         3.2705539228    1.3462859077   -0.1854818756
      7  H         2.6870336837    2.2487020895   -0.3305321415
      8  C         2.7003008014    0.0928483760   -0.0917569644
      9  H         1.3293672985   -2.3822518109   -0.6722224781
     10  C         1.2970916779   -0.2780841268   -0.1434009202
     11  C         0.7369526913   -1.5080849712   -0.4259670932
     12  S         0.0417194892    0.9009817685    0.1763727846
     13  C        -0.6846582851   -1.5040850817   -0.4044667837
     14  H        -1.2965914387   -2.3716884356   -0.6240990503
     15  C        -1.2278467829   -0.2772260603   -0.0990348354
     16  C        -2.6362965869    0.1186426043   -0.0454735144
     17  H        -2.8565484920    1.4508232731   -1.7319732098
     18  C        -3.3303605936    0.9508417326   -0.8946255383
     19  S        -3.7079744200   -0.5351097629    1.1791141490
     20  C        -4.7134292985    1.0714933834   -0.5653308003
     21  C        -5.0646799830    0.3220778481    0.5275816981
     22  H        -5.4165071585    1.6802359021   -1.1223191018
     23  H        -6.0407008659    0.2230201032    0.9833012834
   Point Group: c1    Number of degrees of freedom:    63


   Energy is  -1656.661319913

              Constraints and their Current Values
                                        Value     Constraint
   Dihedral:       13  15  16  18     -110.000     -110.000
 Hessian Updated using BFGS Update

 62 Hessian modes will be used to form the next step
  Hessian Eigenvalues:
     0.006972    0.044973    0.045000    0.045000    0.045000    0.045000
     0.045000    0.045000    0.045001    0.045002    0.045002    0.045002
     0.045003    0.045007    0.045009    0.045016    0.045017    0.045075
     0.045883    0.159817    0.159928    0.159958    0.159968    0.159998
     0.160022    0.160299    0.161138    0.221301    0.222654    0.226999
     0.238291    0.241617    0.249871    0.249975    0.250009    0.251040
     0.289312    0.293676    0.294477    0.295535    0.302056    0.312585
     0.313711    0.354743    0.354748    0.354829    0.354899    0.355164
     0.355382    0.358374    0.358593    0.384234    0.396928    0.405936
     0.409583    0.431788    0.459234    0.462330    0.466540    0.485639
     0.497302    0.498892

 Minimum Search - Taking Simple RFO Step
 Searching for Lamda that Minimizes Along All modes
 Value Taken    Lamda =  -0.00000844
 Step Taken.  Stepsize is  0.023264

                             Maximum     Tolerance    Cnvgd?
         Gradient           0.000524      0.000300      NO
         Displacement       0.014242      0.001200      NO
         Energy change     -0.000022      0.000001      NO


 New Cartesian Coordinates Obtained by Inverse Iteration

 Displacement from previous Coordinates is:  0.077640
 ----------------------------------------------------------------
             Standard Nuclear Orientation (Angstroms)
    I     Atom           X                Y                Z
 ----------------------------------------------------------------
    1      H       6.2384567770    -0.2305752466     0.1388932346
    2      H       5.3092548258     2.2210917701    -0.1684692457
    3      C       5.2033552749     0.0704254029     0.0537959854
    4      C       4.6926768783     1.3318131388    -0.1047937179
[...]
    5   -1656.6613268015      4.00E-07
    6   -1656.6613268015      2.02E-07
    7   -1656.6613268029      5.69E-08
    8   -1656.6613268042      2.38E-08
    9   -1656.6613268025      5.03E-09 Convergence criterion met
 ---------------------------------------
 SCF time:  CPU 9.84 s  wall 9.04 s
 SCF   energy in the final basis set = -1656.6613268025
 Total energy in the final basis set = -1656.6613268025
 
 --------------------------------------------------------------
 
                    Orbital Energies (a.u.)
 --------------------------------------------------------------
 
 Alpha MOs
 -- Occupied --
-88.921 -88.921 -88.921 -10.241 -10.240 -10.238 -10.238 -10.226
-10.226 -10.206 -10.206 -10.205 -10.205 -10.205 -10.205  -7.981
 -7.980  -7.980  -5.945  -5.944  -5.944  -5.941  -5.941  -5.941
 -5.938  -5.937  -5.937  -0.906  -0.892  -0.876  -0.786  -0.754
 -0.745  -0.743  -0.733  -0.697  -0.615  -0.594  -0.569  -0.562
 -0.537  -0.535  -0.527  -0.501  -0.462  -0.421  -0.420  -0.416
 -0.415  -0.407  -0.403  -0.399  -0.384  -0.376  -0.370  -0.358
 -0.351  -0.345  -0.283  -0.267  -0.262  -0.259  -0.247  -0.210
 -- Virtual --
 -0.063  -0.032  -0.010  -0.007  -0.005   0.003   0.008   0.009
  0.011   0.019   0.023   0.025   0.029   0.033   0.037   0.042
  0.046   0.049   0.052   0.054   0.057   0.062   0.074   0.075
  0.080   0.087   0.093   0.094   0.100   0.103   0.107   0.110
  0.111   0.118   0.123   0.124   0.124   0.126   0.128   0.130
  0.134   0.138   0.142   0.145   0.148   0.149   0.152   0.156
  0.159   0.168   0.170   0.175   0.176   0.178   0.181   0.194
  0.198   0.202   0.202   0.205   0.210   0.213   0.218   0.221
  0.228   0.234   0.235   0.238   0.250   0.253   0.259   0.261
  0.266   0.267   0.273   0.278   0.280   0.287   0.296   0.308
  0.311   0.317   0.326   0.329   0.337   0.349   0.356   0.359
  0.365   0.376   0.378   0.396   0.399   0.453   0.457   0.462
  0.492   0.508   0.521   0.526   0.539   0.558   0.569   0.577
  0.581   0.600   0.611   0.626   0.634   0.639   0.656   0.661
  0.663   0.668   0.678   0.692   0.697   0.712   0.717   0.721
  0.725   0.728   0.744   0.748   0.757   0.775   0.783   0.785
  0.801   0.808   0.811   0.823   0.831   0.839   0.846   0.875
  0.894   0.929   0.932   0.939   0.951   0.957   0.962   0.966
  0.967   0.975   0.978   0.982   0.993   0.997   1.000   1.021
  1.031   1.041   1.048   1.058   1.078   1.081   1.094   1.108
  1.108   1.122   1.151   1.154   1.168   1.185   1.202   1.221
  1.253   1.262   1.272   1.289   1.310   1.333   1.346   1.350
  1.353   1.362   1.366   1.393   1.444   1.459   1.471   1.501
  1.509   1.530   1.549   1.555   1.597   1.684   1.692   1.726
  1.760   1.794   1.835   1.864   1.870   1.878   1.894   1.901
  1.921   1.926   1.952   1.960   1.995   2.007   2.021   2.058
  2.071   2.082   2.107   2.125   2.151   2.175   2.180   2.187
  2.198   2.233   2.243   2.253   2.280   2.300   2.336   2.364
  2.368   2.420   2.438   2.441   2.452   2.459   2.472   2.483
  2.500   2.516   2.523   2.533   2.564   2.581   2.597   2.604
  2.619   2.654   2.680   2.697   2.713   2.738   2.799   2.854
  2.868   2.890   2.908   2.938   2.942   3.137   3.170   3.206
  3.270   3.272   3.325   3.413   3.414   3.674   3.730   3.737
  3.973   3.975   3.984   4.252   4.288   4.305   4.317   4.328
  4.356   4.402   4.484   4.547   4.648   4.692   4.724
 --------------------------------------------------------------
 
          Ground-State Mulliken Net Atomic Charges

     Atom                 Charge (a.u.)
  ----------------------------------------
      1 H                     0.196453
      2 H                     0.119037
      3 C                     0.036224
      4 C                    -0.409795
      5 S                    -0.127980
      6 C                     0.539392
      7 H                     0.127523
      8 C                    -0.378549
      9 H                     0.125573
     10 C                    -0.121133
     11 C                    -0.100315
     12 S                    -0.036912
     13 C                     0.090361
     14 H                     0.128022
     15 C                    -0.174655
     16 C                    -0.487981
     17 H                     0.139568
     18 C                     0.341369
     19 S                     0.062265
     20 C                    -0.393871
     21 C                     0.012467
     22 H                     0.119303
     23 H                     0.193634
  ----------------------------------------
  Sum of atomic charges =     0.000000

 -----------------------------------------------------------------
                    Cartesian Multipole Moments
 -----------------------------------------------------------------
    Charge (ESU x 10^10)
                 0.0000
    Dipole Moment (Debye)
         X      -0.0586      Y       0.3508      Z      -0.7194
       Tot       0.8025
    Quadrupole Moments (Debye-Ang)
        XX     -90.3123     XY      -0.0495     YY    -103.9721
        XZ       0.4429     YZ      -1.7409     ZZ    -112.8904
    Octopole Moments (Debye-Ang^2)
       XXX      -9.0861    XXY      20.5777    XYY       7.3158
       YYY      -5.0799    XXZ       5.1065    XYZ       7.6383
       YYZ     -13.1230    XZZ     -20.5715    YZZ       0.3966
       ZZZ     -12.9434
    Hexadecapole Moments (Debye-Ang^3)
      XXXX   -6340.4342   XXXY      15.1476   XXYY   -1317.6666
      XYYY     105.5223   YYYY    -728.4888   XXXZ      64.0851
      XXYZ     -44.2322   XYYZ      50.2831   YYYZ      36.5677
      XXZZ   -1338.0533   XYZZ      10.7846   YYZZ    -185.2460
      XZZZ     116.0945   YZZZ      26.5250   ZZZZ    -342.3474
 -----------------------------------------------------------------
 Calculating analytic gradient of the SCF energy
 Gradient of SCF Energy
            1           2           3           4           5           6
    1  -0.0000003  -0.0000002   0.0000081  -0.0000118   0.0000102   0.0000126
    2   0.0000008   0.0000014   0.0000096  -0.0000002  -0.0000038   0.0000140
    3   0.0000016  -0.0000102   0.0000068   0.0000034  -0.0000208   0.0000278
            7           8           9          10          11          12
    1  -0.0000001  -0.0000521   0.0000014   0.0000862  -0.0000772   0.0000056
    2  -0.0000000  -0.0000019  -0.0000038  -0.0000028  -0.0000141   0.0000183
    3  -0.0000041  -0.0000175  -0.0000013  -0.0000064   0.0000608  -0.0000272
           13          14          15          16          17          18
    1   0.0001678   0.0000113  -0.0006530   0.0011785  -0.0000105  -0.0006819
    2   0.0006760  -0.0000144  -0.0022638   0.0036285   0.0000132  -0.0020559
    3  -0.0025517   0.0000227   0.0031561   0.0008886   0.0000005  -0.0015168
           19          20          21          22          23
    1  -0.0000171   0.0000595  -0.0000393  -0.0000042   0.0000066
    2  -0.0000050   0.0000006   0.0000269  -0.0000101  -0.0000134
    3   0.0000108  -0.0000102  -0.0000013  -0.0000152   0.0000038
 Max gradient component =       3.628E-03
 RMS gradient           =       8.065E-04
 Gradient time:  CPU 4.60 s  wall 4.57 s
 Geometry Optimization Parameters
   NAtoms,    NIC,     NZ,  NCons,   NDum,   NFix, NCnnct, MaxDiis
       23     166       0       1       0       0       0       0

 Cartesian Hessian Update
 Hessian Updated using BFGS Update


** CONSTRAINED OPTIMIZATION IN DELOCALIZED INTERNAL COORDINATES **
   Searching for a Minimum

   Optimization Cycle:   8

                       Coordinates (Angstroms)
     ATOM                X               Y               Z
      1  H         6.2385360417   -0.2298407077    0.1411027074
      2  H         5.3091846469    2.2209879579   -0.1722734399
      3  C         5.2034116533    0.0708481307    0.0552224348
      4  C         4.6926347165    1.3318376054   -0.1064719957
      5  S         3.9476119180   -1.1239294614    0.1235235803
      6  C         3.2705055811    1.3456560546   -0.1909310936
      7  H         2.6865370509    2.2470992756   -0.3400666530
      8  C         2.7004107966    0.0924496284   -0.0910575448
      9  H         1.3264310753   -2.3827500711   -0.6710472089
     10  C         1.2978310088   -0.2790051915   -0.1404571167
     11  C         0.7353771414   -1.5083164939   -0.4220470992
     12  S         0.0431019223    0.8999581146    0.1857203628
     13  C        -0.6854404031   -1.5038436586   -0.3968893705
     14  H        -1.2969440666   -2.3710113245   -0.6195464512
     15  C        -1.2285663468   -0.2773801581   -0.0874948229
     16  C        -2.6351630801    0.1207277391   -0.0378528590
     17  H        -2.8475374984    1.4655721850   -1.7165296087
     18  C        -3.3249851540    0.9587670411   -0.8853535759
     19  S        -3.7170967991   -0.5465161360    1.1714943363
     20  C        -4.7103695495    1.0740809967   -0.5665329799
     21  C        -5.0702566310    0.3141151842    0.5162328660
     22  H        -5.4094357367    1.6870246696   -1.1241128604
     23  H        -6.0488048576    0.2098891599    0.9651992625
   Point Group: c1    Number of degrees of freedom:    63


   Energy is  -1656.661326803

              Constraints and their Current Values
                                        Value     Constraint
   Dihedral:       13  15  16  18     -110.000     -110.000
 Hessian Updated using BFGS Update

 61 Hessian modes will be used to form the next step
  Hessian Eigenvalues:
     0.006897    0.011093    0.045000    0.045000    0.045000    0.045000
     0.045001    0.045001    0.045002    0.045003    0.045005    0.045009
     0.045009    0.045015    0.045018    0.045060    0.045184    0.048899
     0.159847    0.159929    0.159969    0.159985    0.160036    0.160208
     0.160521    0.163234    0.221481    0.222960    0.226990    0.239159
     0.242341    0.249789    0.249987    0.250018    0.251929    0.290831
     0.293639    0.294903    0.295649    0.312206    0.312660    0.317915
     0.354747    0.354755    0.354870    0.354941    0.355170    0.355466
     0.358395    0.358625    0.385263    0.398994    0.406287    0.409754
     0.435693    0.459462    0.462478    0.469069    0.487451    0.497257
     0.499885

 Minimum Search - Taking Simple RFO Step
 Searching for Lamda that Minimizes Along All modes
 Value Taken    Lamda =   0.00000000
 Step Taken.  Stepsize is  0.006385

                             Maximum     Tolerance    Cnvgd?
         Gradient           0.000074      0.000300     YES
         Displacement       0.003267      0.001200      NO
         Energy change     -0.000000      0.000001     YES

 Final energy is   -1656.66132680254     


 ******************************
 **  OPTIMIZATION CONVERGED  **
 ******************************

                       Coordinates (Angstroms)
     ATOM                X               Y               Z
      1  H         6.2385360417   -0.2298407077    0.1411027074
      2  H         5.3091846469    2.2209879579   -0.1722734399
      3  C         5.2034116533    0.0708481307    0.0552224348
      4  C         4.6926347165    1.3318376054   -0.1064719957
      5  S         3.9476119180   -1.1239294614    0.1235235803
      6  C         3.2705055811    1.3456560546   -0.1909310936
      7  H         2.6865370509    2.2470992756   -0.3400666530
      8  C         2.7004107966    0.0924496284   -0.0910575448
      9  H         1.3264310753   -2.3827500711   -0.6710472089
     10  C         1.2978310088   -0.2790051915   -0.1404571167
     11  C         0.7353771414   -1.5083164939   -0.4220470992
     12  S         0.0431019223    0.8999581146    0.1857203628
     13  C        -0.6854404031   -1.5038436586   -0.3968893705
     14  H        -1.2969440666   -2.3710113245   -0.6195464512
     15  C        -1.2285663468   -0.2773801581   -0.0874948229
     16  C        -2.6351630801    0.1207277391   -0.0378528590
     17  H        -2.8475374984    1.4655721850   -1.7165296087
     18  C        -3.3249851540    0.9587670411   -0.8853535759
     19  S        -3.7170967991   -0.5465161360    1.1714943363
     20  C        -4.7103695495    1.0740809967   -0.5665329799
     21  C        -5.0702566310    0.3141151842    0.5162328660
     22  H        -5.4094357367    1.6870246696   -1.1241128604
     23  H        -6.0488048576    0.2098891599    0.9651992625

Z-matrix Print:
$molecule
0 1
S 
C  1 1.752339
C  2 1.380889 1 110.197140
H  3 1.084426 2 122.865286 1 178.918814 0
C  3 1.421047 2 113.630385 1 0.870835 0
H  5 1.084201 3 123.901621 2 178.286066 0
C  5 1.376562 3 113.657724 2 -0.430068 0
C  2 1.451774 1 120.883301 3 -179.871862 0
C  8 1.380402 2 128.963259 1 -20.660848 0
H  9 1.084371 8 122.836719 2 -0.850721 0
C  9 1.424702 8 113.525148 2 -179.646610 0
H  11 1.083998 9 123.792892 8 179.538024 0
C  11 1.370085 9 112.833638 8 0.093797 0
H  13 1.081329 11 128.475619 9 179.597448 0
C  7 1.462692 5 129.016648 3 176.490852 0
C  15 1.377106 7 128.789150 5 -110.000000 0
H  16 1.084279 15 122.386899 7 -2.031072 0
C  16 1.426266 15 113.465487 7 177.338577 0
H  18 1.084107 16 123.854871 15 -179.871830 0
C  18 1.370930 16 112.750491 15 -0.497664 0
H  20 1.081661 18 128.223323 16 -179.538726 0
S  20 1.732367 18 111.659214 16 0.427403 0
S  13 1.734702 11 111.633573 9 -0.587482 0
$end

 
 --------------------------------------------------------------
 
                    Orbital Energies (a.u.)
 --------------------------------------------------------------
 
 Alpha MOs
 -- Occupied --
-88.921 -88.921 -88.921 -10.241 -10.240 -10.238 -10.238 -10.226
-10.226 -10.206 -10.206 -10.205 -10.205 -10.205 -10.205  -7.981
 -7.980  -7.980  -5.945  -5.944  -5.944  -5.941  -5.941  -5.941
 -5.938  -5.937  -5.937  -0.906  -0.892  -0.876  -0.786  -0.754
 -0.745  -0.743  -0.733  -0.697  -0.615  -0.594  -0.569  -0.562
 -0.537  -0.535  -0.527  -0.501  -0.462  -0.421  -0.420  -0.416
 -0.415  -0.407  -0.403  -0.399  -0.384  -0.376  -0.370  -0.358
 -0.351  -0.345  -0.283  -0.267  -0.262  -0.259  -0.247  -0.210
 -- Virtual --
 -0.063  -0.032  -0.010  -0.007  -0.005   0.003   0.008   0.009
  0.011   0.019   0.023   0.025   0.029   0.033   0.037   0.042
  0.046   0.049   0.052   0.054   0.057   0.062   0.074   0.075
  0.080   0.087   0.093   0.094   0.100   0.103   0.107   0.110
  0.111   0.118   0.123   0.124   0.124   0.126   0.128   0.130
  0.134   0.138   0.142   0.145   0.148   0.149   0.152   0.156
  0.159   0.168   0.170   0.175   0.176   0.178   0.181   0.194
  0.198   0.202   0.202   0.205   0.210   0.213   0.218   0.221
  0.228   0.234   0.235   0.238   0.250   0.253   0.259   0.261
  0.266   0.267   0.273   0.278   0.280   0.287   0.296   0.308
  0.311   0.317   0.326   0.329   0.337   0.349   0.356   0.359
  0.365   0.376   0.378   0.396   0.399   0.453   0.457   0.462
  0.492   0.508   0.521   0.526   0.539   0.558   0.569   0.577
  0.581   0.600   0.611   0.626   0.634   0.639   0.656   0.661
  0.663   0.668   0.678   0.692   0.697   0.712   0.717   0.721
  0.725   0.728   0.744   0.748   0.757   0.775   0.783   0.785
  0.801   0.808   0.811   0.823   0.831   0.839   0.846   0.875
  0.894   0.929   0.932   0.939   0.951   0.957   0.962   0.966
  0.967   0.975   0.978   0.982   0.993   0.997   1.000   1.021
  1.031   1.041   1.048   1.058   1.078   1.081   1.094   1.108
  1.108   1.122   1.151   1.154   1.168   1.185   1.202   1.221
  1.253   1.262   1.272   1.289   1.310   1.333   1.346   1.350
  1.353   1.362   1.366   1.393   1.444   1.459   1.471   1.501
  1.509   1.530   1.549   1.555   1.597   1.684   1.692   1.726
  1.760   1.794   1.835   1.864   1.870   1.878   1.894   1.901
  1.921   1.926   1.952   1.960   1.995   2.007   2.021   2.058
  2.071   2.082   2.107   2.125   2.151   2.175   2.180   2.187
  2.198   2.233   2.243   2.253   2.280   2.300   2.336   2.364
  2.368   2.420   2.438   2.441   2.452   2.459   2.472   2.483
  2.500   2.516   2.523   2.533   2.564   2.581   2.597   2.604
  2.619   2.654   2.680   2.697   2.713   2.738   2.799   2.854
  2.868   2.890   2.908   2.938   2.942   3.137   3.170   3.206
  3.270   3.272   3.325   3.413   3.414   3.674   3.730   3.737
  3.973   3.975   3.984   4.252   4.288   4.305   4.317   4.328
  4.356   4.402   4.484   4.547   4.648   4.692   4.724
 --------------------------------------------------------------
 
          Ground-State Mulliken Net Atomic Charges

     Atom                 Charge (a.u.)
  ----------------------------------------
      1 H                     0.196453
      2 H                     0.119037
      3 C                     0.036224
      4 C                    -0.409795
      5 S                    -0.127980
      6 C                     0.539392
      7 H                     0.127523
      8 C                    -0.378549
      9 H                     0.125573
     10 C                    -0.121133
     11 C                    -0.100315
     12 S                    -0.036912
     13 C                     0.090361
     14 H                     0.128022
     15 C                    -0.174655
     16 C                    -0.487981
     17 H                     0.139568
     18 C                     0.341369
     19 S                     0.062265
     20 C                    -0.393871
     21 C                     0.012467
     22 H                     0.119303
     23 H                     0.193634
  ----------------------------------------
  Sum of atomic charges =     0.000000

 -----------------------------------------------------------------
                    Cartesian Multipole Moments
 -----------------------------------------------------------------
    Charge (ESU x 10^10)
                 0.0000
    Dipole Moment (Debye)
         X      -0.0586      Y       0.3508      Z      -0.7194
       Tot       0.8025
    Quadrupole Moments (Debye-Ang)
        XX     -90.3123     XY      -0.0495     YY    -103.9721
        XZ       0.4429     YZ      -1.7409     ZZ    -112.8904
    Octopole Moments (Debye-Ang^2)
       XXX      -9.0861    XXY      20.5777    XYY       7.3158
       YYY      -5.0799    XXZ       5.1065    XYZ       7.6383
       YYZ     -13.1230    XZZ     -20.5715    YZZ       0.3966
       ZZZ     -12.9434
    Hexadecapole Moments (Debye-Ang^3)
      XXXX   -6340.4342   XXXY      15.1476   XXYY   -1317.6666
      XYYY     105.5223   YYYY    -728.4888   XXXZ      64.0851
      XXYZ     -44.2322   XYYZ      50.2831   YYYZ      36.5677
      XXZZ   -1338.0533   XYZZ      10.7846   YYZZ    -185.2460
      XZZZ     116.0945   YZZZ      26.5250   ZZZZ    -342.3474
 -----------------------------------------------------------------
Archival summary:
1\1\nid00485\OPT\ProcedureUnspecified\BasisUnspecified\3128\bwood\TueMay3010:54:522017TueMay3010:54:522017\0\\#,OPT,ProcedureUnspecified,BasisUnspecified,\\0,1\S\C,1,1.75234\C,2,1.38089,1,110.197\H,3,1.08443,2,122.865,1,178.919,0\C,3,1.42105,2,113.63,1,0.870835,0\H,5,1.0842,3,123.902,2,178.286,0\C,5,1.37656,3,113.658,2,-0.430068,0\C,2,1.45177,1,120.883,3,-179.872,0\C,8,1.3804,2,128.963,1,-20.6608,0\H,9,1.08437,8,122.837,2,-0.850721,0\C,9,1.4247,8,113.525,2,-179.647,0\H,11,1.084,9,123.793,8,179.538,0\C,11,1.37008,9,112.834,8,0.0937973,0\H,13,1.08133,11,128.476,9,179.597,0\C,7,1.46269,5,129.017,3,176.491,0\C,15,1.37711,7,128.789,5,-110,0\H,16,1.08428,15,122.387,7,-2.03107,0\C,16,1.42627,15,113.465,7,177.339,0\H,18,1.08411,16,123.855,15,-179.872,0\C,18,1.37093,16,112.75,15,-0.497664,0\H,20,1.08166,18,128.223,16,-179.539,0\S,20,1.73237,18,111.659,16,0.427403,0\S,13,1.7347,11,111.634,9,-0.587482,0\\\@

 Total job time:  130.38s(wall), 138.12s(cpu) 
 Tue May 30 10:54:52 2017

        *************************************************************
        *                                                           *
        *  Thank you very much for using Q-Chem.  Have a nice day.  *
        *                                                           *
        *************************************************************


0 sent ACK to 0 
now end server 0 ... 
