srun -N 1 --ntasks-per-node 22 --cpus-per-task 2 --cpu_bind=cores --nodelist nid00631 /global/project/projectdirs/jcesr/qchem/qc44/cnl_qc441/dist/exe/qcprog.cori.haswell.exe .pt_nn_neutral_-130.0.in.37487.qcin.1 /dev/shm/eg_qchem/qchem37487/
Process 1 of 22 is on nid00631 - thread support 0
Process 2 of 22 is on nid00631 - thread support 0
Process 3 of 22 is on nid00631 - thread support 0
Process 4 of 22 is on nid00631 - thread support 0
Process 5 of 22 is on nid00631 - thread support 0
Process 6 of 22 is on nid00631 - thread support 0
Process 21 of 22 is on nid00631 - thread support 0
Process 0 of 22 is on nid00631 - thread support 0
initial socket setup ...start
initial socket setup ...done 
now start server 0 ... 
nid00631 10.128.2
Q-Chem Developer Version! Running on 10.128.2.*
                  Welcome to Q-Chem
     A Quantum Leap Into The Future Of Chemistry


 Q-Chem 4.4, Q-Chem, Inc., Pleasanton, CA (2016)

 Y. Shao,  Z. Gan,  E. Epifanovsky,  A. T. B. Gilbert,  M. Wormit,  
 J. Kussmann,  A. W. Lange,  A. Behn,  J. Deng,  X. Feng,  D. Ghosh,  
 M. Goldey,  P. R. Horn,  L. D. Jacobson,  I. Kaliman,  F. Rob,  
 R. Z. Khaliullin,  T. Kus,  A. Landau,  J. Liu,  E. I. Proynov,  Y. M. Rhee,  
 R. M. Richard,  M. A. Rohrdanz,  R. P. Steele,  E. J. Sundstrom,  
 H. L. Woodcock III,  P. M. Zimmerman,  D. Zuev,  B. Albrecht,  E. Alguire,  
 B. Austin,  S. A. Baeppler,  G. J. O. Beran,  Y. A. Bernard,  
 E. J. Berquist,  K. Brandhorst,  K. B. Bravaya,  S. T. Brown,  D. Casanova,  
 C.-M. Chang,  Y. Chen,  S. H. Chien,  K. D. Closser,  M. P. Coons,  
 D. L. Crittenden,  S. Dasgupta,  M. Diedenhofen,  R. A. DiStasio Jr.,  
 H. Do,  A. D. Dutoi,  R. G. Edgar,  P.-T. Fang,  S. Fatehi,  Q. Feng,  
 L. Fusti-Molnar,  A. Ghysels,  A. Golubeva-Zadorozhnaya,  J. Gomes,  
 A. Gunina,  M. W. D. Hanson-Heine,  P. H. P. Harbach,  A. W. Hauser,  
 J. E. Herr,  E. G. Hohenstein,  Z. C. Holden,  K. Hui,  T.-C. Jagau,  H. Ji,  
 B. Kaduk,  K. Khistyaev,  Jaehoon Kim,  Jihan Kim,  R. A. King,  
 P. Klunzinger,  K. Koh,  D. Kosenkov,  T. Kowalczyk,  C. M. Krauter,  
 A. Kunitsa,  K. U. Lao,  A. Laurent,  K. V. Lawler,  J. Lee,  D. Lefrancois,  
 S. Lehtola,  S. V. Levchenko,  C. Y. Lin,  Y.-S. Lin,  F. Liu,  E. Livshits,  
 R. C. Lochan,  A. Luenser,  P. Manohar,  S. F. Manzer,  S.-P. Mao,  Y. Mao,  
 N. Mardirossian,  A. V. Marenich,  L. A. Martinez-Martinez,  S. A. Maurer,  
 N. J. Mayhall,  J.-M. Mewes,  A. F. Morrison,  K. Nanda,  T. S. Nguyen-Beck,  
 C. M. Oana,  R. Olivares-Amaya,  D. P. O'Neill,  J. A. Parkhill,  
 T. M. Perrine,  R. Peverati,  P. A. Pieniazek,  F. Plasser,  A. Prociuk,  
 D. R. Rehn,  E. Rosta,  N. J. Russ,  N. Sergueev,  S. M. Sharada,  
 S. Sharma,  D. W. Small,  A. Sodt,  T. Stauch,  T. Stein,  D. Stuck,  
 Y.-C. Su,  A. J. W. Thom,  T. Tsuchimochi,  L. Vogt,  O. Vydrov,  T. Wang,  
 M. A. Watson,  J. Wenzel,  A. White,  C. F. Williams,  V. Vanovschi,  
 K. Yao,  S. Yeganeh,  S. R. Yost,  Z.-Q. You,  I. Y. Zhang,  X. Zhang,  
 Y. Zhao,  B. R. Brooks,  G. K. L. Chan,  D. M. Chipman,  C. J. Cramer,  
 W. A. Goddard III,  M. S. Gordon,  W. J. Hehre,  A. Klamt,  
 H. F. Schaefer III,  M. W. Schmidt,  C. D. Sherrill,  D. G. Truhlar,  
 A. Warshel,  X. Xu,  A. Aspuru-Guzik,  R. Baer,  A. T. Bell,  N. A. Besley,  
 J.-D. Chai,  A. Dreuw,  B. D. Dunietz,  T. R. Furlani,  S. R. Gwaltney,  
 C.-P. Hsu,  Y. Jung,  J. Kong,  D. S. Lambrecht,  W. Liang,  C. Ochsenfeld,  
 V. A. Rassolov,  L. V. Slipchenko,  J. E. Subotnik,  T. Van Voorhis,  
 J. M. Herbert,  A. I. Krylov,  P. M. W. Gill,  M. Head-Gordon

 Contributors to earlier versions of Q-Chem not listed above: 
 R. D. Adamson,  J. Baker,  E. F. C. Byrd,  A. K. Chakraborty,  C.-L. Cheng,  
 H. Dachsel,  R. J. Doerksen,  G. Hawkins,  A. Heyden,  S. Hirata,  
 G. Kedziora,  F. J. Keil,  C. Kelley,  P. P. Korambath,  W. Kurlancheek,  
 A. M. Lee,  M. S. Lee,  D. Liotard,  I. Lotan,  P. E. Maslen,  N. Nair,  
 D. Neuhauser,  R. Olson,  B. Peters,  J. Ritchie,  N. E. Schultz,  
 N. Shenvi,  A. C. Simmonett,  K. S. Thanthiriwatte,  Q. Wu,  W. Zhang

 Please cite Q-Chem as follows:
 Y. Shao et al., Mol. Phys. 113, 184-215 (2015)
 DOI: 10.1080/00268976.2014.952696

 Q-Chem 4.4.2 for Intel X86 EM64T Linux

 Parts of Q-Chem use Armadillo 5.200.1 (Boston Tea Smuggler).
 http://arma.sourceforge.net/

 Q-Chem begins on Tue May 30 10:52:41 2017  

Host: nid00478
0

     Scratch files written to /dev/shm/eg_qchem/qchem37487.0//
 Parallel job on  22  processors

Checking the input file for inconsistencies... 	...done.

--------------------------------------------------------------
User input:
--------------------------------------------------------------
$molecule
 0  1
 H           6.23254100       -0.22338900        0.17638100
 H           5.29752400        2.22850500       -0.10953100
 C           5.19733500        0.07486000        0.08356300
 C           4.68347900        1.33634400       -0.06443600
 S           3.94559900       -1.12581000        0.11905200
 C           3.26267300        1.34659400       -0.16511200
 H           2.67740100        2.24810800       -0.30841700
 C           2.69562400        0.08941900       -0.09094600
 H           1.33241900       -2.39005500       -0.68762600
 C           1.29739300       -0.28590200       -0.16150800
 C           0.73808300       -1.51455700       -0.45078400
 S           0.03601800        0.89451200        0.14982500
 C          -0.68041100       -1.51067300       -0.44936800
 H          -1.28012400       -2.38277100       -0.68510300
 C          -1.23220500       -0.27900200       -0.15852500
 C          -2.62830100        0.10383400       -0.08465000
 H          -2.75812749        1.87955268       -1.32459195
 C          -3.26906386        1.17230280       -0.68073357
 S          -3.77117802       -0.83446046        0.86221660
 C          -4.66231652        1.23347353       -0.39070096
 C          -5.08180132        0.21357125        0.42239513
 H          -5.32575507        1.99828557       -0.77793931
 H          -6.07825169        0.01431881        0.79199273
$end


$rem
         jobtype = opt
        exchange = b3lyp
           basis = 6-31++g**
  max_scf_cycles = 150
      mem_static = 281
       mem_total = 2818
      sym_ignore = true
        symmetry = false
          thresh = 12
$end


$opt
CONSTRAINT
tors 13 15 16 18 -130.0
ENDCONSTRAINT
$end

--------------------------------------------------------------
 ----------------------------------------------------------------
             Standard Nuclear Orientation (Angstroms)
    I     Atom           X                Y                Z
 ----------------------------------------------------------------
    1      H       6.2325410000    -0.2233890000     0.1763810000
    2      H       5.2975240000     2.2285050000    -0.1095310000
    3      C       5.1973350000     0.0748600000     0.0835630000
    4      C       4.6834790000     1.3363440000    -0.0644360000
    5      S       3.9455990000    -1.1258100000     0.1190520000
    6      C       3.2626730000     1.3465940000    -0.1651120000
    7      H       2.6774010000     2.2481080000    -0.3084170000
    8      C       2.6956240000     0.0894190000    -0.0909460000
    9      H       1.3324190000    -2.3900550000    -0.6876260000
   10      C       1.2973930000    -0.2859020000    -0.1615080000
   11      C       0.7380830000    -1.5145570000    -0.4507840000
   12      S       0.0360180000     0.8945120000     0.1498250000
   13      C      -0.6804110000    -1.5106730000    -0.4493680000
   14      H      -1.2801240000    -2.3827710000    -0.6851030000
   15      C      -1.2322050000    -0.2790020000    -0.1585250000
   16      C      -2.6283010000     0.1038340000    -0.0846500000
   17      H      -2.7581274900     1.8795526800    -1.3245919500
   18      C      -3.2690638600     1.1723028000    -0.6807335700
   19      S      -3.7711780200    -0.8344604600     0.8622166000
   20      C      -4.6623165200     1.2334735300    -0.3907009600
   21      C      -5.0818013200     0.2135712500     0.4223951300
   22      H      -5.3257550700     1.9982855700    -0.7779393100
   23      H      -6.0782516900     0.0143188100     0.7919927300
 ----------------------------------------------------------------
 Nuclear Repulsion Energy =  1172.7514054242 hartrees
 There are       64 alpha and       64 beta electrons
 Requested basis set is 6-31++G(d,p)
 There are 110 shells and 345 basis functions

 Total QAlloc Memory Limit   2818 MB
 Mega-Array Size       275 MB
 MEM_STATIC part       281 MB
 A cutoff of  1.0D-12 yielded   4685 shell pairs
 There are     47680 function pairs

 Q-Chem warning in module /project/projectdirs/jcesr/qchem/qc44/cnl_qc441/compile/cori/qc_src/libqints/qchem/aobasis.C, line 68:

 Using reconstructed effective core potential

 
 -------------------------------------------------------
 OpenMP Integral Computing Module                       
 Release: version 1.0, May 2013, Q-Chem Inc. Pittsburgh 
 -------------------------------------------------------
 Integral Job Info:
 Integral job number is                      11
 Integral operator is                         1
 short-range coefficients                     0
 long-range coefficients              100000000
 Omega coefficients                           0
 if combine SR and LR in K                    0
 Integral screening is                        0
 Integral computing path is                   2
 max size of driver memory is            800000
 size of driver memory is                593474
 size of scratch memory is             15166112
 max col of scratch BK array               1296
 max len of scratch array in speh3          155
 max len of scratch index in speh4           18
 max int batch size is                      520
 min int batch size is                       52
 fixed nKL is                                52
 max L of basis functions is                  2
 order of int derivative is                   0
 number of shells is                        110
 number of basis is                         345
 number of cartesian basis is               345
 number of contracted shell pairs          4685
 number of primitive shell pairs          14635
 maxK2 (contraction) of shell pair           36
 max number of K2 of shell pair               1
 max number of CS2 of shell pair            520
 max number of PS2 of shell pair           3030
 mem total for path MDJ                  101496
 -------------------------------------------------------
 Smallest overlap matrix eigenvalue = 7.81E-08
 Linear dependence detected in AO basis
 Number of orthogonalized atomic orbitals = 342
 Maximum deviation from orthogonality = 1.045E-10

 Scale SEOQF with 1.000000e-02/1.000000e-01/1.000000e-01

 Standard Electronic Orientation quadrupole field applied
 Nucleus-field energy     =     0.0000000126 hartrees
 Guess from superposition of atomic densities
 Warning:  Energy on first SCF cycle will be non-variational
 A restricted hybrid HF-DFT SCF calculation will be
 performed using Pulay DIIS extrapolation
 Exchange:     0.2000 Hartree-Fock + 0.0800 Slater + 0.7200 B88
 Correlation:  0.1900 VWN1RPA + 0.8100 LYP
 Using SG-1 standard quadrature grid
 SCF converges when DIIS error is below 1.0E-08
 ---------------------------------------
  Cycle       Energy         DIIS Error
 ---------------------------------------
    1   -1660.2882573065      3.69E-02
    2   -1656.4125093614      3.89E-03
    3   -1656.0608958760      5.92E-03
    4   -1656.6418566984      1.12E-03
    5   -1656.6572609711      5.91E-04
    6   -1656.6623982385      1.79E-04
    7   -1656.6628819089      6.86E-05
    8   -1656.6629518820      1.41E-05
    9   -1656.6629547029      4.85E-06
   10   -1656.6629550488      2.08E-06
   11   -1656.6629551235      3.53E-07
   12   -1656.6629551246      2.64E-07
   13   -1656.6629551251      6.15E-08
   14   -1656.6629551251      2.29E-08
   15   -1656.6629551261      7.57E-09 Convergence criterion met
 ---------------------------------------
 SCF time:  CPU 16.27 s  wall 15.03 s
 SCF   energy in the final basis set = -1656.6629551261
 Total energy in the final basis set = -1656.6629551261
 
 --------------------------------------------------------------
 
                    Orbital Energies (a.u.)
 --------------------------------------------------------------
 
 Alpha MOs
 -- Occupied --
-88.922 -88.921 -88.921 -10.241 -10.240 -10.239 -10.239 -10.226
-10.226 -10.206 -10.206 -10.205 -10.205 -10.205 -10.205  -7.981
 -7.981  -7.980  -5.945  -5.945  -5.945  -5.941  -5.941  -5.941
 -5.938  -5.938  -5.938  -0.906  -0.892  -0.876  -0.787  -0.755
 -0.745  -0.744  -0.733  -0.697  -0.617  -0.596  -0.569  -0.561
 -0.537  -0.535  -0.528  -0.501  -0.462  -0.422  -0.421  -0.417
 -0.416  -0.407  -0.403  -0.399  -0.385  -0.376  -0.370  -0.359
 -0.351  -0.344  -0.287  -0.266  -0.262  -0.261  -0.249  -0.206
 -- Virtual --
 -0.067  -0.032  -0.009  -0.007  -0.005   0.004   0.007   0.009
  0.010   0.019   0.024   0.026   0.030   0.036   0.039   0.042
  0.045   0.050   0.052   0.054   0.056   0.061   0.074   0.076
  0.080   0.088   0.092   0.093   0.100   0.105   0.106   0.109
  0.115   0.119   0.123   0.126   0.127   0.128   0.130   0.132
  0.136   0.139   0.140   0.148   0.148   0.150   0.154   0.158
  0.160   0.169   0.172   0.174   0.178   0.179   0.186   0.194
  0.197   0.201   0.206   0.206   0.210   0.215   0.217   0.221
  0.229   0.233   0.238   0.242   0.251   0.254   0.260   0.265
  0.266   0.270   0.272   0.276   0.284   0.300   0.302   0.312
  0.318   0.323   0.328   0.338   0.351   0.354   0.359   0.367
  0.376   0.379   0.394   0.398   0.451   0.455   0.458   0.494
  0.512   0.519   0.525   0.535   0.562   0.566   0.576   0.579
  0.592   0.615   0.624   0.625   0.636   0.656   0.657   0.662
  0.667   0.678   0.683   0.692   0.711   0.713   0.723   0.724
  0.730   0.738   0.746   0.758   0.767   0.778   0.780   0.786
  0.812   0.817   0.824   0.830   0.836   0.845   0.871   0.889
  0.932   0.933   0.936   0.942   0.956   0.958   0.965   0.967
  0.975   0.978   0.980   0.994   0.998   1.005   1.024   1.026
  1.046   1.048   1.063   1.076   1.082   1.098   1.107   1.110
  1.116   1.152   1.158   1.173   1.181   1.192   1.220   1.241
  1.260   1.266   1.292   1.309   1.331   1.345   1.350   1.353
  1.361   1.365   1.379   1.446   1.462   1.475   1.494   1.510
  1.529   1.548   1.556   1.604   1.684   1.692   1.725   1.753
  1.797   1.836   1.856   1.869   1.882   1.896   1.902   1.921
  1.927   1.951   1.960   1.991   2.006   2.026   2.051   2.072
  2.086   2.096   2.120   2.152   2.172   2.178   2.184   2.200
  2.234   2.241   2.256   2.284   2.292   2.331   2.363   2.366
  2.420   2.436   2.442   2.455   2.456   2.472   2.480   2.499
  2.518   2.526   2.534   2.566   2.583   2.595   2.598   2.620
  2.660   2.682   2.699   2.714   2.729   2.812   2.856   2.876
  2.900   2.917   2.937   2.944   3.133   3.174   3.212   3.270
  3.271   3.325   3.414   3.416   3.669   3.730   3.738   3.973
  3.975   3.982   4.252   4.280   4.303   4.320   4.332   4.347
  4.397   4.479   4.546   4.647   4.693   4.725
 --------------------------------------------------------------
 
          Ground-State Mulliken Net Atomic Charges

     Atom                 Charge (a.u.)
  ----------------------------------------
      1 H                     0.196015
      2 H                     0.119281
      3 C                     0.022327
      4 C                    -0.382000
      5 S                    -0.111580
      6 C                     0.479865
      7 H                     0.124943
      8 C                    -0.326655
      9 H                     0.124930
     10 C                    -0.180114
     11 C                    -0.047324
     12 S                    -0.101260
     13 C                     0.127008
     14 H                     0.135067
     15 C                    -0.258886
     16 C                    -0.352736
     17 H                     0.142543
     18 C                     0.352350
     19 S                     0.027723
     20 C                    -0.429830
     21 C                     0.026489
     22 H                     0.117752
     23 H                     0.194092
  ----------------------------------------
  Sum of atomic charges =     0.000000

 -----------------------------------------------------------------
                    Cartesian Multipole Moments
 -----------------------------------------------------------------
    Charge (ESU x 10^10)
                 0.0000
    Dipole Moment (Debye)
         X      -0.0363      Y       0.4715      Z      -0.5477
       Tot       0.7236
    Quadrupole Moments (Debye-Ang)
        XX     -90.5003     XY      -0.1858     YY    -102.4801
        XZ       0.0653     YZ      -1.5945     ZZ    -114.3853
    Octopole Moments (Debye-Ang^2)
       XXX      -8.6641    XXY      21.0141    XYY       1.9012
       YYY       5.2519    XXZ      11.2785    XYZ       7.8904
       YYZ     -10.3287    XZZ     -13.6833    YZZ       0.9669
       ZZZ      -1.7084
    Hexadecapole Moments (Debye-Ang^3)
      XXXX   -6335.5420   XXXY       7.4705   XXYY   -1301.7287
      XYYY      61.6374   YYYY    -785.7680   XXXZ      31.9188
      XXYZ     -42.5722   XYYZ      41.1724   YYYZ      30.0321
      XXZZ   -1357.2629   XYZZ       8.3738   YYZZ    -184.8866
      XZZZ      80.5108   YZZZ      28.3698   ZZZZ    -273.9779
 -----------------------------------------------------------------
 Calculating analytic gradient of the SCF energy
 Gradient of SCF Energy
            1           2           3           4           5           6
    1  -0.0000080   0.0000015   0.0000347  -0.0001230   0.0000389   0.0001681
    2  -0.0000085  -0.0000033  -0.0000048   0.0000510  -0.0001350   0.0003249
    3  -0.0000228  -0.0000133  -0.0000193   0.0000292   0.0000148   0.0000347
            7           8           9          10          11          12
    1   0.0000054  -0.0010046  -0.0000634   0.0011764  -0.0008488  -0.0001561
    2  -0.0000053  -0.0002448   0.0000126  -0.0010366  -0.0000552   0.0005082
    3  -0.0000379   0.0001230   0.0001262  -0.0003029  -0.0001305   0.0009255
           13          14          15          16          17          18
    1   0.0012879   0.0006050  -0.0053396   0.0056630  -0.0006706  -0.0013721
    2  -0.0005752  -0.0004467   0.0027244  -0.0022433   0.0004595  -0.0000567
    3  -0.0016369  -0.0001657   0.0012451   0.0011824  -0.0001472  -0.0015139
           19          20          21          22          23
    1   0.0003111   0.0004459  -0.0004947   0.0000690   0.0002740
    2  -0.0001492  -0.0002001   0.0011703  -0.0000273  -0.0000586
    3   0.0009437  -0.0001826  -0.0007812   0.0001163   0.0002135
 Max gradient component =       5.663E-03
 RMS gradient           =       1.176E-03
 Gradient time:  CPU 4.59 s  wall 4.58 s
 Geometry Optimization Parameters
   NAtoms,    NIC,     NZ,  NCons,   NDum,   NFix, NCnnct, MaxDiis
       23     166       0       1       0       0       0       0


** CONSTRAINED OPTIMIZATION IN DELOCALIZED INTERNAL COORDINATES **
   Searching for a Minimum

   Optimization Cycle:   1

                       Coordinates (Angstroms)
     ATOM                X               Y               Z
      1  H         6.2325410000   -0.2233890000    0.1763810000
      2  H         5.2975240000    2.2285050000   -0.1095310000
      3  C         5.1973350000    0.0748600000    0.0835630000
      4  C         4.6834790000    1.3363440000   -0.0644360000
      5  S         3.9455990000   -1.1258100000    0.1190520000
      6  C         3.2626730000    1.3465940000   -0.1651120000
      7  H         2.6774010000    2.2481080000   -0.3084170000
      8  C         2.6956240000    0.0894190000   -0.0909460000
      9  H         1.3324190000   -2.3900550000   -0.6876260000
     10  C         1.2973930000   -0.2859020000   -0.1615080000
     11  C         0.7380830000   -1.5145570000   -0.4507840000
     12  S         0.0360180000    0.8945120000    0.1498250000
     13  C        -0.6804110000   -1.5106730000   -0.4493680000
     14  H        -1.2801240000   -2.3827710000   -0.6851030000
     15  C        -1.2322050000   -0.2790020000   -0.1585250000
     16  C        -2.6283010000    0.1038340000   -0.0846500000
     17  H        -2.7581274900    1.8795526800   -1.3245919500
     18  C        -3.2690638600    1.1723028000   -0.6807335700
     19  S        -3.7711780200   -0.8344604600    0.8622166000
     20  C        -4.6623165200    1.2334735300   -0.3907009600
     21  C        -5.0818013200    0.2135712500    0.4223951300
     22  H        -5.3257550700    1.9982855700   -0.7779393100
     23  H        -6.0782516900    0.0143188100    0.7919927300
   Point Group: c1    Number of degrees of freedom:    63


   Energy is  -1656.662955126

              Constraints and their Current Values
                                        Value     Constraint
   Dihedral:       13  15  16  18     -130.000     -130.000

 Attempting to Generate Delocalized Internal Coordinates

 62 Hessian modes will be used to form the next step
  Hessian Eigenvalues:
     0.045000    0.045000    0.045000    0.045000    0.045000    0.045000
     0.045000    0.045000    0.045000    0.045001    0.045002    0.045002
     0.045003    0.045003    0.045009    0.045010    0.045011    0.045018
     0.045019    0.159886    0.159939    0.159955    0.159957    0.159992
     0.159993    0.160000    0.160000    0.221281    0.221281    0.226855
     0.237826    0.237826    0.245311    0.249998    0.249998    0.250000
     0.250000    0.293636    0.293684    0.294746    0.294936    0.312571
     0.312615    0.354732    0.354740    0.354742    0.354756    0.355161
     0.355164    0.358372    0.358373    0.383080    0.383176    0.405793
     0.405832    0.413732    0.458107    0.461989    0.461995    0.485493
     0.497291    0.497294

 Minimum Search - Taking Simple RFO Step
 Searching for Lamda that Minimizes Along All modes
 Value Taken    Lamda =  -0.00017514
 Step Taken.  Stepsize is  0.044446

                             Maximum     Tolerance    Cnvgd?
         Gradient           0.002058      0.000300      NO
         Displacement       0.019869      0.001200      NO
         Energy change     *********      0.000001      NO


 New Cartesian Coordinates Obtained by Inverse Iteration

 Displacement from previous Coordinates is:  0.151302
 ----------------------------------------------------------------
             Standard Nuclear Orientation (Angstroms)
    I     Atom           X                Y                Z
 ----------------------------------------------------------------
    1      H       6.2359199271    -0.2234468911     0.1608932059
    2      H       5.3003014258     2.2285508888    -0.1222585313
    3      C       5.2003973339     0.0750757016     0.0724710219
    4      C       4.6862685982     1.3365436837    -0.0739994804
    5      S       3.9483105375    -1.1249126641     0.1142964869
    6      C       3.2648701011     1.3470733410    -0.1678649441
    7      H       2.6791656270     2.2487416085    -0.3084404774
    8      C       2.6977931060     0.0904670744    -0.0902751914
    9      H       1.3321704145    -2.3887780862    -0.6820468563
   10      C       1.2979852119    -0.2848301649    -0.1536512069
   11      C       0.7380492300    -1.5141650387    -0.4409383875
   12      S       0.0374504625     0.8934155570     0.1614126328
   13      C      -0.6817404617    -1.5108017839    -0.4352390121
   14      H      -1.2867139996    -2.3791837302    -0.6708349903
   15      C      -1.2307100934    -0.2810925726    -0.1411098044
   16      C      -2.6319749957     0.1067752685    -0.0729013249
   17      H      -2.7410609131     1.8891221750    -1.2967105764
   18      C      -3.2642328081     1.1789467016    -0.6662210289
   19      S      -3.7853050019    -0.8448255432     0.8468104492
   20      C      -4.6620728692     1.2357630072    -0.3929549376
   21      C      -5.0912044482     0.2053957471     0.4029275638
   22      H      -5.3217730829     2.0030661572    -0.7820700864
   23      H      -6.0933392718     0.0001607434     0.7541591457
 ----------------------------------------------------------------
 Nuclear Repulsion Energy =  1172.4077593764 hartrees
 There are       64 alpha and       64 beta electrons
 Applying Cartesian multipole field
    Component          Value
    ---------          -----
     (2,0,0)        1.00000E-12
     (0,2,0)        2.00000E-11
     (0,0,2)       -3.00000E-11
 Nucleus-field energy     =     0.0000000128 hartrees
 Requested basis set is 6-31++G(d,p)
 There are 110 shells and 345 basis functions
 A cutoff of  1.0D-12 yielded   4685 shell pairs
 There are     47680 function pairs

 Q-Chem warning in module /project/projectdirs/jcesr/qchem/qc44/cnl_qc441/compile/cori/qc_src/libqints/qchem/aobasis.C, line 68:

 Using reconstructed effective core potential

 Smallest overlap matrix eigenvalue = 7.89E-08
 Linear dependence detected in AO basis
 Number of orthogonalized atomic orbitals = 342
 Maximum deviation from orthogonality = 6.682E-11
 Guess MOs from SCF MO coefficient file
 Reading MOs from coefficient file
 Reading MOs from coefficient file
 A restricted hybrid HF-DFT SCF calculation will be
 performed using Pulay DIIS extrapolation
 Exchange:     0.2000 Hartree-Fock + 0.0800 Slater + 0.7200 B88
 Correlation:  0.1900 VWN1RPA + 0.8100 LYP
 Using SG-1 standard quadrature grid
 SCF converges when DIIS error is below 1.0E-08
 Geometry optimization detected.  Setting ReadMinima to 0
 Setting SaveMinima to 0
 ---------------------------------------
  Cycle       Energy         DIIS Error
 ---------------------------------------
    1   -1656.6610078593      3.57E-04
    2   -1656.6630333969      4.81E-05
    3   -1656.6629049837      1.03E-04
    4   -1656.6630746456      1.16E-05
    5   -1656.6630763286      5.85E-06
    6   -1656.6630768146      2.23E-06
    7   -1656.6630768905      8.07E-07
    8   -1656.6630769009      2.93E-07
    9   -1656.6630769031      7.13E-08
   10   -1656.6630769036      2.05E-08
   11   -1656.6630769036      8.68E-09 Convergence criterion met
 ---------------------------------------
 SCF time:  CPU 12.24 s  wall 11.20 s
 SCF   energy in the final basis set = -1656.6630769036
 Total energy in the final basis set = -1656.6630769036
 
 --------------------------------------------------------------
 
                    Orbital Energies (a.u.)
 --------------------------------------------------------------
 
 Alpha MOs
 -- Occupied --
-88.922 -88.921 -88.921 -10.241 -10.240 -10.240 -10.239 -10.226
-10.226 -10.206 -10.206 -10.206 -10.205 -10.205 -10.205  -7.981
 -7.981  -7.980  -5.945  -5.945  -5.945  -5.941  -5.941  -5.941
 -5.938  -5.938  -5.938  -0.906  -0.892  -0.876  -0.787  -0.755
 -0.745  -0.744  -0.733  -0.697  -0.617  -0.595  -0.570  -0.561
 -0.537  -0.535  -0.528  -0.501  -0.462  -0.422  -0.421  -0.417
 -0.415  -0.407  -0.403  -0.399  -0.385  -0.377  -0.370  -0.359
 -0.351  -0.344  -0.287  -0.266  -0.262  -0.261  -0.249  -0.206
 -- Virtual --
 -0.067  -0.031  -0.008  -0.007  -0.005   0.004   0.007   0.009
  0.010   0.018   0.024   0.026   0.030   0.036   0.039   0.042
  0.045   0.051   0.052   0.054   0.056   0.061   0.074   0.076
  0.080   0.088   0.091   0.093   0.100   0.105   0.106   0.109
  0.115   0.119   0.123   0.126   0.127   0.128   0.130   0.132
  0.136   0.139   0.140   0.147   0.148   0.150   0.154   0.159
  0.160   0.169   0.172   0.174   0.178   0.179   0.185   0.194
  0.196   0.200   0.205   0.207   0.210   0.215   0.217   0.221
  0.229   0.233   0.238   0.242   0.251   0.254   0.260   0.265
  0.266   0.270   0.271   0.275   0.284   0.300   0.302   0.312
  0.318   0.323   0.328   0.338   0.351   0.355   0.360   0.367
  0.376   0.379   0.394   0.398   0.451   0.456   0.459   0.494
  0.512   0.519   0.525   0.535   0.562   0.566   0.576   0.579
  0.592   0.616   0.623   0.624   0.635   0.656   0.657   0.662
  0.667   0.678   0.683   0.690   0.711   0.713   0.723   0.724
  0.730   0.738   0.746   0.757   0.768   0.779   0.780   0.786
  0.812   0.816   0.824   0.830   0.836   0.844   0.871   0.889
  0.932   0.933   0.936   0.942   0.956   0.958   0.965   0.967
  0.975   0.978   0.980   0.994   0.998   1.004   1.024   1.026
  1.046   1.048   1.063   1.076   1.083   1.098   1.107   1.110
  1.115   1.152   1.158   1.173   1.181   1.192   1.219   1.241
  1.259   1.266   1.292   1.309   1.331   1.344   1.350   1.352
  1.361   1.364   1.381   1.446   1.462   1.475   1.493   1.510
  1.529   1.546   1.557   1.603   1.684   1.692   1.725   1.752
  1.795   1.834   1.859   1.868   1.881   1.895   1.901   1.920
  1.927   1.951   1.958   1.989   2.006   2.026   2.051   2.072
  2.088   2.096   2.121   2.152   2.172   2.179   2.184   2.199
  2.233   2.241   2.254   2.282   2.292   2.330   2.363   2.366
  2.420   2.436   2.442   2.455   2.456   2.470   2.480   2.499
  2.518   2.526   2.534   2.566   2.583   2.595   2.598   2.620
  2.659   2.681   2.698   2.714   2.728   2.811   2.855   2.875
  2.899   2.916   2.937   2.943   3.133   3.174   3.211   3.270
  3.270   3.324   3.414   3.415   3.669   3.729   3.738   3.974
  3.975   3.982   4.251   4.278   4.303   4.320   4.331   4.348
  4.396   4.480   4.546   4.646   4.692   4.724
 --------------------------------------------------------------
 
          Ground-State Mulliken Net Atomic Charges

     Atom                 Charge (a.u.)
  ----------------------------------------
      1 H                     0.196001
      2 H                     0.119294
      3 C                     0.022491
      4 C                    -0.381547
      5 S                    -0.110948
      6 C                     0.477736
      7 H                     0.124933
      8 C                    -0.323890
      9 H                     0.125008
     10 C                    -0.183210
     11 C                    -0.050855
     12 S                    -0.103434
     13 C                     0.127064
     14 H                     0.134969
     15 C                    -0.251007
     16 C                    -0.349486
     17 H                     0.142717
     18 C                     0.356743
     19 S                     0.025022
     20 C                    -0.438225
     21 C                     0.029020
     22 H                     0.117507
     23 H                     0.194097
  ----------------------------------------
  Sum of atomic charges =     0.000000

 -----------------------------------------------------------------
                    Cartesian Multipole Moments
 -----------------------------------------------------------------
    Charge (ESU x 10^10)
                 0.0000
    Dipole Moment (Debye)
         X      -0.0353      Y       0.4695      Z      -0.5692
       Tot       0.7387
    Quadrupole Moments (Debye-Ang)
        XX     -90.4392     XY      -0.0953     YY    -102.4691
        XZ       0.1117     YZ      -1.5925     ZZ    -114.4813
    Octopole Moments (Debye-Ang^2)
       XXX      -8.7393    XXY      20.5104    XYY       1.9067
       YYY       5.7210    XXZ      10.2212    XYZ       7.8332
       YYZ     -10.3472    XZZ     -13.1377    YZZ       1.0600
       ZZZ      -1.8448
    Hexadecapole Moments (Debye-Ang^3)
      XXXX   -6342.5580   XXXY       8.7131   XXYY   -1304.3449
      XYYY      58.9395   YYYY    -787.5803   XXXZ      34.3679
      XXYZ     -42.6240   XYYZ      41.0218   YYYZ      30.0659
      XXZZ   -1361.8683   XYZZ       7.5848   YYZZ    -184.6450
      XZZZ      81.6193   YZZZ      29.0311   ZZZZ    -269.5215
 -----------------------------------------------------------------
 Calculating analytic gradient of the SCF energy
 Gradient of SCF Energy
            1           2           3           4           5           6
    1   0.0000018   0.0000101   0.0000516  -0.0000583   0.0000551   0.0001332
    2   0.0000020  -0.0000048   0.0000004  -0.0000122   0.0000194   0.0000707
    3  -0.0000069  -0.0000040   0.0000027   0.0000081  -0.0000351   0.0000376
            7           8           9          10          11          12
    1  -0.0000042  -0.0002989   0.0000024   0.0006293  -0.0004520   0.0002090
    2  -0.0000182   0.0000579  -0.0000188  -0.0001848   0.0000487  -0.0001151
    3  -0.0000290   0.0000514   0.0000346   0.0000116   0.0000466   0.0005347
           13          14          15          16          17          18
    1   0.0002875   0.0001081  -0.0011476   0.0013133  -0.0001557  -0.0004710
    2   0.0003707  -0.0000658  -0.0002565   0.0006919   0.0000600  -0.0009655
    3  -0.0015547  -0.0001117   0.0010104   0.0007401  -0.0000806  -0.0012743
           19          20          21          22          23
    1  -0.0002054   0.0003218  -0.0003677   0.0000015   0.0000360
    2   0.0002638  -0.0000637   0.0001967   0.0000141  -0.0000909
    3   0.0004810   0.0000046  -0.0000026   0.0000035   0.0001319
 Max gradient component =       1.555E-03
 RMS gradient           =       4.239E-04
 Gradient time:  CPU 4.70 s  wall 4.59 s
 Geometry Optimization Parameters
   NAtoms,    NIC,     NZ,  NCons,   NDum,   NFix, NCnnct, MaxDiis
       23     166       0       1       0       0       0       0

 Cartesian Hessian Update
 Hessian Updated using BFGS Update


** CONSTRAINED OPTIMIZATION IN DELOCALIZED INTERNAL COORDINATES **
   Searching for a Minimum

   Optimization Cycle:   2

                       Coordinates (Angstroms)
     ATOM                X               Y               Z
      1  H         6.2359199271   -0.2234468911    0.1608932059
      2  H         5.3003014258    2.2285508888   -0.1222585313
      3  C         5.2003973339    0.0750757016    0.0724710219
      4  C         4.6862685982    1.3365436837   -0.0739994804
      5  S         3.9483105375   -1.1249126641    0.1142964869
      6  C         3.2648701011    1.3470733410   -0.1678649441
      7  H         2.6791656270    2.2487416085   -0.3084404774
      8  C         2.6977931060    0.0904670744   -0.0902751914
      9  H         1.3321704145   -2.3887780862   -0.6820468563
     10  C         1.2979852119   -0.2848301649   -0.1536512069
     11  C         0.7380492300   -1.5141650387   -0.4409383875
     12  S         0.0374504625    0.8934155570    0.1614126328
     13  C        -0.6817404617   -1.5108017839   -0.4352390121
     14  H        -1.2867139996   -2.3791837302   -0.6708349903
     15  C        -1.2307100934   -0.2810925726   -0.1411098044
     16  C        -2.6319749957    0.1067752685   -0.0729013249
     17  H        -2.7410609131    1.8891221750   -1.2967105764
     18  C        -3.2642328081    1.1789467016   -0.6662210289
     19  S        -3.7853050019   -0.8448255432    0.8468104492
     20  C        -4.6620728692    1.2357630072   -0.3929549376
     21  C        -5.0912044482    0.2053957471    0.4029275638
     22  H        -5.3217730829    2.0030661572   -0.7820700864
     23  H        -6.0933392718    0.0001607434    0.7541591457
   Point Group: c1    Number of degrees of freedom:    63


   Energy is  -1656.663076904

              Constraints and their Current Values
                                        Value     Constraint
   Dihedral:       13  15  16  18     -130.000     -130.000
 Hessian Updated using BFGS Update

 55 Hessian modes will be used to form the next step
  Hessian Eigenvalues:
     0.023424    0.045000    0.045001    0.045001    0.045003    0.045003
     0.045009    0.045009    0.045011    0.045016    0.045018    0.045239
     0.158461    0.159900    0.159946    0.159958    0.159992    0.159993
     0.160000    0.161326    0.221279    0.222124    0.227228    0.235594
     0.238022    0.243700    0.249523    0.249999    0.250000    0.250235
     0.291419    0.293638    0.294560    0.295536    0.312569    0.313431
     0.354732    0.354741    0.354747    0.354757    0.355164    0.355178
     0.358372    0.358415    0.383170    0.403909    0.405831    0.410158
     0.421108    0.459628    0.461871    0.481818    0.496305    0.497290
     0.506797

 Minimum Search - Taking Simple RFO Step
 Searching for Lamda that Minimizes Along All modes
 Value Taken    Lamda =  -0.00009891
 Step Taken.  Stepsize is  0.063184

                             Maximum     Tolerance    Cnvgd?
         Gradient           0.000672      0.000300      NO
         Displacement       0.030528      0.001200      NO
         Energy change     -0.000122      0.000001      NO


 New Cartesian Coordinates Obtained by Inverse Iteration

 Displacement from previous Coordinates is:  0.225970
 ----------------------------------------------------------------
             Standard Nuclear Orientation (Angstroms)
    I     Atom           X                Y                Z
 ----------------------------------------------------------------
    1      H       6.2362684444    -0.2232779913     0.1374639683
    2      H       5.2992433734     2.2287906206    -0.1414068110
    3      C       5.2002272998     0.0753736875     0.0557990255
    4      C       4.6854936864     1.3368674330    -0.0882867142
    5      S       3.9483320300    -1.1243941954     0.1076276906
    6      C       3.2633924615     1.3475103157    -0.1721024917
    7      H       2.6768069060     2.2492379515    -0.3087663434
    8      C       2.6970997420     0.0911671939    -0.0895516152
    9      H       1.3308807276    -2.3875949325    -0.6736549397
   10      C       1.2962657924    -0.2839662286    -0.1427329515
   11      C       0.7370248425    -1.5143608448    -0.4269036631
   12      S       0.0378893820     0.8935173973     0.1792437550
   13      C      -0.6833711184    -1.5116633713    -0.4134947092
   14      H      -1.2924336991    -2.3773477664    -0.6481642180
   15      C      -1.2291470206    -0.2830730217    -0.1137368932
   16      C      -2.6321855685     0.1104639664    -0.0543010863
   17      H      -2.7162023488     1.9076903923    -1.2534507821
   18      C      -3.2534099677     1.1897783946    -0.6439906881
   19      S      -3.7994145043    -0.8611553581     0.8237543958
   20      C      -4.6569678627     1.2393601414    -0.3974945939
   21      C      -5.0981679600     0.1936075791     0.3716427024
   22      H      -5.3114463953     2.0104364701    -0.7880318204
   23      H      -6.1076242129    -0.0199066533     0.6959924534
 ----------------------------------------------------------------
 Nuclear Repulsion Energy =  1172.4926871595 hartrees
 There are       64 alpha and       64 beta electrons
 Applying Cartesian multipole field
    Component          Value
    ---------          -----
     (2,0,0)        1.00000E-12
     (0,2,0)        2.00000E-11
     (0,0,2)       -3.00000E-11
 Nucleus-field energy     =     0.0000000130 hartrees
 Requested basis set is 6-31++G(d,p)
 There are 110 shells and 345 basis functions
 A cutoff of  1.0D-12 yielded   4689 shell pairs
 There are     47738 function pairs

 Q-Chem warning in module /project/projectdirs/jcesr/qchem/qc44/cnl_qc441/compile/cori/qc_src/libqints/qchem/aobasis.C, line 68:

 Using reconstructed effective core potential

 Smallest overlap matrix eigenvalue = 7.92E-08
 Linear dependence detected in AO basis
 Number of orthogonalized atomic orbitals = 342
 Maximum deviation from orthogonality = 1.107E-10
 Guess MOs from SCF MO coefficient file
 Reading MOs from coefficient file
 Reading MOs from coefficient file
 A restricted hybrid HF-DFT SCF calculation will be
 performed using Pulay DIIS extrapolation
 Exchange:     0.2000 Hartree-Fock + 0.0800 Slater + 0.7200 B88
 Correlation:  0.1900 VWN1RPA + 0.8100 LYP
 Using SG-1 standard quadrature grid
 SCF converges when DIIS error is below 1.0E-08
 Geometry optimization detected.  Setting ReadMinima to 0
 Setting SaveMinima to 0
 ---------------------------------------
  Cycle       Energy         DIIS Error
 ---------------------------------------
    1   -1656.6613254520      5.29E-04
    2   -1656.6630566879      6.59E-05
    3   -1656.6628136080      1.41E-04
    4   -1656.6631365523      1.57E-05
    5   -1656.6631395185      8.24E-06
    6   -1656.6631404546      3.27E-06
    7   -1656.6631406171      1.13E-06
    8   -1656.6631406383      3.78E-07
    9   -1656.6631406409      1.04E-07
   10   -1656.6631406407      3.04E-08
   11   -1656.6631406398      1.26E-08
   12   -1656.6631406409      4.42E-09 Convergence criterion met
 ---------------------------------------
 SCF time:  CPU 12.96 s  wall 12.10 s
 SCF   energy in the final basis set = -1656.6631406409
 Total energy in the final basis set = -1656.6631406409
 
 --------------------------------------------------------------
 
                    Orbital Energies (a.u.)
 --------------------------------------------------------------
 
 Alpha MOs
 -- Occupied --
-88.922 -88.921 -88.921 -10.241 -10.240 -10.240 -10.239 -10.226
-10.226 -10.206 -10.206 -10.206 -10.205 -10.205 -10.205  -7.981
 -7.981  -7.980  -5.945  -5.945  -5.945  -5.941  -5.941  -5.941
 -5.938  -5.938  -5.938  -0.906  -0.892  -0.876  -0.786  -0.755
 -0.745  -0.744  -0.733  -0.697  -0.616  -0.595  -0.570  -0.561
 -0.537  -0.535  -0.528  -0.501  -0.462  -0.421  -0.421  -0.417
 -0.415  -0.407  -0.403  -0.399  -0.386  -0.377  -0.370  -0.360
 -0.351  -0.345  -0.288  -0.266  -0.263  -0.261  -0.249  -0.206
 -- Virtual --
 -0.067  -0.031  -0.008  -0.007  -0.004   0.004   0.007   0.009
  0.010   0.018   0.024   0.026   0.030   0.036   0.039   0.042
  0.046   0.051   0.052   0.054   0.056   0.061   0.074   0.076
  0.080   0.088   0.091   0.093   0.100   0.105   0.106   0.109
  0.115   0.119   0.123   0.126   0.128   0.128   0.130   0.132
  0.136   0.139   0.140   0.147   0.148   0.151   0.154   0.159
  0.160   0.169   0.172   0.174   0.178   0.180   0.185   0.193
  0.196   0.200   0.205   0.207   0.211   0.215   0.217   0.221
  0.228   0.232   0.238   0.242   0.251   0.253   0.260   0.266
  0.266   0.270   0.272   0.275   0.284   0.299   0.303   0.312
  0.318   0.322   0.328   0.338   0.352   0.355   0.360   0.367
  0.376   0.379   0.394   0.398   0.451   0.456   0.461   0.495
  0.512   0.519   0.526   0.535   0.562   0.567   0.576   0.578
  0.592   0.616   0.621   0.625   0.634   0.655   0.657   0.662
  0.666   0.678   0.682   0.688   0.711   0.713   0.722   0.723
  0.729   0.737   0.746   0.757   0.768   0.779   0.780   0.786
  0.813   0.817   0.824   0.831   0.836   0.844   0.870   0.889
  0.931   0.933   0.936   0.942   0.956   0.958   0.965   0.967
  0.976   0.977   0.980   0.995   0.999   1.004   1.025   1.027
  1.046   1.048   1.063   1.075   1.083   1.098   1.107   1.109
  1.114   1.152   1.158   1.174   1.181   1.194   1.219   1.243
  1.259   1.267   1.292   1.309   1.331   1.344   1.350   1.353
  1.361   1.364   1.382   1.445   1.461   1.473   1.493   1.510
  1.530   1.544   1.559   1.602   1.683   1.692   1.725   1.749
  1.793   1.834   1.862   1.867   1.881   1.895   1.901   1.921
  1.927   1.951   1.958   1.988   2.006   2.027   2.051   2.072
  2.091   2.096   2.121   2.152   2.173   2.179   2.185   2.200
  2.233   2.240   2.253   2.281   2.292   2.330   2.364   2.366
  2.421   2.436   2.442   2.454   2.456   2.469   2.480   2.500
  2.518   2.526   2.534   2.566   2.583   2.595   2.598   2.620
  2.660   2.680   2.698   2.714   2.729   2.810   2.854   2.874
  2.898   2.916   2.936   2.942   3.133   3.174   3.211   3.269
  3.270   3.324   3.414   3.415   3.669   3.729   3.738   3.974
  3.975   3.983   4.251   4.277   4.303   4.320   4.331   4.349
  4.396   4.480   4.547   4.646   4.692   4.724
 --------------------------------------------------------------
 
          Ground-State Mulliken Net Atomic Charges

     Atom                 Charge (a.u.)
  ----------------------------------------
      1 H                     0.195855
      2 H                     0.119282
      3 C                     0.021931
      4 C                    -0.380110
      5 S                    -0.110191
      6 C                     0.473564
      7 H                     0.124713
      8 C                    -0.318785
      9 H                     0.125134
     10 C                    -0.189283
     11 C                    -0.054773
     12 S                    -0.105931
     13 C                     0.127606
     14 H                     0.134610
     15 C                    -0.238712
     16 C                    -0.344240
     17 H                     0.142559
     18 C                     0.362426
     19 S                     0.021829
     20 C                    -0.448635
     21 C                     0.030424
     22 H                     0.117195
     23 H                     0.193533
  ----------------------------------------
  Sum of atomic charges =     0.000000

 -----------------------------------------------------------------
                    Cartesian Multipole Moments
 -----------------------------------------------------------------
    Charge (ESU x 10^10)
                 0.0000
    Dipole Moment (Debye)
         X      -0.0379      Y       0.4673      Z      -0.5973
       Tot       0.7593
    Quadrupole Moments (Debye-Ang)
        XX     -90.4590     XY      -0.0004     YY    -102.3982
        XZ       0.1819     YZ      -1.5901     ZZ    -114.6144
    Octopole Moments (Debye-Ang^2)
       XXX      -8.8311    XXY      19.8599    XYY       1.8087
       YYY       6.4191    XXZ       8.5077    XYZ       7.7565
       YYZ     -10.3799    XZZ     -12.3564    YZZ       1.2005
       ZZZ      -2.0286
    Hexadecapole Moments (Debye-Ang^3)
      XXXX   -6342.9673   XXXY       9.8897   XXYY   -1305.0613
      XYYY      54.9338   YYYY    -790.6834   XXXZ      38.5820
      XXYZ     -42.6546   XYYZ      40.6490   YYYZ      30.1041
      XXZZ   -1365.4978   XYZZ       6.4674   YYZZ    -184.4473
      XZZZ      82.7187   YZZZ      30.0037   ZZZZ    -263.1049
 -----------------------------------------------------------------
 Calculating analytic gradient of the SCF energy
 Gradient of SCF Energy
            1           2           3           4           5           6
    1  -0.0000051  -0.0000067  -0.0000619  -0.0000210   0.0000073  -0.0000160
    2   0.0000014   0.0000072  -0.0000288   0.0000071  -0.0000152  -0.0000799
    3   0.0000056   0.0000060  -0.0000029  -0.0000192  -0.0000351   0.0000259
            7           8           9          10          11          12
    1  -0.0000092   0.0002517   0.0000210  -0.0004108   0.0001664   0.0001219
    2   0.0000029   0.0001569  -0.0000407   0.0001967  -0.0000586  -0.0000520
    3  -0.0000090  -0.0000679  -0.0000530   0.0002265   0.0001078   0.0002482
           13          14          15          16          17          18
    1  -0.0002295  -0.0001668   0.0014322  -0.0012014   0.0001563  -0.0001073
    2   0.0008547   0.0001412  -0.0021455   0.0026067  -0.0001676  -0.0014394
    3  -0.0017299  -0.0000610   0.0013747   0.0009122  -0.0000380  -0.0013475
           19          20          21          22          23
    1  -0.0001162  -0.0000728   0.0003166  -0.0000178  -0.0000309
    2   0.0001135   0.0001995  -0.0002528   0.0000236  -0.0000310
    3   0.0002429   0.0000698   0.0002888  -0.0000805  -0.0000645
 Max gradient component =       2.607E-03
 RMS gradient           =       6.172E-04
 Gradient time:  CPU 4.55 s  wall 4.56 s
 Geometry Optimization Parameters
   NAtoms,    NIC,     NZ,  NCons,   NDum,   NFix, NCnnct, MaxDiis
       23     166       0       1       0       0       0       0

 Cartesian Hessian Update
 Hessian Updated using BFGS Update


** CONSTRAINED OPTIMIZATION IN DELOCALIZED INTERNAL COORDINATES **
   Searching for a Minimum

   Optimization Cycle:   3

                       Coordinates (Angstroms)
     ATOM                X               Y               Z
      1  H         6.2362684444   -0.2232779913    0.1374639683
      2  H         5.2992433734    2.2287906206   -0.1414068110
      3  C         5.2002272998    0.0753736875    0.0557990255
      4  C         4.6854936864    1.3368674330   -0.0882867142
      5  S         3.9483320300   -1.1243941954    0.1076276906
      6  C         3.2633924615    1.3475103157   -0.1721024917
      7  H         2.6768069060    2.2492379515   -0.3087663434
      8  C         2.6970997420    0.0911671939   -0.0895516152
      9  H         1.3308807276   -2.3875949325   -0.6736549397
     10  C         1.2962657924   -0.2839662286   -0.1427329515
     11  C         0.7370248425   -1.5143608448   -0.4269036631
     12  S         0.0378893820    0.8935173973    0.1792437550
     13  C        -0.6833711184   -1.5116633713   -0.4134947092
     14  H        -1.2924336991   -2.3773477664   -0.6481642180
     15  C        -1.2291470206   -0.2830730217   -0.1137368932
     16  C        -2.6321855685    0.1104639664   -0.0543010863
     17  H        -2.7162023488    1.9076903923   -1.2534507821
     18  C        -3.2534099677    1.1897783946   -0.6439906881
     19  S        -3.7994145043   -0.8611553581    0.8237543958
     20  C        -4.6569678627    1.2393601414   -0.3974945939
     21  C        -5.0981679600    0.1936075791    0.3716427024
     22  H        -5.3114463953    2.0104364701   -0.7880318204
     23  H        -6.1076242129   -0.0199066533    0.6959924534
   Point Group: c1    Number of degrees of freedom:    63


   Energy is  -1656.663140641

              Constraints and their Current Values
                                        Value     Constraint
   Dihedral:       13  15  16  18     -130.000     -130.000
 Hessian Updated using BFGS Update

 58 Hessian modes will be used to form the next step
  Hessian Eigenvalues:
     0.012909    0.045000    0.045000    0.045001    0.045001    0.045002
     0.045002    0.045003    0.045008    0.045009    0.045010    0.045016
     0.045018    0.045023    0.045591    0.159771    0.159919    0.159950
     0.159958    0.159993    0.159999    0.160060    0.165332    0.221282
     0.222589    0.227313    0.237823    0.240134    0.249447    0.249936
     0.249999    0.250105    0.261885    0.293565    0.293717    0.294841
     0.295490    0.312568    0.313402    0.354729    0.354746    0.354749
     0.354761    0.355164    0.355176    0.358372    0.358498    0.383344
     0.405696    0.406141    0.412503    0.424917    0.459626    0.462169
     0.482004    0.496652    0.497300    0.559697

 Minimum Search - Taking Simple RFO Step
 Searching for Lamda that Minimizes Along All modes
 Value Taken    Lamda =  -0.00003868
 Step Taken.  Stepsize is  0.049088

                             Maximum     Tolerance    Cnvgd?
         Gradient           0.000635      0.000300      NO
         Displacement       0.024741      0.001200      NO
         Energy change     -0.000064      0.000001      NO


 New Cartesian Coordinates Obtained by Inverse Iteration

 Displacement from previous Coordinates is:  0.170934
 ----------------------------------------------------------------
             Standard Nuclear Orientation (Angstroms)
    I     Atom           X                Y                Z
 ----------------------------------------------------------------
    1      H       6.2376402566    -0.2229853231     0.1211978833
    2      H       5.2993882116     2.2287989626    -0.1558253260
    3      C       5.2012295535     0.0756560991     0.0441594373
    4      C       4.6858512796     1.3369705101    -0.0988434766
    5      S       3.9493235993    -1.1238618611     0.1033731774
    6      C       3.2632368922     1.3475732958    -0.1759273472
    7      H       2.6761552045     2.2492823601    -0.3105047007
    8      C       2.6971765488     0.0913629594    -0.0895551502
    9      H       1.3287494050    -2.3868450865    -0.6672398226
   10      C       1.2959123429    -0.2836012366    -0.1359605481
   11      C       0.7356970344    -1.5141302637    -0.4171327805
   12      S       0.0384403371     0.8933420662     0.1915933580
   13      C      -0.6848711594    -1.5119810535    -0.3969668188
   14      H      -1.2948162193    -2.3774333407    -0.6300705152
   15      C      -1.2295706961    -0.2837483769    -0.0926581242
   16      C      -2.6315809638     0.1129302387    -0.0398625883
   17      H      -2.7013127458     1.9240861589    -1.2191994930
   18      C      -3.2462790158     1.1979586310    -0.6266343653
   19      S      -3.8102775874    -0.8730563262     0.8051846224
   20      C      -4.6538212577     1.2412561846    -0.4011540692
   21      C      -5.1046933066     0.1845721199     0.3469092333
   22      H      -5.3041684027     2.0157403181    -0.7916252030
   23      H      -6.1188552808    -0.0348258564     0.6521962871
 ----------------------------------------------------------------
 Nuclear Repulsion Energy =  1172.4472684067 hartrees
 There are       64 alpha and       64 beta electrons
 Applying Cartesian multipole field
    Component          Value
    ---------          -----
     (2,0,0)        1.00000E-12
     (0,2,0)        2.00000E-11
     (0,0,2)       -3.00000E-11
 Nucleus-field energy     =     0.0000000131 hartrees
 Requested basis set is 6-31++G(d,p)
 There are 110 shells and 345 basis functions
 A cutoff of  1.0D-12 yielded   4689 shell pairs
 There are     47738 function pairs

 Q-Chem warning in module /project/projectdirs/jcesr/qchem/qc44/cnl_qc441/compile/cori/qc_src/libqints/qchem/aobasis.C, line 68:

 Using reconstructed effective core potential

 Smallest overlap matrix eigenvalue = 8.03E-08
 Linear dependence detected in AO basis
 Number of orthogonalized atomic orbitals = 342
 Maximum deviation from orthogonality = 9.932E-11
 Guess MOs from SCF MO coefficient file
 Reading MOs from coefficient file
 Reading MOs from coefficient file
 A restricted hybrid HF-DFT SCF calculation will be
 performed using Pulay DIIS extrapolation
 Exchange:     0.2000 Hartree-Fock + 0.0800 Slater + 0.7200 B88
 Correlation:  0.1900 VWN1RPA + 0.8100 LYP
 Using SG-1 standard quadrature grid
 SCF converges when DIIS error is below 1.0E-08
 Geometry optimization detected.  Setting ReadMinima to 0
 Setting SaveMinima to 0
 ---------------------------------------
  Cycle       Energy         DIIS Error
 ---------------------------------------
    1   -1656.6612034055      4.08E-04
    2   -1656.6631202174      4.87E-05
    3   -1656.6629807382      1.06E-04
    4   -1656.6631652923      1.13E-05
    5   -1656.6631667045      6.30E-06
    6   -1656.6631672532      2.31E-06
    7   -1656.6631673321      8.79E-07
    8   -1656.6631673432      2.61E-07
    9   -1656.6631673447      7.88E-08
   10   -1656.6631673438      2.21E-08
   11   -1656.6631673444      9.16E-09 Convergence criterion met
 ---------------------------------------
 SCF time:  CPU 12.30 s  wall 11.26 s
 SCF   energy in the final basis set = -1656.6631673444
 Total energy in the final basis set = -1656.6631673444
 
 --------------------------------------------------------------
 
                    Orbital Energies (a.u.)
 --------------------------------------------------------------
 
 Alpha MOs
 -- Occupied --
-88.922 -88.921 -88.921 -10.241 -10.240 -10.240 -10.239 -10.226
-10.226 -10.206 -10.206 -10.206 -10.205 -10.205 -10.205  -7.981
 -7.981  -7.980  -5.945  -5.945  -5.945  -5.941  -5.941  -5.941
 -5.938  -5.938  -5.938  -0.907  -0.892  -0.876  -0.786  -0.755
 -0.745  -0.744  -0.733  -0.698  -0.616  -0.596  -0.570  -0.561
 -0.537  -0.535  -0.528  -0.501  -0.462  -0.422  -0.421  -0.417
 -0.415  -0.407  -0.403  -0.399  -0.386  -0.377  -0.370  -0.360
 -0.351  -0.345  -0.288  -0.266  -0.263  -0.261  -0.249  -0.206
 -- Virtual --
 -0.067  -0.031  -0.008  -0.006  -0.004   0.004   0.007   0.009
  0.010   0.018   0.024   0.026   0.030   0.036   0.040   0.042
  0.046   0.051   0.052   0.054   0.056   0.061   0.074   0.076
  0.080   0.088   0.091   0.093   0.100   0.105   0.106   0.109
  0.115   0.120   0.123   0.126   0.128   0.128   0.130   0.133
  0.135   0.139   0.140   0.147   0.148   0.151   0.154   0.159
  0.160   0.169   0.172   0.174   0.178   0.180   0.185   0.193
  0.196   0.200   0.205   0.208   0.211   0.215   0.217   0.221
  0.228   0.232   0.239   0.242   0.251   0.252   0.260   0.266
  0.267   0.270   0.272   0.275   0.284   0.299   0.303   0.312
  0.318   0.322   0.328   0.338   0.352   0.356   0.360   0.368
  0.376   0.379   0.394   0.398   0.451   0.456   0.462   0.495
  0.512   0.519   0.527   0.535   0.563   0.567   0.576   0.578
  0.592   0.616   0.620   0.625   0.633   0.655   0.658   0.662
  0.666   0.678   0.682   0.687   0.711   0.712   0.722   0.723
  0.729   0.736   0.746   0.756   0.769   0.779   0.780   0.786
  0.813   0.817   0.824   0.831   0.836   0.845   0.870   0.888
  0.931   0.933   0.937   0.943   0.956   0.958   0.964   0.968
  0.976   0.977   0.980   0.995   0.999   1.004   1.025   1.027
  1.045   1.048   1.064   1.075   1.083   1.097   1.107   1.109
  1.113   1.152   1.158   1.174   1.181   1.195   1.219   1.244
  1.259   1.267   1.293   1.309   1.331   1.344   1.349   1.353
  1.361   1.364   1.383   1.445   1.461   1.472   1.493   1.510
  1.531   1.542   1.561   1.601   1.683   1.691   1.725   1.747
  1.793   1.833   1.862   1.866   1.881   1.895   1.901   1.921
  1.927   1.951   1.957   1.988   2.006   2.027   2.051   2.072
  2.092   2.097   2.121   2.151   2.174   2.179   2.186   2.200
  2.233   2.239   2.252   2.280   2.292   2.330   2.364   2.366
  2.421   2.436   2.442   2.454   2.456   2.469   2.480   2.500
  2.518   2.526   2.534   2.567   2.583   2.595   2.598   2.619
  2.660   2.680   2.698   2.713   2.729   2.809   2.854   2.873
  2.898   2.915   2.936   2.942   3.132   3.174   3.211   3.269
  3.270   3.324   3.414   3.415   3.669   3.729   3.738   3.974
  3.975   3.983   4.251   4.277   4.303   4.320   4.331   4.350
  4.396   4.480   4.547   4.646   4.692   4.724
 --------------------------------------------------------------
 
          Ground-State Mulliken Net Atomic Charges

     Atom                 Charge (a.u.)
  ----------------------------------------
      1 H                     0.195814
      2 H                     0.119318
      3 C                     0.021759
      4 C                    -0.378721
      5 S                    -0.109079
      6 C                     0.467729
      7 H                     0.124589
      8 C                    -0.313484
      9 H                     0.125080
     10 C                    -0.194323
     11 C                    -0.057456
     12 S                    -0.107804
     13 C                     0.126857
     14 H                     0.134262
     15 C                    -0.227747
     16 C                    -0.338788
     17 H                     0.142227
     18 C                     0.365863
     19 S                     0.018675
     20 C                    -0.457130
     21 C                     0.032195
     22 H                     0.116923
     23 H                     0.193240
  ----------------------------------------
  Sum of atomic charges =     0.000000

 -----------------------------------------------------------------
                    Cartesian Multipole Moments
 -----------------------------------------------------------------
    Charge (ESU x 10^10)
                 0.0000
    Dipole Moment (Debye)
         X      -0.0365      Y       0.4677      Z      -0.6164
       Tot       0.7746
    Quadrupole Moments (Debye-Ang)
        XX     -90.4231     XY       0.0543     YY    -102.3509
        XZ       0.2295     YZ      -1.5863     ZZ    -114.7225
    Octopole Moments (Debye-Ang^2)
       XXX      -8.9058    XXY      19.5075    XYY       1.7190
       YYY       6.9522    XXZ       7.3102    XYZ       7.6490
       YYZ     -10.3784    XZZ     -11.7713    YZZ       1.3139
       ZZZ      -2.0657
    Hexadecapole Moments (Debye-Ang^3)
      XXXX   -6343.5875   XXXY      10.5476   XXYY   -1306.0775
      XYYY      51.8406   YYYY    -792.7951   XXXZ      41.3346
      XXYZ     -42.5638   XYYZ      40.2399   YYYZ      30.0912
      XXZZ   -1368.6454   XYZZ       5.5881   YYZZ    -184.3247
      XZZZ      83.0803   YZZZ      30.7193   ZZZZ    -258.3896
 -----------------------------------------------------------------
 Calculating analytic gradient of the SCF energy
 Gradient of SCF Energy
            1           2           3           4           5           6
    1   0.0000075   0.0000007  -0.0000037   0.0000801  -0.0000172  -0.0000917
    2   0.0000098  -0.0000008  -0.0000017  -0.0000169   0.0000647  -0.0001062
    3   0.0000066   0.0000091  -0.0000090  -0.0000177  -0.0000266   0.0000235
            7           8           9          10          11          12
    1  -0.0000018   0.0003268   0.0000156  -0.0005131   0.0004675  -0.0000138
    2  -0.0000004   0.0000593   0.0000320   0.0002161  -0.0000198  -0.0002218
    3   0.0000037  -0.0001208  -0.0000606   0.0002669   0.0000986  -0.0000145
           13          14          15          16          17          18
    1  -0.0003788  -0.0001840   0.0012200  -0.0009088   0.0001965  -0.0000253
    2   0.0008486   0.0001560  -0.0023297   0.0028548  -0.0001792  -0.0014427
    3  -0.0020050  -0.0000249   0.0019618   0.0013391  -0.0000127  -0.0016459
           19          20          21          22          23
    1   0.0000064  -0.0003272   0.0002591  -0.0000196  -0.0000954
    2   0.0002171   0.0001185  -0.0002321  -0.0000415   0.0000159
    3  -0.0000607   0.0001446   0.0003206  -0.0000426  -0.0001332
 Max gradient component =       2.855E-03
 RMS gradient           =       6.874E-04
 Gradient time:  CPU 4.65 s  wall 4.58 s
 Geometry Optimization Parameters
   NAtoms,    NIC,     NZ,  NCons,   NDum,   NFix, NCnnct, MaxDiis
       23     166       0       1       0       0       0       0

 Cartesian Hessian Update
 Hessian Updated using BFGS Update


** CONSTRAINED OPTIMIZATION IN DELOCALIZED INTERNAL COORDINATES **
   Searching for a Minimum

   Optimization Cycle:   4

                       Coordinates (Angstroms)
     ATOM                X               Y               Z
      1  H         6.2376402566   -0.2229853231    0.1211978833
      2  H         5.2993882116    2.2287989626   -0.1558253260
      3  C         5.2012295535    0.0756560991    0.0441594373
      4  C         4.6858512796    1.3369705101   -0.0988434766
      5  S         3.9493235993   -1.1238618611    0.1033731774
      6  C         3.2632368922    1.3475732958   -0.1759273472
      7  H         2.6761552045    2.2492823601   -0.3105047007
      8  C         2.6971765488    0.0913629594   -0.0895551502
      9  H         1.3287494050   -2.3868450865   -0.6672398226
     10  C         1.2959123429   -0.2836012366   -0.1359605481
     11  C         0.7356970344   -1.5141302637   -0.4171327805
     12  S         0.0384403371    0.8933420662    0.1915933580
     13  C        -0.6848711594   -1.5119810535   -0.3969668188
     14  H        -1.2948162193   -2.3774333407   -0.6300705152
     15  C        -1.2295706961   -0.2837483769   -0.0926581242
     16  C        -2.6315809638    0.1129302387   -0.0398625883
     17  H        -2.7013127458    1.9240861589   -1.2191994930
     18  C        -3.2462790158    1.1979586310   -0.6266343653
     19  S        -3.8102775874   -0.8730563262    0.8051846224
     20  C        -4.6538212577    1.2412561846   -0.4011540692
     21  C        -5.1046933066    0.1845721199    0.3469092333
     22  H        -5.3041684027    2.0157403181   -0.7916252030
     23  H        -6.1188552808   -0.0348258564    0.6521962871
   Point Group: c1    Number of degrees of freedom:    63


   Energy is  -1656.663167344

              Constraints and their Current Values
                                        Value     Constraint
   Dihedral:       13  15  16  18     -130.000     -130.000
 Hessian Updated using BFGS Update

 62 Hessian modes will be used to form the next step
  Hessian Eigenvalues:
     0.009429    0.045000    0.045000    0.045000    0.045000    0.045000
     0.045000    0.045001    0.045001    0.045002    0.045002    0.045004
     0.045008    0.045009    0.045013    0.045017    0.045019    0.045040
     0.045438    0.159911    0.159949    0.159957    0.159992    0.159999
     0.160033    0.160612    0.162559    0.221286    0.222602    0.227289
     0.237914    0.240393    0.249802    0.249973    0.250015    0.250742
     0.257670    0.293638    0.294135    0.295339    0.296230    0.312569
     0.313396    0.354739    0.354745    0.354757    0.354818    0.355164
     0.355309    0.358373    0.358512    0.383901    0.404533    0.406225
     0.409389    0.426082    0.459600    0.462122    0.479826    0.493921
     0.497291    0.500055

 Minimum Search - Taking Simple RFO Step
 Searching for Lamda that Minimizes Along All modes
 Value Taken    Lamda =  -0.00001897
 Step Taken.  Stepsize is  0.033503

                             Maximum     Tolerance    Cnvgd?
         Gradient           0.000653      0.000300      NO
         Displacement       0.016876      0.001200      NO
         Energy change     -0.000027      0.000001      NO


 New Cartesian Coordinates Obtained by Inverse Iteration

 Displacement from previous Coordinates is:  0.107427
 ----------------------------------------------------------------
             Standard Nuclear Orientation (Angstroms)
    I     Atom           X                Y                Z
 ----------------------------------------------------------------
    1      H       6.2375479858    -0.2229311611     0.1127000008
    2      H       5.2988137068     2.2287000905    -0.1646842946
    3      C       5.2009889741     0.0757449698     0.0379311060
    4      C       4.6853584433     1.3369753439    -0.1051933050
    5      S       3.9492420102    -1.1237761953     0.1013711508
    6      C       3.2626689045     1.3476222966    -0.1790765918
    7      H       2.6753618789     2.2492481867    -0.3132430358
    8      C       2.6967739032     0.0914054926    -0.0901713096
    9      H       1.3261309995    -2.3869655097    -0.6632556566
   10      C       1.2957414130    -0.2833954460    -0.1332420229
   11      C       0.7341690646    -1.5138649758    -0.4118955861
   12      S       0.0392692164     0.8939580603     0.1986377406
   13      C      -0.6858237445    -1.5118508479    -0.3866663520
   14      H      -1.2951737691    -2.3782268935    -0.6179405519
   15      C      -1.2300790623    -0.2834448812    -0.0793063700
   16      C      -2.6301677472     0.1145028440    -0.0305552949
   17      H      -2.6934792751     1.9361572908    -1.1967156936
   18      C      -3.2415614411     1.2032369468    -0.6154937925
   19      S      -3.8159497494    -0.8810489943     0.7932746435
   20      C      -4.6509464430     1.2420244565    -0.4037579129
   21      C      -5.1077355340     0.1783806181     0.3305785541
   22      H      -5.2984939213     2.0193280188    -0.7932989329
   23      H      -6.1241017833    -0.0447185306     0.6254571773
 ----------------------------------------------------------------
 Nuclear Repulsion Energy =  1172.4865361443 hartrees
 There are       64 alpha and       64 beta electrons
 Applying Cartesian multipole field
    Component          Value
    ---------          -----
     (2,0,0)        1.00000E-12
     (0,2,0)        2.00000E-11
     (0,0,2)       -3.00000E-11
 Nucleus-field energy     =     0.0000000132 hartrees
 Requested basis set is 6-31++G(d,p)
 There are 110 shells and 345 basis functions
 A cutoff of  1.0D-12 yielded   4689 shell pairs
 There are     47738 function pairs

 Q-Chem warning in module /project/projectdirs/jcesr/qchem/qc44/cnl_qc441/compile/cori/qc_src/libqints/qchem/aobasis.C, line 68:

 Using reconstructed effective core potential

 Smallest overlap matrix eigenvalue = 8.16E-08
 Linear dependence detected in AO basis
 Number of orthogonalized atomic orbitals = 342
 Maximum deviation from orthogonality = 3.858E-11
 Guess MOs from SCF MO coefficient file
 Reading MOs from coefficient file
 Reading MOs from coefficient file
 A restricted hybrid HF-DFT SCF calculation will be
 performed using Pulay DIIS extrapolation
 Exchange:     0.2000 Hartree-Fock + 0.0800 Slater + 0.7200 B88
 Correlation:  0.1900 VWN1RPA + 0.8100 LYP
 Using SG-1 standard quadrature grid
 SCF converges when DIIS error is below 1.0E-08
 Geometry optimization detected.  Setting ReadMinima to 0
 Setting SaveMinima to 0
 ---------------------------------------
  Cycle       Energy         DIIS Error
 ---------------------------------------
    1   -1656.6623060096      2.66E-04
    2   -1656.6631605805      2.99E-05
    3   -1656.6631068683      6.56E-05
    4   -1656.6631778158      7.25E-06
    5   -1656.6631784149      3.77E-06
    6   -1656.6631786036      1.47E-06
    7   -1656.6631786336      5.64E-07
    8   -1656.6631786409      1.47E-07
    9   -1656.6631786406      5.35E-08
   10   -1656.6631786392      1.37E-08
   11   -1656.6631786396      5.17E-09 Convergence criterion met
 ---------------------------------------
 SCF time:  CPU 12.14 s  wall 11.11 s
 SCF   energy in the final basis set = -1656.6631786396
 Total energy in the final basis set = -1656.6631786396
 
 --------------------------------------------------------------
 
                    Orbital Energies (a.u.)
 --------------------------------------------------------------
 
 Alpha MOs
 -- Occupied --
-88.922 -88.921 -88.921 -10.241 -10.240 -10.240 -10.239 -10.226
-10.226 -10.206 -10.206 -10.206 -10.205 -10.205 -10.205  -7.981
 -7.981  -7.981  -5.945  -5.945  -5.945  -5.941  -5.941  -5.941
 -5.938  -5.938  -5.938  -0.907  -0.892  -0.876  -0.787  -0.755
 -0.745  -0.744  -0.733  -0.697  -0.617  -0.596  -0.570  -0.561
 -0.537  -0.535  -0.528  -0.501  -0.462  -0.422  -0.421  -0.417
 -0.415  -0.407  -0.403  -0.399  -0.386  -0.377  -0.370  -0.360
 -0.351  -0.345  -0.288  -0.266  -0.263  -0.261  -0.249  -0.205
 -- Virtual --
 -0.067  -0.031  -0.008  -0.006  -0.004   0.004   0.006   0.009
  0.010   0.018   0.024   0.026   0.030   0.036   0.040   0.042
  0.046   0.051   0.052   0.054   0.056   0.061   0.074   0.076
  0.080   0.088   0.091   0.093   0.100   0.105   0.106   0.109
  0.115   0.120   0.123   0.126   0.128   0.128   0.130   0.133
  0.135   0.139   0.140   0.146   0.148   0.151   0.155   0.159
  0.160   0.169   0.172   0.174   0.178   0.180   0.185   0.193
  0.196   0.200   0.205   0.208   0.211   0.215   0.217   0.221
  0.228   0.232   0.239   0.242   0.251   0.252   0.261   0.266
  0.267   0.271   0.272   0.275   0.284   0.299   0.303   0.312
  0.318   0.322   0.328   0.339   0.352   0.356   0.360   0.368
  0.376   0.379   0.394   0.398   0.451   0.456   0.463   0.495
  0.513   0.518   0.527   0.535   0.563   0.567   0.576   0.578
  0.592   0.616   0.620   0.625   0.633   0.654   0.658   0.662
  0.666   0.677   0.682   0.686   0.711   0.712   0.722   0.723
  0.728   0.736   0.745   0.756   0.769   0.780   0.781   0.786
  0.814   0.818   0.824   0.831   0.837   0.845   0.870   0.888
  0.931   0.933   0.937   0.943   0.956   0.958   0.964   0.968
  0.976   0.977   0.980   0.995   0.999   1.004   1.025   1.028
  1.045   1.048   1.064   1.075   1.084   1.097   1.107   1.109
  1.113   1.152   1.158   1.175   1.180   1.196   1.219   1.245
  1.259   1.267   1.293   1.309   1.331   1.344   1.349   1.353
  1.361   1.364   1.383   1.444   1.460   1.471   1.494   1.510
  1.532   1.540   1.563   1.601   1.683   1.691   1.725   1.745
  1.793   1.834   1.862   1.866   1.882   1.896   1.902   1.921
  1.927   1.951   1.957   1.987   2.006   2.028   2.051   2.072
  2.092   2.097   2.121   2.151   2.174   2.178   2.187   2.201
  2.233   2.238   2.252   2.280   2.293   2.331   2.364   2.366
  2.421   2.436   2.442   2.454   2.457   2.468   2.480   2.500
  2.518   2.526   2.534   2.567   2.583   2.595   2.598   2.619
  2.660   2.680   2.698   2.713   2.730   2.809   2.854   2.873
  2.898   2.916   2.936   2.943   3.132   3.174   3.211   3.269
  3.270   3.324   3.414   3.415   3.669   3.729   3.738   3.973
  3.975   3.983   4.252   4.277   4.304   4.320   4.331   4.350
  4.396   4.480   4.547   4.647   4.692   4.724
 --------------------------------------------------------------
 
          Ground-State Mulliken Net Atomic Charges

     Atom                 Charge (a.u.)
  ----------------------------------------
      1 H                     0.195772
      2 H                     0.119342
      3 C                     0.021399
      4 C                    -0.377446
      5 S                    -0.107987
      6 C                     0.462559
      7 H                     0.124518
      8 C                    -0.309325
      9 H                     0.124968
     10 C                    -0.198420
     11 C                    -0.058498
     12 S                    -0.108751
     13 C                     0.125868
     14 H                     0.133982
     15 C                    -0.220019
     16 C                    -0.335050
     17 H                     0.141901
     18 C                     0.368012
     19 S                     0.016825
     20 C                    -0.462166
     21 C                     0.032734
     22 H                     0.116741
     23 H                     0.193043
  ----------------------------------------
  Sum of atomic charges =     0.000000

 -----------------------------------------------------------------
                    Cartesian Multipole Moments
 -----------------------------------------------------------------
    Charge (ESU x 10^10)
                 0.0000
    Dipole Moment (Debye)
         X      -0.0348      Y       0.4683      Z      -0.6246
       Tot       0.7815
    Quadrupole Moments (Debye-Ang)
        XX     -90.4215     XY       0.0773     YY    -102.3036
        XZ       0.2517     YZ      -1.5885     ZZ    -114.7892
    Octopole Moments (Debye-Ang^2)
       XXX      -8.9051    XXY      19.3168    XYY       1.6266
       YYY       7.2885    XXZ       6.6614    XYZ       7.5659
       YYZ     -10.3573    XZZ     -11.4194    YZZ       1.3855
       ZZZ      -2.0220
    Hexadecapole Moments (Debye-Ang^3)
      XXXX   -6343.1406   XXXY      10.7223   XXYY   -1306.1328
      XYYY      49.6911   YYYY    -794.1422   XXXZ      42.7792
      XXYZ     -42.5127   XYYZ      39.8776   YYYZ      30.0840
      XXZZ   -1370.0346   XYZZ       5.0024   YYZZ    -184.2990
      XZZZ      82.9752   YZZZ      31.1984   ZZZZ    -255.5399
 -----------------------------------------------------------------
 Calculating analytic gradient of the SCF energy
 Gradient of SCF Energy
            1           2           3           4           5           6
    1  -0.0000021  -0.0000053  -0.0000246   0.0000326  -0.0000241  -0.0000606
    2   0.0000019   0.0000043   0.0000121   0.0000006  -0.0000087  -0.0000333
    3   0.0000013   0.0000028  -0.0000102  -0.0000148  -0.0000069   0.0000160
            7           8           9          10          11          12
    1   0.0000048   0.0001899  -0.0000016  -0.0002635   0.0002137  -0.0000356
    2   0.0000096  -0.0000086   0.0000223   0.0001129  -0.0000119  -0.0000740
    3   0.0000081  -0.0000970  -0.0000410   0.0001751   0.0000405  -0.0000780
           13          14          15          16          17          18
    1  -0.0000970  -0.0000588   0.0001490   0.0001696   0.0000690  -0.0002941
    2   0.0006459   0.0000490  -0.0019437   0.0025507  -0.0000622  -0.0012655
    3  -0.0022755  -0.0000032   0.0024581   0.0017172  -0.0000037  -0.0019433
           19          20          21          22          23
    1   0.0000637  -0.0001163   0.0001443  -0.0000087  -0.0000442
    2   0.0000536   0.0000375  -0.0000828  -0.0000217   0.0000120
    3  -0.0000658   0.0000557   0.0001791  -0.0000128  -0.0001018
 Max gradient component =       2.551E-03
 RMS gradient           =       6.675E-04
 Gradient time:  CPU 4.56 s  wall 4.57 s
 Geometry Optimization Parameters
   NAtoms,    NIC,     NZ,  NCons,   NDum,   NFix, NCnnct, MaxDiis
       23     166       0       1       0       0       0       0

 Cartesian Hessian Update
 Hessian Updated using BFGS Update


** CONSTRAINED OPTIMIZATION IN DELOCALIZED INTERNAL COORDINATES **
   Searching for a Minimum

   Optimization Cycle:   5

                       Coordinates (Angstroms)
     ATOM                X               Y               Z
      1  H         6.2375479858   -0.2229311611    0.1127000008
      2  H         5.2988137068    2.2287000905   -0.1646842946
      3  C         5.2009889741    0.0757449698    0.0379311060
      4  C         4.6853584433    1.3369753439   -0.1051933050
      5  S         3.9492420102   -1.1237761953    0.1013711508
      6  C         3.2626689045    1.3476222966   -0.1790765918
      7  H         2.6753618789    2.2492481867   -0.3132430358
      8  C         2.6967739032    0.0914054926   -0.0901713096
      9  H         1.3261309995   -2.3869655097   -0.6632556566
     10  C         1.2957414130   -0.2833954460   -0.1332420229
     11  C         0.7341690646   -1.5138649758   -0.4118955861
     12  S         0.0392692164    0.8939580603    0.1986377406
     13  C        -0.6858237445   -1.5118508479   -0.3866663520
     14  H        -1.2951737691   -2.3782268935   -0.6179405519
     15  C        -1.2300790623   -0.2834448812   -0.0793063700
     16  C        -2.6301677472    0.1145028440   -0.0305552949
     17  H        -2.6934792751    1.9361572908   -1.1967156936
     18  C        -3.2415614411    1.2032369468   -0.6154937925
     19  S        -3.8159497494   -0.8810489943    0.7932746435
     20  C        -4.6509464430    1.2420244565   -0.4037579129
     21  C        -5.1077355340    0.1783806181    0.3305785541
     22  H        -5.2984939213    2.0193280188   -0.7932989329
     23  H        -6.1241017833   -0.0447185306    0.6254571773
   Point Group: c1    Number of degrees of freedom:    63


   Energy is  -1656.663178640

              Constraints and their Current Values
                                        Value     Constraint
   Dihedral:       13  15  16  18     -130.000     -130.000
 Hessian Updated using BFGS Update

 62 Hessian modes will be used to form the next step
  Hessian Eigenvalues:
     0.010016    0.043122    0.045000    0.045000    0.045000    0.045000
     0.045000    0.045000    0.045001    0.045001    0.045002    0.045004
     0.045005    0.045009    0.045013    0.045015    0.045018    0.045020
     0.045096    0.153254    0.159914    0.159952    0.159962    0.159994
     0.159999    0.160154    0.161026    0.221301    0.222698    0.227039
     0.237060    0.240267    0.244443    0.249962    0.250011    0.250038
     0.254013    0.290751    0.293642    0.294537    0.295487    0.312573
     0.313355    0.354734    0.354742    0.354758    0.354807    0.355164
     0.355278    0.358374    0.358501    0.383853    0.394245    0.405823
     0.408619    0.418642    0.459475    0.461884    0.471427    0.483939
     0.497302    0.497462

 Minimum Search - Taking Simple RFO Step
 Searching for Lamda that Minimizes Along All modes
 Value Taken    Lamda =  -0.00000221
 Step Taken.  Stepsize is  0.005859

                             Maximum     Tolerance    Cnvgd?
         Gradient           0.000238      0.000300     YES
         Displacement       0.001956      0.001200      NO
         Energy change     -0.000011      0.000001      NO


 New Cartesian Coordinates Obtained by Inverse Iteration

 Displacement from previous Coordinates is:  0.009071
 ----------------------------------------------------------------
             Standard Nuclear Orientation (Angstroms)
    I     Atom           X                Y                Z
 ----------------------------------------------------------------
    1      H       6.2377401542    -0.2230111689     0.1139838806
    2      H       5.2991964670     2.2284987708    -0.1649444155
    3      C       5.2012206772     0.0756834131     0.0386890968
    4      C       4.6856452786     1.3368529265    -0.1052437512
    5      S       3.9493489946    -1.1237061348     0.1020044321
[...]
    5   -1656.6631799351      4.43E-07
    6   -1656.6631799355      1.92E-07
    7   -1656.6631799401      7.86E-08
    8   -1656.6631799410      2.78E-08
    9   -1656.6631799402      8.48E-09 Convergence criterion met
 ---------------------------------------
 SCF time:  CPU 9.88 s  wall 9.03 s
 SCF   energy in the final basis set = -1656.6631799402
 Total energy in the final basis set = -1656.6631799402
 
 --------------------------------------------------------------
 
                    Orbital Energies (a.u.)
 --------------------------------------------------------------
 
 Alpha MOs
 -- Occupied --
-88.922 -88.921 -88.921 -10.241 -10.240 -10.240 -10.239 -10.226
-10.226 -10.206 -10.206 -10.206 -10.205 -10.205 -10.205  -7.981
 -7.981  -7.981  -5.945  -5.945  -5.945  -5.941  -5.941  -5.941
 -5.938  -5.938  -5.938  -0.907  -0.892  -0.876  -0.787  -0.755
 -0.745  -0.744  -0.733  -0.697  -0.617  -0.596  -0.570  -0.561
 -0.537  -0.535  -0.528  -0.501  -0.462  -0.422  -0.421  -0.417
 -0.415  -0.407  -0.403  -0.399  -0.386  -0.377  -0.370  -0.360
 -0.351  -0.344  -0.288  -0.266  -0.263  -0.261  -0.249  -0.205
 -- Virtual --
 -0.067  -0.031  -0.008  -0.006  -0.004   0.004   0.006   0.009
  0.010   0.018   0.024   0.026   0.030   0.036   0.040   0.042
  0.046   0.051   0.052   0.054   0.056   0.061   0.074   0.076
  0.080   0.088   0.091   0.093   0.100   0.105   0.106   0.109
  0.115   0.120   0.123   0.126   0.128   0.128   0.130   0.133
  0.135   0.139   0.140   0.146   0.148   0.151   0.155   0.159
  0.160   0.169   0.172   0.174   0.178   0.180   0.185   0.193
  0.196   0.200   0.205   0.208   0.211   0.215   0.217   0.221
  0.228   0.232   0.239   0.242   0.251   0.252   0.261   0.266
  0.267   0.271   0.272   0.275   0.284   0.299   0.303   0.313
  0.318   0.322   0.328   0.339   0.352   0.356   0.361   0.368
  0.376   0.379   0.394   0.398   0.450   0.456   0.463   0.495
  0.513   0.518   0.527   0.535   0.563   0.567   0.576   0.578
  0.592   0.616   0.620   0.625   0.633   0.654   0.658   0.662
  0.666   0.677   0.683   0.686   0.711   0.712   0.722   0.723
  0.728   0.736   0.745   0.756   0.769   0.780   0.781   0.786
  0.814   0.818   0.824   0.831   0.837   0.845   0.870   0.888
  0.931   0.933   0.937   0.943   0.956   0.958   0.964   0.968
  0.976   0.977   0.980   0.995   0.999   1.004   1.025   1.028
  1.045   1.048   1.064   1.075   1.084   1.097   1.107   1.109
  1.113   1.152   1.158   1.175   1.180   1.196   1.219   1.245
  1.259   1.267   1.293   1.309   1.331   1.344   1.349   1.353
  1.361   1.364   1.383   1.444   1.460   1.470   1.494   1.510
  1.532   1.540   1.563   1.601   1.683   1.691   1.725   1.745
  1.794   1.834   1.861   1.866   1.882   1.896   1.902   1.921
  1.927   1.951   1.957   1.987   2.006   2.028   2.051   2.072
  2.092   2.097   2.121   2.151   2.174   2.178   2.187   2.201
  2.233   2.238   2.252   2.280   2.293   2.331   2.364   2.366
  2.421   2.436   2.442   2.454   2.457   2.469   2.480   2.500
  2.518   2.526   2.534   2.567   2.583   2.595   2.598   2.619
  2.660   2.680   2.698   2.713   2.730   2.809   2.854   2.873
  2.898   2.916   2.936   2.943   3.133   3.174   3.211   3.269
  3.270   3.324   3.414   3.415   3.669   3.729   3.738   3.973
  3.975   3.983   4.252   4.277   4.304   4.320   4.331   4.350
  4.396   4.480   4.547   4.647   4.692   4.724
 --------------------------------------------------------------
 
          Ground-State Mulliken Net Atomic Charges

     Atom                 Charge (a.u.)
  ----------------------------------------
      1 H                     0.195797
      2 H                     0.119350
      3 C                     0.021487
      4 C                    -0.377352
      5 S                    -0.107728
      6 C                     0.461133
      7 H                     0.124543
      8 C                    -0.308653
      9 H                     0.124941
     10 C                    -0.198988
     11 C                    -0.058188
     12 S                    -0.108685
     13 C                     0.125353
     14 H                     0.133930
     15 C                    -0.218922
     16 C                    -0.334790
     17 H                     0.141827
     18 C                     0.368365
     19 S                     0.016469
     20 C                    -0.462641
     21 C                     0.032939
     22 H                     0.116727
     23 H                     0.193085
  ----------------------------------------
  Sum of atomic charges =     0.000000

 -----------------------------------------------------------------
                    Cartesian Multipole Moments
 -----------------------------------------------------------------
    Charge (ESU x 10^10)
                 0.0000
    Dipole Moment (Debye)
         X      -0.0339      Y       0.4690      Z      -0.6226
       Tot       0.7803
    Quadrupole Moments (Debye-Ang)
        XX     -90.4127     XY       0.0709     YY    -102.2993
        XZ       0.2469     YZ      -1.5913     ZZ    -114.7946
    Octopole Moments (Debye-Ang^2)
       XXX      -8.8928    XXY      19.3523    XYY       1.6033
       YYY       7.3017    XXZ       6.7344    XYZ       7.5456
       YYZ     -10.3409    XZZ     -11.4035    YZZ       1.3877
       ZZZ      -1.9679
    Hexadecapole Moments (Debye-Ang^3)
      XXXX   -6343.5062   XXXY      10.5655   XXYY   -1306.2150
      XYYY      49.4587   YYYY    -794.1430   XXXZ      42.5485
      XXYZ     -42.5219   XYYZ      39.7790   YYYZ      30.0981
      XXZZ   -1370.1886   XYZZ       4.9576   YYZZ    -184.2984
      XZZZ      82.7404   YZZZ      31.2650   ZZZZ    -255.4139
 -----------------------------------------------------------------
 Calculating analytic gradient of the SCF energy
 Gradient of SCF Energy
            1           2           3           4           5           6
    1   0.0000024  -0.0000001   0.0000128   0.0000209  -0.0000103  -0.0000291
    2   0.0000003  -0.0000004   0.0000131  -0.0000092   0.0000148  -0.0000052
    3  -0.0000027  -0.0000013  -0.0000044  -0.0000039  -0.0000102   0.0000118
            7           8           9          10          11          12
    1   0.0000025   0.0000297   0.0000003  -0.0000423   0.0000400  -0.0000137
    2   0.0000009  -0.0000222   0.0000093   0.0000291  -0.0000063  -0.0000380
    3   0.0000051  -0.0000531  -0.0000177   0.0000797   0.0000125  -0.0000460
           13          14          15          16          17          18
    1   0.0000724   0.0000008  -0.0003882   0.0007213   0.0000016  -0.0004199
    2   0.0006031   0.0000046  -0.0017225   0.0023671  -0.0000112  -0.0012545
    3  -0.0023179   0.0000032   0.0025387   0.0017590   0.0000030  -0.0019648
           19          20          21          22          23
    1   0.0000317  -0.0000181   0.0000080  -0.0000078  -0.0000146
    2   0.0000382  -0.0000074   0.0000068  -0.0000081  -0.0000024
    3  -0.0000412   0.0000113   0.0000751   0.0000075  -0.0000436
 Max gradient component =       2.539E-03
 RMS gradient           =       6.612E-04
 Gradient time:  CPU 4.57 s  wall 4.58 s
 Geometry Optimization Parameters
   NAtoms,    NIC,     NZ,  NCons,   NDum,   NFix, NCnnct, MaxDiis
       23     166       0       1       0       0       0       0

 Cartesian Hessian Update
 Hessian Updated using BFGS Update


** CONSTRAINED OPTIMIZATION IN DELOCALIZED INTERNAL COORDINATES **
   Searching for a Minimum

   Optimization Cycle:   6

                       Coordinates (Angstroms)
     ATOM                X               Y               Z
      1  H         6.2377401542   -0.2230111689    0.1139838806
      2  H         5.2991964670    2.2284987708   -0.1649444155
      3  C         5.2012206772    0.0756834131    0.0386890968
      4  C         4.6856452786    1.3368529265   -0.1052437512
      5  S         3.9493489946   -1.1237061348    0.1020044321
      6  C         3.2630120957    1.3475479567   -0.1799079005
      7  H         2.6758062760    2.2491050804   -0.3149232264
      8  C         2.6968893329    0.0913910192   -0.0906691932
      9  H         1.3254860301   -2.3872608447   -0.6631764904
     10  C         1.2960505708   -0.2833858417   -0.1343664134
     11  C         0.7338834196   -1.5137249622   -0.4124066897
     12  S         0.0396584722    0.8942238097    0.1982131726
     13  C        -0.6858671038   -1.5115208325   -0.3864102130
     14  H        -1.2947221948   -2.3784328822   -0.6170242679
     15  C        -1.2303524870   -0.2830032545   -0.0788483154
     16  C        -2.6298391478    0.1147361098   -0.0301197491
     17  H        -2.6943906126    1.9377443069   -1.1950813678
     18  C        -3.2417853132    1.2035588318   -0.6148009019
     19  S        -3.8162120988   -0.8815951096    0.7924442645
     20  C        -4.6511594988    1.2417528082   -0.4039025945
     21  C        -5.1082451010    0.1776576804    0.3295066897
     22  H        -5.2984970175    2.0195865188   -0.7927573200
     23  H        -6.1243131635   -0.0456370214    0.6251949437
   Point Group: c1    Number of degrees of freedom:    63


   Energy is  -1656.663179940

              Constraints and their Current Values
                                        Value     Constraint
   Dihedral:       13  15  16  18     -130.000     -130.000
 Hessian Updated using BFGS Update

 62 Hessian modes will be used to form the next step
  Hessian Eigenvalues:
     0.010361    0.033720    0.045000    0.045000    0.045000    0.045000
     0.045000    0.045001    0.045001    0.045001    0.045002    0.045004
     0.045008    0.045009    0.045014    0.045017    0.045019    0.045033
     0.045262    0.149690    0.159914    0.159956    0.159961    0.159994
     0.160004    0.160164    0.162061    0.221349    0.222271    0.227077
     0.235630    0.240975    0.241703    0.249963    0.250012    0.250035
     0.264652    0.285623    0.293642    0.294541    0.295493    0.312540
     0.313355    0.354705    0.354750    0.354780    0.354821    0.355164
     0.355268    0.358382    0.358522    0.383334    0.396965    0.406514
     0.408635    0.416184    0.459451    0.462214    0.480056    0.488779
     0.497248    0.497775

 Minimum Search - Taking Simple RFO Step
 Searching for Lamda that Minimizes Along All modes
 Value Taken    Lamda =   0.00000000
 Step Taken.  Stepsize is  0.002470

                             Maximum     Tolerance    Cnvgd?
         Gradient           0.000044      0.000300     YES
         Displacement       0.001180      0.001200     YES
         Energy change     -0.000001      0.000001      NO

 Final energy is   -1656.66317994024     


 ******************************
 **  OPTIMIZATION CONVERGED  **
 ******************************

                       Coordinates (Angstroms)
     ATOM                X               Y               Z
      1  H         6.2377401542   -0.2230111689    0.1139838806
      2  H         5.2991964670    2.2284987708   -0.1649444155
      3  C         5.2012206772    0.0756834131    0.0386890968
      4  C         4.6856452786    1.3368529265   -0.1052437512
      5  S         3.9493489946   -1.1237061348    0.1020044321
      6  C         3.2630120957    1.3475479567   -0.1799079005
      7  H         2.6758062760    2.2491050804   -0.3149232264
      8  C         2.6968893329    0.0913910192   -0.0906691932
      9  H         1.3254860301   -2.3872608447   -0.6631764904
     10  C         1.2960505708   -0.2833858417   -0.1343664134
     11  C         0.7338834196   -1.5137249622   -0.4124066897
     12  S         0.0396584722    0.8942238097    0.1982131726
     13  C        -0.6858671038   -1.5115208325   -0.3864102130
     14  H        -1.2947221948   -2.3784328822   -0.6170242679
     15  C        -1.2303524870   -0.2830032545   -0.0788483154
     16  C        -2.6298391478    0.1147361098   -0.0301197491
     17  H        -2.6943906126    1.9377443069   -1.1950813678
     18  C        -3.2417853132    1.2035588318   -0.6148009019
     19  S        -3.8162120988   -0.8815951096    0.7924442645
     20  C        -4.6511594988    1.2417528082   -0.4039025945
     21  C        -5.1082451010    0.1776576804    0.3295066897
     22  H        -5.2984970175    2.0195865188   -0.7927573200
     23  H        -6.1243131635   -0.0456370214    0.6251949437

Z-matrix Print:
$molecule
0 1
S 
C  1 1.753726
C  2 1.378519 1 110.330909
H  3 1.084170 2 122.564201 1 -178.576990 0
C  3 1.419990 2 113.601924 1 -0.490042 0
H  5 1.084410 3 123.431843 2 -178.251840 0
C  5 1.380968 3 113.699785 2 -0.445409 0
C  7 1.450764 5 128.997803 3 -179.063486 0
C  8 1.380720 7 128.975506 5 160.246804 0
H  9 1.084364 8 122.848632 7 -0.891018 0
C  9 1.424631 8 113.529895 7 -179.669663 0
H  11 1.083993 9 123.790285 8 179.537249 0
C  11 1.370067 9 112.842710 8 0.080414 0
H  13 1.081323 11 128.485151 9 179.586284 0
C  2 1.455725 1 120.497841 3 -177.208904 0
C  15 1.379081 2 128.911459 1 46.626866 0
H  16 1.084156 15 122.516492 2 -1.444207 0
C  16 1.425578 15 113.398457 2 177.192590 0
H  18 1.084103 16 123.813411 15 -179.669009 0
C  18 1.370808 16 112.830435 15 -0.528629 0
H  20 1.081520 18 128.301955 16 -179.356866 0
S  20 1.733689 18 111.631913 16 0.704985 0
S  13 1.734856 11 111.634447 9 -0.588293 0
$end

 
 --------------------------------------------------------------
 
                    Orbital Energies (a.u.)
 --------------------------------------------------------------
 
 Alpha MOs
 -- Occupied --
-88.922 -88.921 -88.921 -10.241 -10.240 -10.240 -10.239 -10.226
-10.226 -10.206 -10.206 -10.206 -10.205 -10.205 -10.205  -7.981
 -7.981  -7.981  -5.945  -5.945  -5.945  -5.941  -5.941  -5.941
 -5.938  -5.938  -5.938  -0.907  -0.892  -0.876  -0.787  -0.755
 -0.745  -0.744  -0.733  -0.697  -0.617  -0.596  -0.570  -0.561
 -0.537  -0.535  -0.528  -0.501  -0.462  -0.422  -0.421  -0.417
 -0.415  -0.407  -0.403  -0.399  -0.386  -0.377  -0.370  -0.360
 -0.351  -0.344  -0.288  -0.266  -0.263  -0.261  -0.249  -0.205
 -- Virtual --
 -0.067  -0.031  -0.008  -0.006  -0.004   0.004   0.006   0.009
  0.010   0.018   0.024   0.026   0.030   0.036   0.040   0.042
  0.046   0.051   0.052   0.054   0.056   0.061   0.074   0.076
  0.080   0.088   0.091   0.093   0.100   0.105   0.106   0.109
  0.115   0.120   0.123   0.126   0.128   0.128   0.130   0.133
  0.135   0.139   0.140   0.146   0.148   0.151   0.155   0.159
  0.160   0.169   0.172   0.174   0.178   0.180   0.185   0.193
  0.196   0.200   0.205   0.208   0.211   0.215   0.217   0.221
  0.228   0.232   0.239   0.242   0.251   0.252   0.261   0.266
  0.267   0.271   0.272   0.275   0.284   0.299   0.303   0.313
  0.318   0.322   0.328   0.339   0.352   0.356   0.361   0.368
  0.376   0.379   0.394   0.398   0.450   0.456   0.463   0.495
  0.513   0.518   0.527   0.535   0.563   0.567   0.576   0.578
  0.592   0.616   0.620   0.625   0.633   0.654   0.658   0.662
  0.666   0.677   0.683   0.686   0.711   0.712   0.722   0.723
  0.728   0.736   0.745   0.756   0.769   0.780   0.781   0.786
  0.814   0.818   0.824   0.831   0.837   0.845   0.870   0.888
  0.931   0.933   0.937   0.943   0.956   0.958   0.964   0.968
  0.976   0.977   0.980   0.995   0.999   1.004   1.025   1.028
  1.045   1.048   1.064   1.075   1.084   1.097   1.107   1.109
  1.113   1.152   1.158   1.175   1.180   1.196   1.219   1.245
  1.259   1.267   1.293   1.309   1.331   1.344   1.349   1.353
  1.361   1.364   1.383   1.444   1.460   1.470   1.494   1.510
  1.532   1.540   1.563   1.601   1.683   1.691   1.725   1.745
  1.794   1.834   1.861   1.866   1.882   1.896   1.902   1.921
  1.927   1.951   1.957   1.987   2.006   2.028   2.051   2.072
  2.092   2.097   2.121   2.151   2.174   2.178   2.187   2.201
  2.233   2.238   2.252   2.280   2.293   2.331   2.364   2.366
  2.421   2.436   2.442   2.454   2.457   2.469   2.480   2.500
  2.518   2.526   2.534   2.567   2.583   2.595   2.598   2.619
  2.660   2.680   2.698   2.713   2.730   2.809   2.854   2.873
  2.898   2.916   2.936   2.943   3.133   3.174   3.211   3.269
  3.270   3.324   3.414   3.415   3.669   3.729   3.738   3.973
  3.975   3.983   4.252   4.277   4.304   4.320   4.331   4.350
  4.396   4.480   4.547   4.647   4.692   4.724
 --------------------------------------------------------------
 
          Ground-State Mulliken Net Atomic Charges

     Atom                 Charge (a.u.)
  ----------------------------------------
      1 H                     0.195797
      2 H                     0.119350
      3 C                     0.021487
      4 C                    -0.377352
      5 S                    -0.107728
      6 C                     0.461133
      7 H                     0.124543
      8 C                    -0.308653
      9 H                     0.124941
     10 C                    -0.198988
     11 C                    -0.058188
     12 S                    -0.108685
     13 C                     0.125353
     14 H                     0.133930
     15 C                    -0.218922
     16 C                    -0.334790
     17 H                     0.141827
     18 C                     0.368365
     19 S                     0.016469
     20 C                    -0.462641
     21 C                     0.032939
     22 H                     0.116727
     23 H                     0.193085
  ----------------------------------------
  Sum of atomic charges =     0.000000

 -----------------------------------------------------------------
                    Cartesian Multipole Moments
 -----------------------------------------------------------------
    Charge (ESU x 10^10)
                 0.0000
    Dipole Moment (Debye)
         X      -0.0339      Y       0.4690      Z      -0.6226
       Tot       0.7803
    Quadrupole Moments (Debye-Ang)
        XX     -90.4127     XY       0.0709     YY    -102.2993
        XZ       0.2469     YZ      -1.5913     ZZ    -114.7946
    Octopole Moments (Debye-Ang^2)
       XXX      -8.8928    XXY      19.3523    XYY       1.6033
       YYY       7.3017    XXZ       6.7344    XYZ       7.5456
       YYZ     -10.3409    XZZ     -11.4035    YZZ       1.3877
       ZZZ      -1.9679
    Hexadecapole Moments (Debye-Ang^3)
      XXXX   -6343.5062   XXXY      10.5655   XXYY   -1306.2150
      XYYY      49.4587   YYYY    -794.1430   XXXZ      42.5485
      XXYZ     -42.5219   XYYZ      39.7790   YYYZ      30.0981
      XXZZ   -1370.1886   XYZZ       4.9576   YYZZ    -184.2984
      XZZZ      82.7404   YZZZ      31.2650   ZZZZ    -255.4139
 -----------------------------------------------------------------
Archival summary:
1\1\nid00631\OPT\ProcedureUnspecified\BasisUnspecified\3128\bwood\TueMay3010:54:202017TueMay3010:54:202017\0\\#,OPT,ProcedureUnspecified,BasisUnspecified,\\0,1\S\C,1,1.75373\C,2,1.37852,1,110.331\H,3,1.08417,2,122.564,1,-178.577,0\C,3,1.41999,2,113.602,1,-0.490042,0\H,5,1.08441,3,123.432,2,-178.252,0\C,5,1.38097,3,113.7,2,-0.445409,0\C,7,1.45076,5,128.998,3,-179.063,0\C,8,1.38072,7,128.976,5,160.247,0\H,9,1.08436,8,122.849,7,-0.891018,0\C,9,1.42463,8,113.53,7,-179.67,0\H,11,1.08399,9,123.79,8,179.537,0\C,11,1.37007,9,112.843,8,0.0804139,0\H,13,1.08132,11,128.485,9,179.586,0\C,2,1.45572,1,120.498,3,-177.209,0\C,15,1.37908,2,128.911,1,46.6269,0\H,16,1.08416,15,122.516,2,-1.44421,0\C,16,1.42558,15,113.398,2,177.193,0\H,18,1.0841,16,123.813,15,-179.669,0\C,18,1.37081,16,112.83,15,-0.528629,0\H,20,1.08152,18,128.302,16,-179.357,0\S,20,1.73369,18,111.632,16,0.704985,0\S,13,1.73486,11,111.634,9,-0.588293,0\\\@

 Total job time:  99.49s(wall), 105.42s(cpu) 
 Tue May 30 10:54:21 2017

        *************************************************************
        *                                                           *
        *  Thank you very much for using Q-Chem.  Have a nice day.  *
        *                                                           *
        *************************************************************


0 sent ACK to 0 
now end server 0 ... 
