srun -N 1 --ntasks-per-node 22 --cpus-per-task 2 --cpu_bind=cores --nodelist nid00571 /global/project/projectdirs/jcesr/qchem/qc44/cnl_qc441/dist/exe/qcprog.cori.haswell.exe .pt_nn_neutral_-40.0.in.37617.qcin.1 /dev/shm/eg_qchem/qchem37617/
Process 4 of 22 is on nid00571 - thread support 0
Process 5 of 22 is on nid00571 - thread support 0
Process 0 of 22 is on nid00571 - thread support 0
Process 1 of 22 is on nid00571 - thread support 0
Process 2 of 22 is on nid00571 - thread support 0
Process 3 of 22 is on nid00571 - thread support 0
Process 6 of 22 is on nid00571 - thread support 0
Process 21 of 22 is on nid00571 - thread support 0
initial socket setup ...start
initial socket setup ...done 
now start server 0 ... 
nid00571 10.128.2
Q-Chem Developer Version! Running on 10.128.2.*
                  Welcome to Q-Chem
     A Quantum Leap Into The Future Of Chemistry


 Q-Chem 4.4, Q-Chem, Inc., Pleasanton, CA (2016)

 Y. Shao,  Z. Gan,  E. Epifanovsky,  A. T. B. Gilbert,  M. Wormit,  
 J. Kussmann,  A. W. Lange,  A. Behn,  J. Deng,  X. Feng,  D. Ghosh,  
 M. Goldey,  P. R. Horn,  L. D. Jacobson,  I. Kaliman,  F. Rob,  
 R. Z. Khaliullin,  T. Kus,  A. Landau,  J. Liu,  E. I. Proynov,  Y. M. Rhee,  
 R. M. Richard,  M. A. Rohrdanz,  R. P. Steele,  E. J. Sundstrom,  
 H. L. Woodcock III,  P. M. Zimmerman,  D. Zuev,  B. Albrecht,  E. Alguire,  
 B. Austin,  S. A. Baeppler,  G. J. O. Beran,  Y. A. Bernard,  
 E. J. Berquist,  K. Brandhorst,  K. B. Bravaya,  S. T. Brown,  D. Casanova,  
 C.-M. Chang,  Y. Chen,  S. H. Chien,  K. D. Closser,  M. P. Coons,  
 D. L. Crittenden,  S. Dasgupta,  M. Diedenhofen,  R. A. DiStasio Jr.,  
 H. Do,  A. D. Dutoi,  R. G. Edgar,  P.-T. Fang,  S. Fatehi,  Q. Feng,  
 L. Fusti-Molnar,  A. Ghysels,  A. Golubeva-Zadorozhnaya,  J. Gomes,  
 A. Gunina,  M. W. D. Hanson-Heine,  P. H. P. Harbach,  A. W. Hauser,  
 J. E. Herr,  E. G. Hohenstein,  Z. C. Holden,  K. Hui,  T.-C. Jagau,  H. Ji,  
 B. Kaduk,  K. Khistyaev,  Jaehoon Kim,  Jihan Kim,  R. A. King,  
 P. Klunzinger,  K. Koh,  D. Kosenkov,  T. Kowalczyk,  C. M. Krauter,  
 A. Kunitsa,  K. U. Lao,  A. Laurent,  K. V. Lawler,  J. Lee,  D. Lefrancois,  
 S. Lehtola,  S. V. Levchenko,  C. Y. Lin,  Y.-S. Lin,  F. Liu,  E. Livshits,  
 R. C. Lochan,  A. Luenser,  P. Manohar,  S. F. Manzer,  S.-P. Mao,  Y. Mao,  
 N. Mardirossian,  A. V. Marenich,  L. A. Martinez-Martinez,  S. A. Maurer,  
 N. J. Mayhall,  J.-M. Mewes,  A. F. Morrison,  K. Nanda,  T. S. Nguyen-Beck,  
 C. M. Oana,  R. Olivares-Amaya,  D. P. O'Neill,  J. A. Parkhill,  
 T. M. Perrine,  R. Peverati,  P. A. Pieniazek,  F. Plasser,  A. Prociuk,  
 D. R. Rehn,  E. Rosta,  N. J. Russ,  N. Sergueev,  S. M. Sharada,  
 S. Sharma,  D. W. Small,  A. Sodt,  T. Stauch,  T. Stein,  D. Stuck,  
 Y.-C. Su,  A. J. W. Thom,  T. Tsuchimochi,  L. Vogt,  O. Vydrov,  T. Wang,  
 M. A. Watson,  J. Wenzel,  A. White,  C. F. Williams,  V. Vanovschi,  
 K. Yao,  S. Yeganeh,  S. R. Yost,  Z.-Q. You,  I. Y. Zhang,  X. Zhang,  
 Y. Zhao,  B. R. Brooks,  G. K. L. Chan,  D. M. Chipman,  C. J. Cramer,  
 W. A. Goddard III,  M. S. Gordon,  W. J. Hehre,  A. Klamt,  
 H. F. Schaefer III,  M. W. Schmidt,  C. D. Sherrill,  D. G. Truhlar,  
 A. Warshel,  X. Xu,  A. Aspuru-Guzik,  R. Baer,  A. T. Bell,  N. A. Besley,  
 J.-D. Chai,  A. Dreuw,  B. D. Dunietz,  T. R. Furlani,  S. R. Gwaltney,  
 C.-P. Hsu,  Y. Jung,  J. Kong,  D. S. Lambrecht,  W. Liang,  C. Ochsenfeld,  
 V. A. Rassolov,  L. V. Slipchenko,  J. E. Subotnik,  T. Van Voorhis,  
 J. M. Herbert,  A. I. Krylov,  P. M. W. Gill,  M. Head-Gordon

 Contributors to earlier versions of Q-Chem not listed above: 
 R. D. Adamson,  J. Baker,  E. F. C. Byrd,  A. K. Chakraborty,  C.-L. Cheng,  
 H. Dachsel,  R. J. Doerksen,  G. Hawkins,  A. Heyden,  S. Hirata,  
 G. Kedziora,  F. J. Keil,  C. Kelley,  P. P. Korambath,  W. Kurlancheek,  
 A. M. Lee,  M. S. Lee,  D. Liotard,  I. Lotan,  P. E. Maslen,  N. Nair,  
 D. Neuhauser,  R. Olson,  B. Peters,  J. Ritchie,  N. E. Schultz,  
 N. Shenvi,  A. C. Simmonett,  K. S. Thanthiriwatte,  Q. Wu,  W. Zhang

 Please cite Q-Chem as follows:
 Y. Shao et al., Mol. Phys. 113, 184-215 (2015)
 DOI: 10.1080/00268976.2014.952696

 Q-Chem 4.4.2 for Intel X86 EM64T Linux

 Parts of Q-Chem use Armadillo 5.200.1 (Boston Tea Smuggler).
 http://arma.sourceforge.net/

 Q-Chem begins on Tue May 30 10:52:45 2017  

Host: nid00478
0

     Scratch files written to /dev/shm/eg_qchem/qchem37617.0//
 Parallel job on  22  processors

Checking the input file for inconsistencies... 	...done.

--------------------------------------------------------------
User input:
--------------------------------------------------------------
$molecule
 0  1
 H           6.23254100       -0.22338900        0.17638100
 H           5.29752400        2.22850500       -0.10953100
 C           5.19733500        0.07486000        0.08356300
 C           4.68347900        1.33634400       -0.06443600
 S           3.94559900       -1.12581000        0.11905200
 C           3.26267300        1.34659400       -0.16511200
 H           2.67740100        2.24810800       -0.30841700
 C           2.69562400        0.08941900       -0.09094600
 H           1.33241900       -2.39005500       -0.68762600
 C           1.29739300       -0.28590200       -0.16150800
 C           0.73808300       -1.51455700       -0.45078400
 S           0.03601800        0.89451200        0.14982500
 C          -0.68041100       -1.51067300       -0.44936800
 H          -1.28012400       -2.38277100       -0.68510300
 C          -1.23220500       -0.27900200       -0.15852500
 C          -2.62830100        0.10383400       -0.08465000
 H          -3.55755785       -0.95682507       -1.73358051
 C          -3.67712623       -0.27343305       -0.90021941
 S          -3.19838480        1.19557385        1.16684083
 C          -4.92588674        0.29748729       -0.52119316
 C          -4.82876347        1.10574604        0.58088590
 H          -5.85812029        0.10761036       -1.04074016
 H          -5.61280440        1.65548916        1.08316030
$end


$rem
         jobtype = opt
        exchange = b3lyp
           basis = 6-31++g**
  max_scf_cycles = 150
      mem_static = 281
       mem_total = 2818
      sym_ignore = true
        symmetry = false
          thresh = 12
$end


$opt
CONSTRAINT
tors 13 15 16 18 -40.0
ENDCONSTRAINT
$end

--------------------------------------------------------------
 ----------------------------------------------------------------
             Standard Nuclear Orientation (Angstroms)
    I     Atom           X                Y                Z
 ----------------------------------------------------------------
    1      H       6.2325410000    -0.2233890000     0.1763810000
    2      H       5.2975240000     2.2285050000    -0.1095310000
    3      C       5.1973350000     0.0748600000     0.0835630000
    4      C       4.6834790000     1.3363440000    -0.0644360000
    5      S       3.9455990000    -1.1258100000     0.1190520000
    6      C       3.2626730000     1.3465940000    -0.1651120000
    7      H       2.6774010000     2.2481080000    -0.3084170000
    8      C       2.6956240000     0.0894190000    -0.0909460000
    9      H       1.3324190000    -2.3900550000    -0.6876260000
   10      C       1.2973930000    -0.2859020000    -0.1615080000
   11      C       0.7380830000    -1.5145570000    -0.4507840000
   12      S       0.0360180000     0.8945120000     0.1498250000
   13      C      -0.6804110000    -1.5106730000    -0.4493680000
   14      H      -1.2801240000    -2.3827710000    -0.6851030000
   15      C      -1.2322050000    -0.2790020000    -0.1585250000
   16      C      -2.6283010000     0.1038340000    -0.0846500000
   17      H      -3.5575578500    -0.9568250700    -1.7335805100
   18      C      -3.6771262300    -0.2734330500    -0.9002194100
   19      S      -3.1983848000     1.1955738500     1.1668408300
   20      C      -4.9258867400     0.2974872900    -0.5211931600
   21      C      -4.8287634700     1.1057460400     0.5808859000
   22      H      -5.8581202900     0.1076103600    -1.0407401600
   23      H      -5.6128044000     1.6554891600     1.0831603000
 ----------------------------------------------------------------
 Nuclear Repulsion Energy =  1177.7500932847 hartrees
 There are       64 alpha and       64 beta electrons
 Requested basis set is 6-31++G(d,p)
 There are 110 shells and 345 basis functions

 Total QAlloc Memory Limit   2818 MB
 Mega-Array Size       275 MB
 MEM_STATIC part       281 MB
 A cutoff of  1.0D-12 yielded   4675 shell pairs
 There are     47613 function pairs

 Q-Chem warning in module /project/projectdirs/jcesr/qchem/qc44/cnl_qc441/compile/cori/qc_src/libqints/qchem/aobasis.C, line 68:

 Using reconstructed effective core potential

 
 -------------------------------------------------------
 OpenMP Integral Computing Module                       
 Release: version 1.0, May 2013, Q-Chem Inc. Pittsburgh 
 -------------------------------------------------------
 Integral Job Info:
 Integral job number is                      11
 Integral operator is                         1
 short-range coefficients                     0
 long-range coefficients              100000000
 Omega coefficients                           0
 if combine SR and LR in K                    0
 Integral screening is                        0
 Integral computing path is                   2
 max size of driver memory is            800000
 size of driver memory is                593474
 size of scratch memory is             15166112
 max col of scratch BK array               1296
 max len of scratch array in speh3          155
 max len of scratch index in speh4           18
 max int batch size is                      520
 min int batch size is                       52
 fixed nKL is                                52
 max L of basis functions is                  2
 order of int derivative is                   0
 number of shells is                        110
 number of basis is                         345
 number of cartesian basis is               345
 number of contracted shell pairs          4675
 number of primitive shell pairs          14614
 maxK2 (contraction) of shell pair           36
 max number of K2 of shell pair               1
 max number of CS2 of shell pair            510
 max number of PS2 of shell pair           3024
 mem total for path MDJ                  101496
 -------------------------------------------------------
 Smallest overlap matrix eigenvalue = 8.09E-08
 Linear dependence detected in AO basis
 Number of orthogonalized atomic orbitals = 343
 Maximum deviation from orthogonality = 1.003E-10

 Scale SEOQF with 1.000000e-02/1.000000e-01/1.000000e-01

 Standard Electronic Orientation quadrupole field applied
 Nucleus-field energy     =     0.0000000107 hartrees
 Guess from superposition of atomic densities
 Warning:  Energy on first SCF cycle will be non-variational
 A restricted hybrid HF-DFT SCF calculation will be
 performed using Pulay DIIS extrapolation
 Exchange:     0.2000 Hartree-Fock + 0.0800 Slater + 0.7200 B88
 Correlation:  0.1900 VWN1RPA + 0.8100 LYP
 Using SG-1 standard quadrature grid
 SCF converges when DIIS error is below 1.0E-08
 ---------------------------------------
  Cycle       Energy         DIIS Error
 ---------------------------------------
    1   -1660.2949568651      3.68E-02
    2   -1656.4245642013      3.78E-03
    3   -1656.0858814582      5.76E-03
    4   -1656.6474985654      9.24E-04
    5   -1656.6583104343      5.16E-04
    6   -1656.6618844614      1.98E-04
    7   -1656.6624765284      7.27E-05
    8   -1656.6625576526      1.41E-05
    9   -1656.6625606597      3.64E-06
   10   -1656.6625608167      2.05E-06
   11   -1656.6625608863      4.22E-07
   12   -1656.6625608889      2.24E-07
   13   -1656.6625608881      6.14E-08
   14   -1656.6625608880      2.44E-08
   15   -1656.6625608890      1.02E-08
   16   -1656.6625608895      2.72E-09 Convergence criterion met
 ---------------------------------------
 SCF time:  CPU 17.71 s  wall 16.24 s
 SCF   energy in the final basis set = -1656.6625608895
 Total energy in the final basis set = -1656.6625608895
 
 --------------------------------------------------------------
 
                    Orbital Energies (a.u.)
 --------------------------------------------------------------
 
 Alpha MOs
 -- Occupied --
-88.921 -88.921 -88.921 -10.241 -10.240 -10.240 -10.239 -10.226
-10.226 -10.206 -10.206 -10.206 -10.206 -10.205 -10.205  -7.980
 -7.980  -7.980  -5.944  -5.944  -5.944  -5.941  -5.941  -5.941
 -5.937  -5.937  -5.937  -0.907  -0.892  -0.876  -0.787  -0.756
 -0.745  -0.744  -0.733  -0.697  -0.617  -0.596  -0.568  -0.564
 -0.537  -0.533  -0.529  -0.498  -0.463  -0.422  -0.419  -0.418
 -0.416  -0.408  -0.403  -0.399  -0.385  -0.375  -0.370  -0.360
 -0.352  -0.344  -0.292  -0.266  -0.263  -0.261  -0.247  -0.204
 -- Virtual --
 -0.068  -0.032  -0.011  -0.006  -0.004   0.003   0.008   0.009
  0.016   0.019   0.024   0.029   0.033   0.034   0.035   0.043
  0.046   0.051   0.053   0.055   0.059   0.064   0.070   0.075
  0.085   0.088   0.089   0.098   0.101   0.103   0.106   0.110
  0.111   0.117   0.118   0.124   0.126   0.129   0.131   0.134
  0.135   0.139   0.142   0.144   0.147   0.152   0.154   0.157
  0.162   0.163   0.170   0.176   0.177   0.183   0.183   0.191
  0.193   0.199   0.201   0.208   0.212   0.215   0.217   0.223
  0.228   0.232   0.235   0.241   0.252   0.258   0.261   0.268
  0.269   0.272   0.277   0.279   0.282   0.286   0.299   0.302
  0.312   0.318   0.325   0.336   0.344   0.346   0.352   0.358
  0.366   0.373   0.384   0.396   0.402   0.448   0.451   0.466
  0.499   0.507   0.524   0.525   0.552   0.562   0.567   0.575
  0.584   0.588   0.610   0.619   0.630   0.646   0.655   0.660
  0.663   0.669   0.674   0.689   0.696   0.709   0.716   0.720
  0.724   0.727   0.736   0.744   0.749   0.756   0.771   0.788
  0.792   0.795   0.820   0.824   0.832   0.839   0.856   0.877
  0.901   0.930   0.939   0.943   0.953   0.957   0.960   0.965
  0.967   0.972   0.979   0.983   0.994   1.001   1.011   1.030
  1.036   1.041   1.055   1.070   1.076   1.091   1.101   1.103
  1.106   1.117   1.148   1.155   1.166   1.181   1.197   1.220
  1.243   1.258   1.270   1.289   1.319   1.339   1.342   1.350
  1.352   1.360   1.365   1.385   1.443   1.456   1.472   1.504
  1.516   1.545   1.549   1.570   1.616   1.682   1.688   1.718
  1.742   1.795   1.831   1.862   1.876   1.887   1.895   1.912
  1.917   1.929   1.939   1.963   1.966   2.005   2.023   2.054
  2.063   2.080   2.102   2.126   2.151   2.173   2.182   2.194
  2.216   2.228   2.237   2.260   2.268   2.285   2.326   2.364
  2.365   2.422   2.425   2.455   2.456   2.460   2.475   2.479
  2.502   2.522   2.527   2.535   2.565   2.582   2.589   2.603
  2.633   2.666   2.676   2.704   2.713   2.739   2.781   2.849
  2.873   2.894   2.915   2.945   2.971   3.128   3.178   3.218
  3.272   3.273   3.326   3.413   3.416   3.671   3.731   3.739
  3.951   3.978   4.003   4.257   4.270   4.309   4.316   4.329
  4.356   4.391   4.477   4.551   4.645   4.696   4.733
 --------------------------------------------------------------
 
          Ground-State Mulliken Net Atomic Charges

     Atom                 Charge (a.u.)
  ----------------------------------------
      1 H                     0.196723
      2 H                     0.119679
      3 C                     0.033993
      4 C                    -0.372537
      5 S                    -0.116077
      6 C                     0.527278
      7 H                     0.128115
      8 C                    -0.466246
      9 H                     0.122694
     10 C                    -0.061622
     11 C                    -0.110017
     12 S                    -0.207523
     13 C                     0.152183
     14 H                     0.131937
     15 C                    -0.174337
     16 C                    -0.326569
     17 H                     0.140751
     18 C                     0.353330
     19 S                    -0.031373
     20 C                    -0.381696
     21 C                     0.026276
     22 H                     0.119496
     23 H                     0.195542
  ----------------------------------------
  Sum of atomic charges =     0.000000

 -----------------------------------------------------------------
                    Cartesian Multipole Moments
 -----------------------------------------------------------------
    Charge (ESU x 10^10)
                 0.0000
    Dipole Moment (Debye)
         X      -0.2389      Y      -0.2159      Z      -0.6266
       Tot       0.7045
    Quadrupole Moments (Debye-Ang)
        XX     -89.4407     XY       1.3015     YY    -103.9568
        XZ       1.5018     YZ       3.4686     ZZ    -112.8996
    Octopole Moments (Debye-Ang^2)
       XXX     -22.2957    XXY       6.8747    XYY       1.0861
       YYY     -47.9074    XXZ      -3.3192    XYZ     -15.0351
       YYZ      -5.9399    XZZ     -26.2057    YZZ     -16.7358
       ZZZ     -10.6596
    Hexadecapole Moments (Debye-Ang^3)
      XXXX   -6180.2123   XXXY     137.7438   XXYY   -1276.6170
      XYYY     251.7869   YYYY    -786.0580   XXXZ     112.8579
      XXYZ      25.5696   XYYZ       5.2662   YYYZ     -81.9927
      XXZZ   -1297.3842   XYZZ      65.7764   YYZZ    -195.4096
      XZZZ      77.6707   YZZZ     -89.7986   ZZZZ    -345.7836
 -----------------------------------------------------------------
 Calculating analytic gradient of the SCF energy
 Gradient of SCF Energy
            1           2           3           4           5           6
    1  -0.0000238   0.0000105   0.0000383  -0.0001060  -0.0001119   0.0002430
    2  -0.0000107  -0.0000039   0.0000425   0.0000438  -0.0001054   0.0003223
    3   0.0000507  -0.0000082   0.0000029  -0.0000634   0.0000113   0.0000943
            7           8           9          10          11          12
    1   0.0000094  -0.0007819  -0.0000260   0.0007315  -0.0006129  -0.0016121
    2  -0.0000106  -0.0000466   0.0000902  -0.0003060  -0.0008481   0.0004784
    3  -0.0000137  -0.0006523  -0.0001215  -0.0018569   0.0020896   0.0012465
           13          14          15          16          17          18
    1   0.0020748   0.0005084  -0.0035795   0.0036498  -0.0010358  -0.0011648
    2  -0.0009008  -0.0000094   0.0017911  -0.0018464  -0.0015760   0.0030624
    3   0.0029576  -0.0018998  -0.0012787   0.0012058   0.0008992  -0.0014095
           19          20          21          22          23
    1   0.0019577   0.0005319  -0.0008019   0.0000340   0.0000673
    2   0.0006138   0.0015852  -0.0017525  -0.0000764  -0.0005369
    3  -0.0005094  -0.0016135   0.0002759   0.0001515   0.0004418
 Max gradient component =       3.650E-03
 RMS gradient           =       1.204E-03
 Gradient time:  CPU 4.70 s  wall 4.68 s
 Geometry Optimization Parameters
   NAtoms,    NIC,     NZ,  NCons,   NDum,   NFix, NCnnct, MaxDiis
       23     166       0       1       0       0       0       0


** CONSTRAINED OPTIMIZATION IN DELOCALIZED INTERNAL COORDINATES **
   Searching for a Minimum

   Optimization Cycle:   1

                       Coordinates (Angstroms)
     ATOM                X               Y               Z
      1  H         6.2325410000   -0.2233890000    0.1763810000
      2  H         5.2975240000    2.2285050000   -0.1095310000
      3  C         5.1973350000    0.0748600000    0.0835630000
      4  C         4.6834790000    1.3363440000   -0.0644360000
      5  S         3.9455990000   -1.1258100000    0.1190520000
      6  C         3.2626730000    1.3465940000   -0.1651120000
      7  H         2.6774010000    2.2481080000   -0.3084170000
      8  C         2.6956240000    0.0894190000   -0.0909460000
      9  H         1.3324190000   -2.3900550000   -0.6876260000
     10  C         1.2973930000   -0.2859020000   -0.1615080000
     11  C         0.7380830000   -1.5145570000   -0.4507840000
     12  S         0.0360180000    0.8945120000    0.1498250000
     13  C        -0.6804110000   -1.5106730000   -0.4493680000
     14  H        -1.2801240000   -2.3827710000   -0.6851030000
     15  C        -1.2322050000   -0.2790020000   -0.1585250000
     16  C        -2.6283010000    0.1038340000   -0.0846500000
     17  H        -3.5575578500   -0.9568250700   -1.7335805100
     18  C        -3.6771262300   -0.2734330500   -0.9002194100
     19  S        -3.1983848000    1.1955738500    1.1668408300
     20  C        -4.9258867400    0.2974872900   -0.5211931600
     21  C        -4.8287634700    1.1057460400    0.5808859000
     22  H        -5.8581202900    0.1076103600   -1.0407401600
     23  H        -5.6128044000    1.6554891600    1.0831603000
   Point Group: c1    Number of degrees of freedom:    63


   Energy is  -1656.662560890

              Constraints and their Current Values
                                        Value     Constraint
   Dihedral:       13  15  16  18      -40.000      -40.000

 Attempting to Generate Delocalized Internal Coordinates

 62 Hessian modes will be used to form the next step
  Hessian Eigenvalues:
     0.045000    0.045000    0.045000    0.045000    0.045000    0.045000
     0.045000    0.045000    0.045000    0.045001    0.045002    0.045002
     0.045003    0.045003    0.045009    0.045010    0.045011    0.045018
     0.045019    0.159886    0.159939    0.159955    0.159957    0.159992
     0.159993    0.160000    0.160000    0.221281    0.221281    0.226855
     0.237826    0.237826    0.245311    0.249998    0.249998    0.250000
     0.250000    0.293636    0.293684    0.294746    0.294936    0.312571
     0.312615    0.354732    0.354740    0.354742    0.354756    0.355161
     0.355164    0.358372    0.358373    0.383080    0.383176    0.405793
     0.405832    0.413732    0.458107    0.461989    0.461995    0.485493
     0.497291    0.497294

 Minimum Search - Taking Simple RFO Step
 Searching for Lamda that Minimizes Along All modes
 Value Taken    Lamda =  -0.00060401
 Step Taken.  Stepsize is  0.090590

                             Maximum     Tolerance    Cnvgd?
         Gradient           0.004643      0.000300      NO
         Displacement       0.045097      0.001200      NO
         Energy change     *********      0.000001      NO


 New Cartesian Coordinates Obtained by Inverse Iteration

 Displacement from previous Coordinates is:  0.246616
 ----------------------------------------------------------------
             Standard Nuclear Orientation (Angstroms)
    I     Atom           X                Y                Z
 ----------------------------------------------------------------
    1      H       6.2360771962    -0.2479211613     0.1799792472
    2      H       5.3208662732     2.2117000476    -0.1034529486
    3      C       5.2034030395     0.0585906896     0.0856302611
    4      C       4.6997957540     1.3242778128    -0.0612413255
    5      S       3.9420536623    -1.1319616120     0.1159894562
    6      C       3.2792813328     1.3458163598    -0.1659197762
    7      H       2.7015643451     2.2521364082    -0.3097125692
    8      C       2.7021489316     0.0934315195    -0.0953121797
    9      H       1.3209614141    -2.3731558739    -0.7039390449
   10      C       1.3001804215    -0.2700456137    -0.1722648054
   11      C       0.7322957893    -1.4931372890    -0.4692923824
   12      S       0.0464489322     0.9189151758     0.1322363198
   13      C      -0.6871207069    -1.4845126312    -0.4526912199
   14      H      -1.2961646703    -2.3559177753    -0.6649348783
   15      C      -1.2304672316    -0.2523973223    -0.1563689282
   16      C      -2.6343505199     0.1162819117    -0.0700339406
   17      H      -3.5302002261    -0.9555830427    -1.7243848745
   18      C      -3.6722494910    -0.2836916864    -0.8855820340
   19      S      -3.2293269790     1.1997994837     1.1789913410
   20      C      -4.9329183780     0.2661850043    -0.5118856775
   21      C      -4.8519392001     1.0944932318     0.5770893243
   22      H      -5.8585610694     0.0629792768    -1.0384044074
   23      H      -5.6453743997     1.6453826659     1.0634738326
 ----------------------------------------------------------------
 Nuclear Repulsion Energy =  1176.4147188956 hartrees
 There are       64 alpha and       64 beta electrons
 Applying Cartesian multipole field
    Component          Value
    ---------          -----
     (2,0,0)        1.00000E-12
     (0,2,0)        2.00000E-11
     (0,0,2)       -3.00000E-11
 Nucleus-field energy     =     0.0000000106 hartrees
 Requested basis set is 6-31++G(d,p)
 There are 110 shells and 345 basis functions
 A cutoff of  1.0D-12 yielded   4675 shell pairs
 There are     47613 function pairs

 Q-Chem warning in module /project/projectdirs/jcesr/qchem/qc44/cnl_qc441/compile/cori/qc_src/libqints/qchem/aobasis.C, line 68:

 Using reconstructed effective core potential

 Smallest overlap matrix eigenvalue = 8.02E-08
 Linear dependence detected in AO basis
 Number of orthogonalized atomic orbitals = 343
 Maximum deviation from orthogonality = 5.609E-11
 Guess MOs from SCF MO coefficient file
 Reading MOs from coefficient file
 Reading MOs from coefficient file
 A restricted hybrid HF-DFT SCF calculation will be
 performed using Pulay DIIS extrapolation
 Exchange:     0.2000 Hartree-Fock + 0.0800 Slater + 0.7200 B88
 Correlation:  0.1900 VWN1RPA + 0.8100 LYP
 Using SG-1 standard quadrature grid
 SCF converges when DIIS error is below 1.0E-08
 Geometry optimization detected.  Setting ReadMinima to 0
 Setting SaveMinima to 0
 ---------------------------------------
  Cycle       Energy         DIIS Error
 ---------------------------------------
    1   -1656.6671425972      6.82E-04
    2   -1656.6626511346      1.31E-04
    3   -1656.6615567137      2.92E-04
    4   -1656.6629371051      2.67E-05
    5   -1656.6629474959      1.03E-05
    6   -1656.6629490938      2.98E-06
    7   -1656.6629492181      1.10E-06
    8   -1656.6629492324      5.07E-07
    9   -1656.6629492393      1.43E-07
   10   -1656.6629492399      3.69E-08
   11   -1656.6629492390      1.44E-08
   12   -1656.6629492399      6.24E-09 Convergence criterion met
 ---------------------------------------
 SCF time:  CPU 13.31 s  wall 12.27 s
 SCF   energy in the final basis set = -1656.6629492399
 Total energy in the final basis set = -1656.6629492399
 
 --------------------------------------------------------------
 
                    Orbital Energies (a.u.)
 --------------------------------------------------------------
 
 Alpha MOs
 -- Occupied --
-88.921 -88.921 -88.921 -10.241 -10.240 -10.240 -10.239 -10.226
-10.226 -10.206 -10.206 -10.206 -10.206 -10.205 -10.205  -7.980
 -7.980  -7.980  -5.945  -5.945  -5.944  -5.941  -5.941  -5.941
 -5.937  -5.937  -5.937  -0.906  -0.892  -0.876  -0.787  -0.755
 -0.745  -0.744  -0.733  -0.697  -0.617  -0.595  -0.568  -0.564
 -0.537  -0.533  -0.529  -0.499  -0.463  -0.422  -0.419  -0.418
 -0.415  -0.408  -0.403  -0.398  -0.385  -0.376  -0.370  -0.360
 -0.352  -0.344  -0.292  -0.266  -0.262  -0.261  -0.247  -0.205
 -- Virtual --
 -0.068  -0.032  -0.011  -0.006  -0.004   0.003   0.008   0.009
  0.016   0.019   0.024   0.029   0.033   0.034   0.034   0.043
  0.046   0.051   0.053   0.055   0.058   0.064   0.069   0.075
  0.085   0.088   0.089   0.097   0.100   0.103   0.107   0.110
  0.111   0.117   0.118   0.124   0.126   0.129   0.131   0.134
  0.135   0.139   0.142   0.144   0.147   0.151   0.154   0.157
  0.162   0.162   0.170   0.176   0.176   0.183   0.183   0.191
  0.194   0.199   0.202   0.207   0.212   0.214   0.216   0.223
  0.228   0.232   0.235   0.240   0.253   0.257   0.261   0.268
  0.269   0.272   0.277   0.279   0.281   0.286   0.299   0.301
  0.311   0.318   0.325   0.336   0.345   0.347   0.352   0.358
  0.367   0.372   0.384   0.395   0.402   0.448   0.451   0.466
  0.497   0.507   0.524   0.525   0.552   0.562   0.567   0.574
  0.585   0.589   0.610   0.619   0.631   0.646   0.654   0.661
  0.663   0.669   0.674   0.687   0.695   0.708   0.717   0.719
  0.723   0.727   0.736   0.743   0.749   0.756   0.771   0.788
  0.792   0.795   0.819   0.824   0.832   0.839   0.855   0.878
  0.901   0.929   0.940   0.943   0.952   0.957   0.960   0.965
  0.969   0.971   0.980   0.983   0.995   1.003   1.011   1.029
  1.037   1.040   1.055   1.068   1.077   1.092   1.101   1.103
  1.105   1.117   1.147   1.154   1.166   1.182   1.197   1.217
  1.242   1.257   1.269   1.290   1.319   1.338   1.346   1.351
  1.351   1.362   1.365   1.383   1.443   1.456   1.473   1.503
  1.514   1.542   1.548   1.569   1.615   1.682   1.688   1.718
  1.742   1.792   1.831   1.865   1.875   1.887   1.895   1.911
  1.916   1.928   1.939   1.962   1.966   2.006   2.021   2.053
  2.064   2.080   2.102   2.127   2.151   2.172   2.182   2.193
  2.215   2.227   2.238   2.258   2.267   2.286   2.326   2.364
  2.366   2.423   2.426   2.454   2.457   2.462   2.470   2.478
  2.503   2.523   2.526   2.533   2.564   2.582   2.589   2.602
  2.632   2.667   2.674   2.704   2.713   2.739   2.783   2.848
  2.874   2.892   2.913   2.943   2.967   3.128   3.178   3.217
  3.271   3.273   3.326   3.413   3.416   3.671   3.731   3.739
  3.952   3.978   4.001   4.257   4.271   4.309   4.316   4.329
  4.355   4.390   4.476   4.550   4.644   4.695   4.731
 --------------------------------------------------------------
 
          Ground-State Mulliken Net Atomic Charges

     Atom                 Charge (a.u.)
  ----------------------------------------
      1 H                     0.196765
      2 H                     0.119606
      3 C                     0.035804
      4 C                    -0.377015
      5 S                    -0.115170
      6 C                     0.513229
      7 H                     0.127163
      8 C                    -0.468907
      9 H                     0.122696
     10 C                    -0.052042
     11 C                    -0.120982
     12 S                    -0.192494
     13 C                     0.150644
     14 H                     0.133633
     15 C                    -0.162605
     16 C                    -0.336970
     17 H                     0.142586
     18 C                     0.346001
     19 S                    -0.014993
     20 C                    -0.389052
     21 C                     0.027045
     22 H                     0.119489
     23 H                     0.195570
  ----------------------------------------
  Sum of atomic charges =     0.000000

 -----------------------------------------------------------------
                    Cartesian Multipole Moments
 -----------------------------------------------------------------
    Charge (ESU x 10^10)
                 0.0000
    Dipole Moment (Debye)
         X      -0.2278      Y      -0.2208      Z      -0.6246
       Tot       0.7005
    Quadrupole Moments (Debye-Ang)
        XX     -89.3781     XY       1.2783     YY    -104.0039
        XZ       1.5324     YZ       3.3933     ZZ    -112.9533
    Octopole Moments (Debye-Ang^2)
       XXX     -21.2824    XXY       6.4574    XYY       1.3397
       YYY     -48.8906    XXZ      -3.1092    XYZ     -14.9531
       YYZ      -5.8072    XZZ     -25.6846    YZZ     -17.1822
       ZZZ     -10.4389
    Hexadecapole Moments (Debye-Ang^3)
      XXXX   -6209.0437   XXXY     135.3821   XXYY   -1280.8863
      XYYY     251.5913   YYYY    -783.4361   XXXZ     118.6069
      XXYZ      25.5121   XYYZ       7.4767   YYYZ     -83.4253
      XXZZ   -1305.3888   XYZZ      66.1274   YYZZ    -195.2182
      XZZZ      83.8380   YZZZ     -90.7654   ZZZZ    -346.7597
 -----------------------------------------------------------------
 Calculating analytic gradient of the SCF energy
 Gradient of SCF Energy
            1           2           3           4           5           6
    1   0.0000029   0.0000077   0.0000601  -0.0000416   0.0000900   0.0000882
    2   0.0000038  -0.0000064   0.0000045  -0.0000408   0.0000112   0.0000954
    3   0.0000039  -0.0000206  -0.0000127   0.0000186   0.0000294   0.0000402
            7           8           9          10          11          12
    1  -0.0000043  -0.0003066  -0.0000352   0.0007495  -0.0003354   0.0000915
    2  -0.0000207  -0.0000038   0.0000153   0.0001276  -0.0000000   0.0002440
    3  -0.0000372  -0.0001779  -0.0000233  -0.0003660   0.0005916   0.0000201
           13          14          15          16          17          18
    1   0.0004275   0.0001049  -0.0008028   0.0000989  -0.0003859   0.0003755
    2  -0.0001871   0.0001673   0.0000825  -0.0019975  -0.0010474   0.0023381
    3   0.0024963  -0.0012157  -0.0021193   0.0006165   0.0007063  -0.0011331
           19          20          21          22          23
    1  -0.0000431   0.0003313  -0.0004846   0.0000225  -0.0000109
    2  -0.0000785   0.0002149   0.0002014  -0.0000407  -0.0000831
    3   0.0003554  -0.0000817   0.0001230   0.0000330   0.0001531
 Max gradient component =       2.496E-03
 RMS gradient           =       6.388E-04
 Gradient time:  CPU 4.58 s  wall 4.58 s
 Geometry Optimization Parameters
   NAtoms,    NIC,     NZ,  NCons,   NDum,   NFix, NCnnct, MaxDiis
       23     166       0       1       0       0       0       0

 Cartesian Hessian Update
 Hessian Updated using BFGS Update


** CONSTRAINED OPTIMIZATION IN DELOCALIZED INTERNAL COORDINATES **
   Searching for a Minimum

   Optimization Cycle:   2

                       Coordinates (Angstroms)
     ATOM                X               Y               Z
      1  H         6.2360771962   -0.2479211613    0.1799792472
      2  H         5.3208662732    2.2117000476   -0.1034529486
      3  C         5.2034030395    0.0585906896    0.0856302611
      4  C         4.6997957540    1.3242778128   -0.0612413255
      5  S         3.9420536623   -1.1319616120    0.1159894562
      6  C         3.2792813328    1.3458163598   -0.1659197762
      7  H         2.7015643451    2.2521364082   -0.3097125692
      8  C         2.7021489316    0.0934315195   -0.0953121797
      9  H         1.3209614141   -2.3731558739   -0.7039390449
     10  C         1.3001804215   -0.2700456137   -0.1722648054
     11  C         0.7322957893   -1.4931372890   -0.4692923824
     12  S         0.0464489322    0.9189151758    0.1322363198
     13  C        -0.6871207069   -1.4845126312   -0.4526912199
     14  H        -1.2961646703   -2.3559177753   -0.6649348783
     15  C        -1.2304672316   -0.2523973223   -0.1563689282
     16  C        -2.6343505199    0.1162819117   -0.0700339406
     17  H        -3.5302002261   -0.9555830427   -1.7243848745
     18  C        -3.6722494910   -0.2836916864   -0.8855820340
     19  S        -3.2293269790    1.1997994837    1.1789913410
     20  C        -4.9329183780    0.2661850043   -0.5118856775
     21  C        -4.8519392001    1.0944932318    0.5770893243
     22  H        -5.8585610694    0.0629792768   -1.0384044074
     23  H        -5.6453743997    1.6453826659    1.0634738326
   Point Group: c1    Number of degrees of freedom:    63


   Energy is  -1656.662949240

              Constraints and their Current Values
                                        Value     Constraint
   Dihedral:       13  15  16  18      -40.000      -40.000
 Hessian Updated using BFGS Update

 55 Hessian modes will be used to form the next step
  Hessian Eigenvalues:
     0.030745    0.045000    0.045000    0.045000    0.045001    0.045001
     0.045006    0.045009    0.045009    0.045014    0.045018    0.050445
     0.158724    0.159905    0.159946    0.159960    0.159992    0.159996
     0.159999    0.160022    0.213478    0.221281    0.223426    0.227268
     0.237827    0.239512    0.249647    0.249998    0.249999    0.251781
     0.293634    0.294226    0.294727    0.299654    0.312572    0.312970
     0.354720    0.354735    0.354743    0.354752    0.355158    0.355164
     0.358372    0.358397    0.383134    0.390610    0.405831    0.406691
     0.414821    0.459181    0.461949    0.467328    0.486669    0.497284
     0.497719

 Minimum Search - Taking Simple RFO Step
 Searching for Lamda that Minimizes Along All modes
 Value Taken    Lamda =  -0.00015690
 Step Taken.  Stepsize is  0.064268

                             Maximum     Tolerance    Cnvgd?
         Gradient           0.001460      0.000300      NO
         Displacement       0.023719      0.001200      NO
         Energy change     -0.000388      0.000001      NO


 New Cartesian Coordinates Obtained by Inverse Iteration

 Displacement from previous Coordinates is:  0.155347
 ----------------------------------------------------------------
             Standard Nuclear Orientation (Angstroms)
    I     Atom           X                Y                Z
 ----------------------------------------------------------------
    1      H       6.2345250105    -0.2637390063     0.1748458031
    2      H       5.3315630524     2.2011204279    -0.1033972866
    3      C       5.2033535945     0.0481347032     0.0816546384
    4      C       4.7061616877     1.3166776787    -0.0626280035
    5      S       3.9362330284    -1.1363008713     0.1102406077
    6      C       3.2857098838     1.3453429996    -0.1665873670
    7      H       2.7123880308     2.2548080489    -0.3082823990
    8      C       2.7027568005     0.0957639257    -0.0979623503
    9      H       1.3131542998    -2.3642612547    -0.7083094382
   10      C       1.2987652397    -0.2609176707    -0.1758108786
   11      C       0.7274937894    -1.4815932635    -0.4757971687
   12      S       0.0512581769     0.9337149187     0.1306732227
   13      C      -0.6917914752    -1.4689716965    -0.4493248097
   14      H      -1.3066487905    -2.3410226009    -0.6404735600
   15      C      -1.2285428604    -0.2349452283    -0.1496586907
   16      C      -2.6348042126     0.1261606780    -0.0595768142
   17      H      -3.5045162899    -0.9420947047    -1.7283249650
   18      C      -3.6637543105    -0.2863355957    -0.8800879948
   19      S      -3.2449814382     1.2040340471     1.1856328246
   20      C      -4.9324414708     0.2482523630    -0.5117739992
   21      C      -4.8629580002     1.0803346385     0.5751547213
   22      H      -5.8528354812     0.0396921410    -1.0455095690
   23      H      -5.6636840449     1.6278109023     1.0532722669
 ----------------------------------------------------------------
 Nuclear Repulsion Energy =  1176.1839413683 hartrees
 There are       64 alpha and       64 beta electrons
 Applying Cartesian multipole field
    Component          Value
    ---------          -----
     (2,0,0)        1.00000E-12
     (0,2,0)        2.00000E-11
     (0,0,2)       -3.00000E-11
 Nucleus-field energy     =     0.0000000106 hartrees
 Requested basis set is 6-31++G(d,p)
 There are 110 shells and 345 basis functions
 A cutoff of  1.0D-12 yielded   4675 shell pairs
 There are     47613 function pairs

 Q-Chem warning in module /project/projectdirs/jcesr/qchem/qc44/cnl_qc441/compile/cori/qc_src/libqints/qchem/aobasis.C, line 68:

 Using reconstructed effective core potential

 Smallest overlap matrix eigenvalue = 8.01E-08
 Linear dependence detected in AO basis
 Number of orthogonalized atomic orbitals = 343
 Maximum deviation from orthogonality = 1.292E-10
 Guess MOs from SCF MO coefficient file
 Reading MOs from coefficient file
 Reading MOs from coefficient file
 A restricted hybrid HF-DFT SCF calculation will be
 performed using Pulay DIIS extrapolation
 Exchange:     0.2000 Hartree-Fock + 0.0800 Slater + 0.7200 B88
 Correlation:  0.1900 VWN1RPA + 0.8100 LYP
 Using SG-1 standard quadrature grid
 SCF converges when DIIS error is below 1.0E-08
 Geometry optimization detected.  Setting ReadMinima to 0
 Setting SaveMinima to 0
 ---------------------------------------
  Cycle       Energy         DIIS Error
 ---------------------------------------
    1   -1656.6663662089      4.15E-04
    2   -1656.6628988741      9.03E-05
    3   -1656.6624251333      1.94E-04
    4   -1656.6630337683      2.06E-05
    5   -1656.6630402287      6.79E-06
    6   -1656.6630408952      2.22E-06
    7   -1656.6630409659      5.85E-07
    8   -1656.6630409712      2.53E-07
    9   -1656.6630409731      8.36E-08
   10   -1656.6630409740      2.34E-08
   11   -1656.6630409742      9.31E-09 Convergence criterion met
 ---------------------------------------
 SCF time:  CPU 12.38 s  wall 11.33 s
 SCF   energy in the final basis set = -1656.6630409742
 Total energy in the final basis set = -1656.6630409742
 
 --------------------------------------------------------------
 
                    Orbital Energies (a.u.)
 --------------------------------------------------------------
 
 Alpha MOs
 -- Occupied --
-88.921 -88.921 -88.921 -10.241 -10.240 -10.240 -10.239 -10.226
-10.226 -10.206 -10.206 -10.206 -10.206 -10.205 -10.205  -7.980
 -7.980  -7.980  -5.945  -5.945  -5.944  -5.941  -5.941  -5.941
 -5.938  -5.937  -5.937  -0.906  -0.892  -0.876  -0.787  -0.755
 -0.745  -0.744  -0.734  -0.697  -0.617  -0.595  -0.568  -0.564
 -0.537  -0.533  -0.529  -0.499  -0.463  -0.422  -0.419  -0.418
 -0.415  -0.408  -0.403  -0.398  -0.385  -0.376  -0.370  -0.360
 -0.352  -0.344  -0.292  -0.266  -0.263  -0.261  -0.247  -0.205
 -- Virtual --
 -0.068  -0.032  -0.011  -0.006  -0.004   0.003   0.008   0.009
  0.016   0.019   0.024   0.029   0.033   0.034   0.034   0.043
  0.046   0.051   0.053   0.055   0.058   0.064   0.069   0.075
  0.085   0.087   0.089   0.097   0.100   0.103   0.107   0.110
  0.111   0.117   0.118   0.124   0.125   0.129   0.131   0.134
  0.135   0.139   0.142   0.145   0.147   0.151   0.153   0.157
  0.162   0.162   0.171   0.176   0.176   0.183   0.183   0.191
  0.194   0.199   0.202   0.207   0.212   0.214   0.216   0.222
  0.227   0.232   0.235   0.240   0.253   0.257   0.261   0.268
  0.269   0.271   0.276   0.279   0.281   0.287   0.299   0.301
  0.311   0.319   0.324   0.336   0.345   0.348   0.352   0.358
  0.367   0.372   0.384   0.394   0.402   0.449   0.451   0.466
  0.497   0.508   0.524   0.525   0.551   0.562   0.568   0.574
  0.585   0.589   0.610   0.619   0.632   0.646   0.654   0.661
  0.663   0.669   0.674   0.687   0.694   0.708   0.717   0.719
  0.723   0.726   0.736   0.743   0.749   0.756   0.770   0.788
  0.793   0.795   0.819   0.824   0.832   0.838   0.855   0.878
  0.901   0.929   0.940   0.943   0.953   0.957   0.960   0.966
  0.969   0.971   0.980   0.983   0.995   1.005   1.011   1.030
  1.036   1.041   1.055   1.068   1.077   1.092   1.101   1.103
  1.105   1.116   1.147   1.154   1.167   1.182   1.198   1.216
  1.242   1.257   1.268   1.291   1.319   1.337   1.346   1.351
  1.353   1.363   1.365   1.384   1.443   1.458   1.473   1.502
  1.511   1.539   1.548   1.568   1.614   1.682   1.688   1.718
  1.742   1.791   1.831   1.866   1.875   1.887   1.895   1.911
  1.917   1.927   1.940   1.962   1.966   2.007   2.021   2.052
  2.065   2.080   2.103   2.127   2.152   2.172   2.182   2.193
  2.216   2.227   2.240   2.257   2.267   2.287   2.327   2.364
  2.366   2.424   2.426   2.453   2.456   2.463   2.467   2.479
  2.505   2.525   2.525   2.533   2.564   2.581   2.590   2.602
  2.632   2.667   2.674   2.705   2.713   2.739   2.785   2.848
  2.874   2.891   2.914   2.942   2.965   3.128   3.178   3.217
  3.271   3.273   3.326   3.413   3.416   3.672   3.731   3.739
  3.953   3.978   4.000   4.256   4.272   4.309   4.316   4.330
  4.355   4.390   4.476   4.549   4.644   4.695   4.731
 --------------------------------------------------------------
 
          Ground-State Mulliken Net Atomic Charges

     Atom                 Charge (a.u.)
  ----------------------------------------
      1 H                     0.196722
      2 H                     0.119520
      3 C                     0.036394
      4 C                    -0.379513
      5 S                    -0.116070
      6 C                     0.509822
      7 H                     0.126731
      8 C                    -0.470646
      9 H                     0.122675
     10 C                    -0.045604
     11 C                    -0.136393
     12 S                    -0.180997
     13 C                     0.158103
     14 H                     0.135374
     15 C                    -0.163600
     16 C                    -0.340428
     17 H                     0.144251
     18 C                     0.343075
     19 S                    -0.005537
     20 C                    -0.392636
     21 C                     0.024052
     22 H                     0.119618
     23 H                     0.195088
  ----------------------------------------
  Sum of atomic charges =     0.000000

 -----------------------------------------------------------------
                    Cartesian Multipole Moments
 -----------------------------------------------------------------
    Charge (ESU x 10^10)
                 0.0000
    Dipole Moment (Debye)
         X      -0.2257      Y      -0.2140      Z      -0.6222
       Tot       0.6956
    Quadrupole Moments (Debye-Ang)
        XX     -89.4446     XY       1.2340     YY    -104.0350
        XZ       1.5602     YZ       3.3276     ZZ    -112.9522
    Octopole Moments (Debye-Ang^2)
       XXX     -20.6983    XXY       6.1051    XYY       1.7234
       YYY     -49.5419    XXZ      -3.3646    XYZ     -14.7586
       YYZ      -5.6998    XZZ     -25.5055    YZZ     -17.3921
       ZZZ     -10.5922
    Hexadecapole Moments (Debye-Ang^3)
      XXXX   -6218.0997   XXXY     134.4197   XXYY   -1282.5523
      XYYY     251.6801   YYYY    -781.6650   XXXZ     122.6224
      XXYZ      24.9351   XYYZ       8.9868   YYYZ     -84.3495
      XXZZ   -1307.3765   XYZZ      66.2993   YYZZ    -195.2333
      XZZZ      88.7211   YZZZ     -91.2384   ZZZZ    -347.2752
 -----------------------------------------------------------------
 Calculating analytic gradient of the SCF energy
 Gradient of SCF Energy
            1           2           3           4           5           6
    1  -0.0000051  -0.0000046  -0.0000746  -0.0000295   0.0000385  -0.0000008
    2   0.0000018   0.0000064  -0.0000218   0.0000138  -0.0000469  -0.0000084
    3  -0.0000055  -0.0000230  -0.0000054  -0.0000011   0.0000132   0.0000035
            7           8           9          10          11          12
    1  -0.0000015   0.0000078  -0.0000189  -0.0001554  -0.0000112   0.0003086
    2   0.0000002  -0.0000350  -0.0000975   0.0000575   0.0000734   0.0004324
    3  -0.0000289   0.0000562   0.0000831   0.0001539  -0.0003135  -0.0001423
           13          14          15          16          17          18
    1  -0.0000546  -0.0000036   0.0004282  -0.0008913  -0.0000994   0.0004827
    2  -0.0001232   0.0000956   0.0003120  -0.0016906  -0.0004263   0.0014993
    3   0.0017607  -0.0004930  -0.0022045   0.0012688   0.0003197  -0.0008463
           19          20          21          22          23
    1  -0.0001230  -0.0000609   0.0002297   0.0000077   0.0000311
    2   0.0001469  -0.0003512   0.0000922   0.0000521   0.0000174
    3   0.0004862   0.0002125  -0.0000892  -0.0001465  -0.0000585
 Max gradient component =       2.205E-03
 RMS gradient           =       5.150E-04
 Gradient time:  CPU 4.66 s  wall 4.60 s
 Geometry Optimization Parameters
   NAtoms,    NIC,     NZ,  NCons,   NDum,   NFix, NCnnct, MaxDiis
       23     166       0       1       0       0       0       0

 Cartesian Hessian Update
 Hessian Updated using BFGS Update


** CONSTRAINED OPTIMIZATION IN DELOCALIZED INTERNAL COORDINATES **
   Searching for a Minimum

   Optimization Cycle:   3

                       Coordinates (Angstroms)
     ATOM                X               Y               Z
      1  H         6.2345250105   -0.2637390063    0.1748458031
      2  H         5.3315630524    2.2011204279   -0.1033972866
      3  C         5.2033535945    0.0481347032    0.0816546384
      4  C         4.7061616877    1.3166776787   -0.0626280035
      5  S         3.9362330284   -1.1363008713    0.1102406077
      6  C         3.2857098838    1.3453429996   -0.1665873670
      7  H         2.7123880308    2.2548080489   -0.3082823990
      8  C         2.7027568005    0.0957639257   -0.0979623503
      9  H         1.3131542998   -2.3642612547   -0.7083094382
     10  C         1.2987652397   -0.2609176707   -0.1758108786
     11  C         0.7274937894   -1.4815932635   -0.4757971687
     12  S         0.0512581769    0.9337149187    0.1306732227
     13  C        -0.6917914752   -1.4689716965   -0.4493248097
     14  H        -1.3066487905   -2.3410226009   -0.6404735600
     15  C        -1.2285428604   -0.2349452283   -0.1496586907
     16  C        -2.6348042126    0.1261606780   -0.0595768142
     17  H        -3.5045162899   -0.9420947047   -1.7283249650
     18  C        -3.6637543105   -0.2863355957   -0.8800879948
     19  S        -3.2449814382    1.2040340471    1.1856328246
     20  C        -4.9324414708    0.2482523630   -0.5117739992
     21  C        -4.8629580002    1.0803346385    0.5751547213
     22  H        -5.8528354812    0.0396921410   -1.0455095690
     23  H        -5.6636840449    1.6278109023    1.0532722669
   Point Group: c1    Number of degrees of freedom:    63


   Energy is  -1656.663040974

              Constraints and their Current Values
                                        Value     Constraint
   Dihedral:       13  15  16  18      -40.000      -40.000
 Hessian Updated using BFGS Update

 57 Hessian modes will be used to form the next step
  Hessian Eigenvalues:
     0.022876    0.045000    0.045000    0.045000    0.045000    0.045001
     0.045003    0.045005    0.045007    0.045009    0.045013    0.045015
     0.045670    0.050777    0.158847    0.159914    0.159955    0.159960
     0.159993    0.159999    0.160016    0.160194    0.221263    0.222917
     0.226376    0.227416    0.237880    0.240213    0.249940    0.249999
     0.250154    0.257310    0.293657    0.294191    0.294764    0.298798
     0.312573    0.313007    0.354725    0.354743    0.354750    0.354778
     0.355164    0.355217    0.358372    0.358449    0.383155    0.391075
     0.405843    0.407231    0.415641    0.459149    0.462017    0.467565
     0.487123    0.497280    0.497760

 Minimum Search - Taking Simple RFO Step
 Searching for Lamda that Minimizes Along All modes
 Value Taken    Lamda =  -0.00002191
 Step Taken.  Stepsize is  0.027164

                             Maximum     Tolerance    Cnvgd?
         Gradient           0.000415      0.000300      NO
         Displacement       0.009922      0.001200      NO
         Energy change     -0.000092      0.000001      NO


 New Cartesian Coordinates Obtained by Inverse Iteration

 Displacement from previous Coordinates is:  0.048238
 ----------------------------------------------------------------
             Standard Nuclear Orientation (Angstroms)
    I     Atom           X                Y                Z
 ----------------------------------------------------------------
    1      H       6.2356124981    -0.2655694529     0.1703374941
    2      H       5.3334385544     2.1998469545    -0.1055468164
    3      C       5.2044940285     0.0468868969     0.0783875218
    4      C       4.7076575972     1.3156855087    -0.0646810492
    5      S       3.9366107083    -1.1367872682     0.1077206839
    6      C       3.2869922261     1.3450698458    -0.1670127251
    7      H       2.7139933642     2.2549418933    -0.3073569393
    8      C       2.7033766667     0.0957873067    -0.0983637858
    9      H       1.3117899623    -2.3637054922    -0.7060594671
   10      C       1.2989554416    -0.2604561887    -0.1747014589
   11      C       0.7265582762    -1.4807523320    -0.4739335857
   12      S       0.0519365696     0.9339630710     0.1345819559
   13      C      -0.6929803168    -1.4671541653    -0.4464133385
   14      H      -1.3089402584    -2.3400733390    -0.6296214778
   15      C      -1.2286950695    -0.2325165374    -0.1459049793
   16      C      -2.6349308647     0.1281822988    -0.0573711016
   17      H      -3.4974203299    -0.9320824011    -1.7348345119
   18      C      -3.6616227726    -0.2848396200    -0.8810451804
   19      S      -3.2500107545     1.2026457025     1.1872941377
   20      C      -4.9323123601     0.2468303263    -0.5143687477
   21      C      -4.8670839946     1.0760037714     0.5749689548
   22      H      -5.8512007843     0.0385895091    -1.0506458301
   23      H      -5.6698141677     1.6211692917     1.0525390367
 ----------------------------------------------------------------
 Nuclear Repulsion Energy =  1176.0751513239 hartrees
 There are       64 alpha and       64 beta electrons
 Applying Cartesian multipole field
    Component          Value
    ---------          -----
     (2,0,0)        1.00000E-12
     (0,2,0)        2.00000E-11
     (0,0,2)       -3.00000E-11
 Nucleus-field energy     =     0.0000000106 hartrees
 Requested basis set is 6-31++G(d,p)
 There are 110 shells and 345 basis functions
 A cutoff of  1.0D-12 yielded   4674 shell pairs
 There are     47609 function pairs

 Q-Chem warning in module /project/projectdirs/jcesr/qchem/qc44/cnl_qc441/compile/cori/qc_src/libqints/qchem/aobasis.C, line 68:

 Using reconstructed effective core potential

 Smallest overlap matrix eigenvalue = 8.05E-08
 Linear dependence detected in AO basis
 Number of orthogonalized atomic orbitals = 343
 Maximum deviation from orthogonality = 1.619E-10
 Guess MOs from SCF MO coefficient file
 Reading MOs from coefficient file
 Reading MOs from coefficient file
 A restricted hybrid HF-DFT SCF calculation will be
 performed using Pulay DIIS extrapolation
 Exchange:     0.2000 Hartree-Fock + 0.0800 Slater + 0.7200 B88
 Correlation:  0.1900 VWN1RPA + 0.8100 LYP
 Using SG-1 standard quadrature grid
 SCF converges when DIIS error is below 1.0E-08
 Geometry optimization detected.  Setting ReadMinima to 0
 Setting SaveMinima to 0
 ---------------------------------------
  Cycle       Energy         DIIS Error
 ---------------------------------------
    1   -1656.6625681166      1.03E-04
    2   -1656.6630425126      2.57E-05
    3   -1656.6630055290      5.39E-05
    4   -1656.6630538855      5.47E-06
    5   -1656.6630543106      2.01E-06
    6   -1656.6630543683      7.43E-07
    7   -1656.6630543741      2.40E-07
    8   -1656.6630543757      1.12E-07
    9   -1656.6630543776      2.93E-08
   10   -1656.6630543779      7.45E-09 Convergence criterion met
 ---------------------------------------
 SCF time:  CPU 11.01 s  wall 10.21 s
 SCF   energy in the final basis set = -1656.6630543779
 Total energy in the final basis set = -1656.6630543779
 
 --------------------------------------------------------------
 
                    Orbital Energies (a.u.)
 --------------------------------------------------------------
 
 Alpha MOs
 -- Occupied --
-88.921 -88.921 -88.921 -10.241 -10.240 -10.240 -10.239 -10.226
-10.226 -10.206 -10.206 -10.206 -10.206 -10.205 -10.205  -7.981
 -7.980  -7.980  -5.945  -5.945  -5.945  -5.941  -5.941  -5.941
 -5.938  -5.937  -5.937  -0.906  -0.892  -0.876  -0.787  -0.755
 -0.745  -0.744  -0.734  -0.697  -0.617  -0.595  -0.568  -0.564
 -0.537  -0.533  -0.529  -0.499  -0.463  -0.422  -0.419  -0.418
 -0.415  -0.408  -0.403  -0.398  -0.385  -0.376  -0.370  -0.360
 -0.352  -0.344  -0.292  -0.266  -0.263  -0.261  -0.247  -0.205
 -- Virtual --
 -0.068  -0.032  -0.010  -0.006  -0.004   0.003   0.008   0.009
  0.016   0.019   0.024   0.029   0.033   0.034   0.034   0.043
  0.046   0.051   0.053   0.055   0.058   0.064   0.069   0.075
  0.085   0.087   0.089   0.097   0.100   0.103   0.107   0.110
  0.111   0.117   0.118   0.123   0.125   0.129   0.131   0.134
  0.135   0.139   0.142   0.145   0.147   0.151   0.153   0.157
  0.161   0.162   0.171   0.176   0.176   0.183   0.183   0.191
  0.194   0.199   0.202   0.207   0.212   0.214   0.216   0.222
  0.227   0.232   0.236   0.240   0.252   0.257   0.261   0.268
  0.270   0.271   0.276   0.279   0.281   0.287   0.299   0.301
  0.311   0.318   0.324   0.336   0.345   0.348   0.352   0.358
  0.367   0.372   0.384   0.394   0.402   0.449   0.451   0.466
  0.497   0.508   0.524   0.525   0.551   0.562   0.568   0.574
  0.585   0.590   0.610   0.619   0.632   0.646   0.654   0.661
  0.663   0.668   0.673   0.687   0.694   0.708   0.717   0.719
  0.723   0.726   0.737   0.742   0.749   0.756   0.770   0.788
  0.793   0.795   0.819   0.824   0.832   0.838   0.855   0.878
  0.901   0.929   0.941   0.943   0.953   0.957   0.960   0.966
  0.970   0.971   0.980   0.983   0.995   1.005   1.011   1.030
  1.036   1.041   1.056   1.068   1.077   1.092   1.101   1.103
  1.105   1.116   1.147   1.154   1.167   1.182   1.198   1.216
  1.241   1.257   1.268   1.291   1.319   1.336   1.345   1.351
  1.354   1.364   1.365   1.385   1.443   1.459   1.474   1.501
  1.510   1.538   1.549   1.568   1.613   1.682   1.688   1.718
  1.743   1.791   1.831   1.867   1.875   1.887   1.894   1.910
  1.917   1.927   1.940   1.961   1.966   2.007   2.020   2.052
  2.065   2.080   2.103   2.127   2.152   2.172   2.182   2.194
  2.216   2.227   2.240   2.257   2.266   2.288   2.327   2.364
  2.366   2.424   2.426   2.452   2.456   2.464   2.466   2.479
  2.505   2.525   2.525   2.533   2.564   2.581   2.590   2.602
  2.632   2.667   2.674   2.705   2.713   2.739   2.786   2.847
  2.874   2.890   2.913   2.942   2.964   3.128   3.177   3.217
  3.271   3.273   3.326   3.413   3.416   3.672   3.731   3.739
  3.953   3.978   4.000   4.256   4.272   4.309   4.316   4.330
  4.355   4.390   4.476   4.549   4.644   4.695   4.730
 --------------------------------------------------------------
 
          Ground-State Mulliken Net Atomic Charges

     Atom                 Charge (a.u.)
  ----------------------------------------
      1 H                     0.196779
      2 H                     0.119527
      3 C                     0.036766
      4 C                    -0.380262
      5 S                    -0.116488
      6 C                     0.510460
      7 H                     0.126819
      8 C                    -0.469699
      9 H                     0.122608
     10 C                    -0.044836
     11 C                    -0.142688
     12 S                    -0.178130
     13 C                     0.160968
     14 H                     0.135978
     15 C                    -0.165049
     16 C                    -0.342068
     17 H                     0.144853
     18 C                     0.344566
     19 S                    -0.004511
     20 C                    -0.394921
     21 C                     0.024589
     22 H                     0.119661
     23 H                     0.195081
  ----------------------------------------
  Sum of atomic charges =     0.000000

 -----------------------------------------------------------------
                    Cartesian Multipole Moments
 -----------------------------------------------------------------
    Charge (ESU x 10^10)
                 0.0000
    Dipole Moment (Debye)
         X      -0.2228      Y      -0.2088      Z      -0.6218
       Tot       0.6928
    Quadrupole Moments (Debye-Ang)
        XX     -89.4270     XY       1.2106     YY    -104.0649
        XZ       1.5571     YZ       3.2959     ZZ    -112.9446
    Octopole Moments (Debye-Ang^2)
       XXX     -20.5375    XXY       6.2361    XYY       1.8818
       YYY     -49.5065    XXZ      -3.4856    XYZ     -14.6645
       YYZ      -5.6805    XZZ     -25.5336    YZZ     -17.3451
       ZZZ     -10.7981
    Hexadecapole Moments (Debye-Ang^3)
      XXXX   -6220.8496   XXXY     133.6941   XXYY   -1283.7095
      XYYY     251.8211   YYYY    -780.6862   XXXZ     122.9873
      XXYZ      24.7444   XYYZ       9.3413   YYYZ     -84.4868
      XXZZ   -1308.0127   XYZZ      66.3038   YYZZ    -195.2662
      XZZZ      90.3110   YZZZ     -91.1708   ZZZZ    -347.5020
 -----------------------------------------------------------------
 Calculating analytic gradient of the SCF energy
 Gradient of SCF Energy
            1           2           3           4           5           6
    1   0.0000074   0.0000045   0.0000129   0.0000336   0.0000034  -0.0000143
    2   0.0000053  -0.0000062  -0.0000105  -0.0000013   0.0000484  -0.0000352
    3   0.0000006  -0.0000160  -0.0000002  -0.0000092  -0.0000003  -0.0000048
            7           8           9          10          11          12
    1  -0.0000008   0.0000607   0.0000014  -0.0001145   0.0001785   0.0001145
    2  -0.0000033  -0.0000300  -0.0000219   0.0000163   0.0000809  -0.0000451
    3  -0.0000181   0.0000499   0.0001279   0.0000747  -0.0002901  -0.0000561
           13          14          15          16          17          18
    1  -0.0001895  -0.0000282   0.0002515  -0.0004510   0.0000105   0.0004072
    2  -0.0001899   0.0000609   0.0007466  -0.0014829  -0.0001447   0.0009626
    3   0.0012489  -0.0001439  -0.0020155   0.0015353   0.0001261  -0.0007013
           19          20          21          22          23
    1  -0.0001375  -0.0001962   0.0000442   0.0000317  -0.0000300
    2   0.0000459  -0.0001738   0.0000128   0.0001204   0.0000445
    3  -0.0000418   0.0002474   0.0000137  -0.0000829  -0.0000444
 Max gradient component =       2.015E-03
 RMS gradient           =       4.356E-04
 Gradient time:  CPU 4.58 s  wall 4.59 s
 Geometry Optimization Parameters
   NAtoms,    NIC,     NZ,  NCons,   NDum,   NFix, NCnnct, MaxDiis
       23     166       0       1       0       0       0       0

 Cartesian Hessian Update
 Hessian Updated using BFGS Update


** CONSTRAINED OPTIMIZATION IN DELOCALIZED INTERNAL COORDINATES **
   Searching for a Minimum

   Optimization Cycle:   4

                       Coordinates (Angstroms)
     ATOM                X               Y               Z
      1  H         6.2356124981   -0.2655694529    0.1703374941
      2  H         5.3334385544    2.1998469545   -0.1055468164
      3  C         5.2044940285    0.0468868969    0.0783875218
      4  C         4.7076575972    1.3156855087   -0.0646810492
      5  S         3.9366107083   -1.1367872682    0.1077206839
      6  C         3.2869922261    1.3450698458   -0.1670127251
      7  H         2.7139933642    2.2549418933   -0.3073569393
      8  C         2.7033766667    0.0957873067   -0.0983637858
      9  H         1.3117899623   -2.3637054922   -0.7060594671
     10  C         1.2989554416   -0.2604561887   -0.1747014589
     11  C         0.7265582762   -1.4807523320   -0.4739335857
     12  S         0.0519365696    0.9339630710    0.1345819559
     13  C        -0.6929803168   -1.4671541653   -0.4464133385
     14  H        -1.3089402584   -2.3400733390   -0.6296214778
     15  C        -1.2286950695   -0.2325165374   -0.1459049793
     16  C        -2.6349308647    0.1281822988   -0.0573711016
     17  H        -3.4974203299   -0.9320824011   -1.7348345119
     18  C        -3.6616227726   -0.2848396200   -0.8810451804
     19  S        -3.2500107545    1.2026457025    1.1872941377
     20  C        -4.9323123601    0.2468303263   -0.5143687477
     21  C        -4.8670839946    1.0760037714    0.5749689548
     22  H        -5.8512007843    0.0385895091   -1.0506458301
     23  H        -5.6698141677    1.6211692917    1.0525390367
   Point Group: c1    Number of degrees of freedom:    63


   Energy is  -1656.663054378

              Constraints and their Current Values
                                        Value     Constraint
   Dihedral:       13  15  16  18      -40.000      -40.000
 Hessian Updated using BFGS Update

 60 Hessian modes will be used to form the next step
  Hessian Eigenvalues:
     0.017714    0.043485    0.045000    0.045000    0.045000    0.045000
     0.045000    0.045000    0.045000    0.045001    0.045002    0.045003
     0.045006    0.045012    0.045015    0.045131    0.049497    0.159583
     0.159916    0.159925    0.159959    0.159966    0.159996    0.160011
     0.160448    0.221290    0.222609    0.227273    0.229602    0.237895
     0.241404    0.249798    0.249999    0.250228    0.268576    0.293488
     0.293953    0.295045    0.295382    0.312566    0.313356    0.354730
     0.354742    0.354750    0.354822    0.355164    0.355326    0.358372
     0.358614    0.384198    0.387447    0.405843    0.409204    0.426762
     0.458937    0.462070    0.464051    0.485117    0.497235    0.497534

 Minimum Search - Taking Simple RFO Step
 Searching for Lamda that Minimizes Along All modes
 Value Taken    Lamda =  -0.00000519
 Step Taken.  Stepsize is  0.013702

                             Maximum     Tolerance    Cnvgd?
         Gradient           0.000283      0.000300     YES
         Displacement       0.005446      0.001200      NO
         Energy change     -0.000013      0.000001      NO


 New Cartesian Coordinates Obtained by Inverse Iteration

 Displacement from previous Coordinates is:  0.025798
 ----------------------------------------------------------------
             Standard Nuclear Orientation (Angstroms)
    I     Atom           X                Y                Z
 ----------------------------------------------------------------
    1      H       6.2353166944    -0.2643488099     0.1683236552
    2      H       5.3318407098     2.2006607930    -0.1074231113
    3      C       5.2040130218     0.0476380403     0.0769550499
    4      C       4.7065136893     1.3162001190    -0.0660353410
    5      S       3.9367691872    -1.1367196966     0.1073745627
    6      C       3.2858211239     1.3449388755    -0.1674627936
    7      H       2.7122940871     2.2545251830    -0.3074989106
    8      C       2.7029255829     0.0953486923    -0.0981482456
    9      H       1.3115201854    -2.3649029501    -0.7042470591
   10      C       1.2987230120    -0.2615446459    -0.1732517482
   11      C       0.7262774903    -1.4821013384    -0.4715550454
   12      S       0.0517589093     0.9327082011     0.1370816474
   13      C      -0.6930869543    -1.4683336264    -0.4448447666
   14      H      -1.3089950466    -2.3418936245    -0.6251733781
   15      C      -1.2286038960    -0.2334362411    -0.1440946582
   16      C      -2.6343420048     0.1282736932    -0.0573204876
   17      H      -3.4953683286    -0.9262614687    -1.7395762883
   18      C      -3.6604961061    -0.2831684522    -0.8828199964
   19      S      -3.2498347826     1.2002407149     1.1888663214
   20      C      -4.9309971251     0.2486496316    -0.5164973454
   21      C      -4.8664855520     1.0751573453     0.5749689114
   22      H      -5.8497435511     0.0410117923    -1.0532648430
   23      H      -5.6694161263     1.6190233522     1.0536126602
 ----------------------------------------------------------------
 Nuclear Repulsion Energy =  1176.1584711781 hartrees
 There are       64 alpha and       64 beta electrons
 Applying Cartesian multipole field
    Component          Value
    ---------          -----
     (2,0,0)        1.00000E-12
     (0,2,0)        2.00000E-11
     (0,0,2)       -3.00000E-11
 Nucleus-field energy     =     0.0000000106 hartrees
 Requested basis set is 6-31++G(d,p)
 There are 110 shells and 345 basis functions
 A cutoff of  1.0D-12 yielded   4674 shell pairs
 There are     47609 function pairs

 Q-Chem warning in module /project/projectdirs/jcesr/qchem/qc44/cnl_qc441/compile/cori/qc_src/libqints/qchem/aobasis.C, line 68:

 Using reconstructed effective core potential

 Smallest overlap matrix eigenvalue = 8.05E-08
 Linear dependence detected in AO basis
 Number of orthogonalized atomic orbitals = 343
 Maximum deviation from orthogonality = 1.367E-10
 Guess MOs from SCF MO coefficient file
 Reading MOs from coefficient file
 Reading MOs from coefficient file
 A restricted hybrid HF-DFT SCF calculation will be
 performed using Pulay DIIS extrapolation
 Exchange:     0.2000 Hartree-Fock + 0.0800 Slater + 0.7200 B88
 Correlation:  0.1900 VWN1RPA + 0.8100 LYP
 Using SG-1 standard quadrature grid
 SCF converges when DIIS error is below 1.0E-08
 Geometry optimization detected.  Setting ReadMinima to 0
 Setting SaveMinima to 0
 ---------------------------------------
  Cycle       Energy         DIIS Error
 ---------------------------------------
    1   -1656.6629904439      6.42E-05
    2   -1656.6630557070      9.49E-06
    3   -1656.6630508031      1.94E-05
    4   -1656.6630574148      2.02E-06
    5   -1656.6630574681      9.51E-07
    6   -1656.6630574804      4.24E-07
    7   -1656.6630574817      1.57E-07
    8   -1656.6630574793      4.75E-08
    9   -1656.6630574816      1.65E-08
   10   -1656.6630574820      4.15E-09 Convergence criterion met
 ---------------------------------------
 SCF time:  CPU 11.03 s  wall 10.08 s
 SCF   energy in the final basis set = -1656.6630574820
 Total energy in the final basis set = -1656.6630574820
 
 --------------------------------------------------------------
 
                    Orbital Energies (a.u.)
 --------------------------------------------------------------
 
 Alpha MOs
 -- Occupied --
-88.921 -88.921 -88.921 -10.241 -10.240 -10.240 -10.239 -10.226
-10.226 -10.206 -10.206 -10.206 -10.206 -10.205 -10.205  -7.981
 -7.980  -7.980  -5.945  -5.945  -5.944  -5.941  -5.941  -5.941
 -5.938  -5.937  -5.937  -0.906  -0.892  -0.876  -0.787  -0.755
 -0.745  -0.744  -0.734  -0.697  -0.617  -0.595  -0.568  -0.564
 -0.537  -0.533  -0.529  -0.499  -0.463  -0.422  -0.419  -0.418
 -0.415  -0.408  -0.403  -0.398  -0.385  -0.376  -0.370  -0.360
 -0.352  -0.344  -0.291  -0.266  -0.263  -0.261  -0.247  -0.205
 -- Virtual --
 -0.068  -0.032  -0.010  -0.006  -0.004   0.003   0.008   0.009
  0.016   0.019   0.024   0.029   0.033   0.034   0.034   0.043
  0.046   0.051   0.053   0.055   0.058   0.064   0.069   0.075
  0.085   0.087   0.089   0.097   0.100   0.103   0.107   0.110
  0.111   0.117   0.118   0.123   0.126   0.129   0.131   0.134
  0.135   0.139   0.142   0.145   0.147   0.151   0.153   0.157
  0.161   0.162   0.171   0.176   0.176   0.183   0.183   0.191
  0.194   0.199   0.202   0.208   0.212   0.214   0.216   0.222
  0.227   0.232   0.236   0.240   0.252   0.257   0.261   0.268
  0.269   0.271   0.277   0.279   0.281   0.287   0.299   0.301
  0.311   0.318   0.324   0.336   0.345   0.348   0.352   0.358
  0.367   0.372   0.384   0.394   0.402   0.449   0.451   0.466
  0.497   0.508   0.524   0.525   0.551   0.562   0.568   0.574
  0.585   0.590   0.610   0.619   0.632   0.646   0.654   0.661
  0.663   0.668   0.674   0.687   0.694   0.708   0.717   0.719
  0.723   0.726   0.737   0.742   0.749   0.757   0.770   0.788
  0.793   0.795   0.819   0.824   0.832   0.838   0.855   0.878
  0.901   0.929   0.941   0.943   0.953   0.957   0.960   0.966
  0.970   0.971   0.980   0.984   0.995   1.005   1.011   1.030
  1.036   1.041   1.056   1.068   1.077   1.092   1.101   1.103
  1.105   1.116   1.147   1.154   1.167   1.182   1.198   1.216
  1.241   1.257   1.268   1.291   1.318   1.336   1.345   1.350
  1.354   1.364   1.365   1.385   1.443   1.460   1.474   1.501
  1.510   1.538   1.549   1.568   1.613   1.682   1.688   1.718
  1.743   1.791   1.832   1.866   1.875   1.888   1.894   1.910
  1.917   1.927   1.940   1.961   1.966   2.008   2.020   2.052
  2.065   2.080   2.103   2.127   2.152   2.172   2.182   2.194
  2.216   2.227   2.241   2.256   2.266   2.288   2.327   2.364
  2.366   2.424   2.426   2.452   2.456   2.464   2.466   2.479
  2.505   2.524   2.526   2.533   2.564   2.581   2.590   2.602
  2.632   2.667   2.674   2.705   2.713   2.739   2.786   2.848
  2.874   2.891   2.914   2.942   2.964   3.128   3.177   3.217
  3.271   3.273   3.326   3.413   3.416   3.672   3.731   3.739
  3.953   3.978   4.000   4.256   4.272   4.309   4.316   4.330
  4.355   4.390   4.476   4.549   4.644   4.695   4.730
 --------------------------------------------------------------
 
          Ground-State Mulliken Net Atomic Charges

     Atom                 Charge (a.u.)
  ----------------------------------------
      1 H                     0.196760
      2 H                     0.119528
      3 C                     0.036560
      4 C                    -0.380324
      5 S                    -0.116472
      6 C                     0.511484
      7 H                     0.126883
      8 C                    -0.469280
      9 H                     0.122605
     10 C                    -0.044720
     11 C                    -0.144669
     12 S                    -0.177966
     13 C                     0.162743
     14 H                     0.136168
     15 C                    -0.167228
     16 C                    -0.343354
     17 H                     0.145071
     18 C                     0.346780
     19 S                    -0.004601
     20 C                    -0.395226
     21 C                     0.024576
     22 H                     0.119675
     23 H                     0.195009
  ----------------------------------------
  Sum of atomic charges =     0.000000

 -----------------------------------------------------------------
                    Cartesian Multipole Moments
 -----------------------------------------------------------------
    Charge (ESU x 10^10)
                 0.0000
    Dipole Moment (Debye)
         X      -0.2226      Y      -0.2069      Z      -0.6215
       Tot       0.6918
    Quadrupole Moments (Debye-Ang)
        XX     -89.4462     XY       1.2070     YY    -104.0734
        XZ       1.5494     YZ       3.2852     ZZ    -112.9281
    Octopole Moments (Debye-Ang^2)
       XXX     -20.5168    XXY       6.2924    XYY       1.9438
       YYY     -49.3889    XXZ      -3.5684    XYZ     -14.6353
       YYZ      -5.7032    XZZ     -25.6063    YZZ     -17.2738
       ZZZ     -10.9649
    Hexadecapole Moments (Debye-Ang^3)
      XXXX   -6219.6870   XXXY     133.6439   XXYY   -1283.6779
      XYYY     251.8001   YYYY    -780.2379   XXXZ     122.7871
      XXYZ      24.6531   XYYZ       9.3413   YYYZ     -84.4151
      XXZZ   -1307.4093   XYZZ      66.2211   YYZZ    -195.3248
      XZZZ      90.6427   YZZZ     -90.9813   ZZZZ    -347.7961
 -----------------------------------------------------------------
 Calculating analytic gradient of the SCF energy
 Gradient of SCF Energy
            1           2           3           4           5           6
    1  -0.0000022  -0.0000015  -0.0000097  -0.0000049  -0.0000114  -0.0000034
    2  -0.0000007  -0.0000006  -0.0000061   0.0000095  -0.0000095  -0.0000075
    3   0.0000035  -0.0000136  -0.0000037  -0.0000151   0.0000062  -0.0000136
            7           8           9          10          11          12
    1   0.0000008   0.0000485  -0.0000026  -0.0000621   0.0000341  -0.0000069
    2   0.0000029   0.0000092  -0.0000161   0.0000084   0.0000195  -0.0000601
    3  -0.0000120   0.0000188   0.0000949  -0.0000078  -0.0001210   0.0000499
           13          14          15          16          17          18
    1  -0.0000467  -0.0000065   0.0001405  -0.0002405   0.0000032   0.0001531
    2  -0.0002838   0.0000053   0.0009150  -0.0012650  -0.0000342   0.0007132
    3   0.0009312  -0.0000018  -0.0018141   0.0015561   0.0000226  -0.0006272
           19          20          21          22          23
    1   0.0000041  -0.0000464   0.0000396   0.0000212  -0.0000003
    2   0.0000500  -0.0001170  -0.0000258   0.0000712   0.0000223
    3  -0.0000709   0.0000812   0.0000075  -0.0000503  -0.0000208
 Max gradient component =       1.814E-03
 RMS gradient           =       3.842E-04
 Gradient time:  CPU 4.58 s  wall 4.59 s
 Geometry Optimization Parameters
   NAtoms,    NIC,     NZ,  NCons,   NDum,   NFix, NCnnct, MaxDiis
       23     166       0       1       0       0       0       0

 Cartesian Hessian Update
 Hessian Updated using BFGS Update


** CONSTRAINED OPTIMIZATION IN DELOCALIZED INTERNAL COORDINATES **
   Searching for a Minimum

   Optimization Cycle:   5

                       Coordinates (Angstroms)
     ATOM                X               Y               Z
      1  H         6.2353166944   -0.2643488099    0.1683236552
      2  H         5.3318407098    2.2006607930   -0.1074231113
      3  C         5.2040130218    0.0476380403    0.0769550499
      4  C         4.7065136893    1.3162001190   -0.0660353410
      5  S         3.9367691872   -1.1367196966    0.1073745627
      6  C         3.2858211239    1.3449388755   -0.1674627936
      7  H         2.7122940871    2.2545251830   -0.3074989106
      8  C         2.7029255829    0.0953486923   -0.0981482456
      9  H         1.3115201854   -2.3649029501   -0.7042470591
     10  C         1.2987230120   -0.2615446459   -0.1732517482
     11  C         0.7262774903   -1.4821013384   -0.4715550454
     12  S         0.0517589093    0.9327082011    0.1370816474
     13  C        -0.6930869543   -1.4683336264   -0.4448447666
     14  H        -1.3089950466   -2.3418936245   -0.6251733781
     15  C        -1.2286038960   -0.2334362411   -0.1440946582
     16  C        -2.6343420048    0.1282736932   -0.0573204876
     17  H        -3.4953683286   -0.9262614687   -1.7395762883
     18  C        -3.6604961061   -0.2831684522   -0.8828199964
     19  S        -3.2498347826    1.2002407149    1.1888663214
     20  C        -4.9309971251    0.2486496316   -0.5164973454
     21  C        -4.8664855520    1.0751573453    0.5749689114
     22  H        -5.8497435511    0.0410117923   -1.0532648430
     23  H        -5.6694161263    1.6190233522    1.0536126602
   Point Group: c1    Number of degrees of freedom:    63


   Energy is  -1656.663057482

              Constraints and their Current Values
                                        Value     Constraint
   Dihedral:       13  15  16  18      -40.000      -40.000
 Hessian Updated using BFGS Update

 59 Hessian modes will be used to form the next step
  Hessian Eigenvalues:
     0.015599    0.036386    0.045000    0.045000    0.045000    0.045000
     0.045001    0.045002    0.045002    0.045003    0.045007    0.045009
     0.045012    0.045015    0.045695    0.051679    0.158856    0.159918
     0.159950    0.159963    0.159982    0.159997    0.160025    0.160363
     0.212899    0.221293    0.223259    0.227643    0.238000    0.241836
     0.249963    0.250034    0.250186    0.272542    0.293594    0.294244
     0.294930    0.299764    0.312590    0.313359    0.354737    0.354750
     0.354770    0.354820    0.355164    0.355321    0.358374    0.358612
     0.384051    0.392160    0.405829    0.409887    0.431933    0.459212
     0.462216    0.468265    0.487973    0.497271    0.501326

 Minimum Search - Taking Simple RFO Step
 Searching for Lamda that Minimizes Along All modes
 Value Taken    Lamda =  -0.00000110
 Step Taken.  Stepsize is  0.006199

                             Maximum     Tolerance    Cnvgd?
         Gradient           0.000096      0.000300     YES
         Displacement       0.002755      0.001200      NO
         Energy change     -0.000003      0.000001      NO


 New Cartesian Coordinates Obtained by Inverse Iteration

 Displacement from previous Coordinates is:  0.011912
 ----------------------------------------------------------------
             Standard Nuclear Orientation (Angstroms)
    I     Atom           X                Y                Z
 ----------------------------------------------------------------
    1      H       6.2355380416    -0.2633453488     0.1681223704
    2      H       5.3311761009     2.2012232519    -0.1084866646
    3      C       5.2041113018     0.0482622869     0.0768248974
    4      C       4.7061419371     1.3165768296    -0.0666082602
    5      S       3.9372300202    -1.1364756988     0.1079418626
    6      C       3.2854094476     1.3448119261    -0.1678244885
[...]
    4   -1656.6630581510      8.97E-07
    5   -1656.6630581598      5.10E-07
    6   -1656.6630581652      1.89E-07
    7   -1656.6630581651      8.24E-08
    8   -1656.6630581658      2.45E-08
    9   -1656.6630581661      7.07E-09 Convergence criterion met
 ---------------------------------------
 SCF time:  CPU 9.98 s  wall 9.12 s
 SCF   energy in the final basis set = -1656.6630581661
 Total energy in the final basis set = -1656.6630581661
 
 --------------------------------------------------------------
 
                    Orbital Energies (a.u.)
 --------------------------------------------------------------
 
 Alpha MOs
 -- Occupied --
-88.921 -88.921 -88.921 -10.241 -10.240 -10.240 -10.239 -10.226
-10.226 -10.206 -10.206 -10.206 -10.206 -10.205 -10.205  -7.980
 -7.980  -7.980  -5.945  -5.945  -5.944  -5.941  -5.941  -5.941
 -5.938  -5.937  -5.937  -0.906  -0.892  -0.876  -0.787  -0.755
 -0.745  -0.744  -0.734  -0.697  -0.617  -0.595  -0.568  -0.564
 -0.537  -0.533  -0.529  -0.499  -0.463  -0.422  -0.419  -0.418
 -0.415  -0.408  -0.403  -0.398  -0.385  -0.376  -0.370  -0.360
 -0.352  -0.344  -0.291  -0.266  -0.263  -0.261  -0.247  -0.205
 -- Virtual --
 -0.068  -0.032  -0.010  -0.006  -0.004   0.003   0.008   0.009
  0.016   0.019   0.024   0.029   0.033   0.034   0.034   0.043
  0.046   0.051   0.053   0.055   0.058   0.064   0.069   0.075
  0.085   0.087   0.089   0.097   0.100   0.103   0.107   0.110
  0.111   0.117   0.118   0.123   0.126   0.129   0.131   0.134
  0.135   0.139   0.142   0.145   0.147   0.151   0.153   0.157
  0.161   0.162   0.171   0.176   0.176   0.183   0.183   0.191
  0.194   0.199   0.202   0.208   0.212   0.214   0.216   0.222
  0.227   0.232   0.236   0.240   0.252   0.257   0.261   0.268
  0.269   0.271   0.277   0.279   0.281   0.287   0.299   0.301
  0.311   0.318   0.324   0.336   0.345   0.348   0.352   0.358
  0.367   0.372   0.384   0.394   0.402   0.449   0.451   0.466
  0.497   0.508   0.524   0.525   0.551   0.562   0.568   0.574
  0.585   0.590   0.610   0.619   0.632   0.646   0.654   0.661
  0.663   0.668   0.674   0.687   0.694   0.708   0.717   0.719
  0.724   0.726   0.737   0.743   0.749   0.757   0.770   0.788
  0.793   0.795   0.819   0.824   0.832   0.838   0.855   0.878
  0.901   0.929   0.941   0.943   0.953   0.956   0.960   0.966
  0.970   0.971   0.980   0.984   0.995   1.005   1.011   1.030
  1.036   1.041   1.056   1.068   1.077   1.092   1.101   1.103
  1.105   1.116   1.147   1.154   1.167   1.182   1.198   1.216
  1.241   1.257   1.268   1.291   1.319   1.336   1.345   1.350
  1.354   1.364   1.365   1.385   1.443   1.460   1.474   1.501
  1.510   1.538   1.549   1.568   1.613   1.682   1.688   1.718
  1.744   1.791   1.832   1.866   1.875   1.888   1.894   1.910
  1.917   1.927   1.939   1.961   1.966   2.008   2.020   2.052
  2.065   2.080   2.103   2.127   2.152   2.172   2.182   2.194
  2.216   2.227   2.241   2.256   2.266   2.288   2.327   2.364
  2.366   2.424   2.426   2.452   2.456   2.464   2.466   2.479
  2.505   2.524   2.526   2.533   2.564   2.581   2.590   2.602
  2.632   2.666   2.674   2.705   2.713   2.739   2.786   2.848
  2.874   2.891   2.914   2.942   2.965   3.128   3.177   3.217
  3.271   3.273   3.326   3.413   3.416   3.672   3.731   3.739
  3.953   3.978   4.000   4.256   4.272   4.309   4.316   4.330
  4.355   4.390   4.476   4.549   4.644   4.695   4.730
 --------------------------------------------------------------
 
          Ground-State Mulliken Net Atomic Charges

     Atom                 Charge (a.u.)
  ----------------------------------------
      1 H                     0.196767
      2 H                     0.119532
      3 C                     0.036646
      4 C                    -0.380585
      5 S                    -0.116435
      6 C                     0.512126
      7 H                     0.126913
      8 C                    -0.469280
      9 H                     0.122642
     10 C                    -0.044899
     11 C                    -0.144500
     12 S                    -0.178193
     13 C                     0.163144
     14 H                     0.136181
     15 C                    -0.168201
     16 C                    -0.344362
     17 H                     0.145103
     18 C                     0.348050
     19 S                    -0.004887
     20 C                    -0.395271
     21 C                     0.024815
     22 H                     0.119685
     23 H                     0.195008
  ----------------------------------------
  Sum of atomic charges =     0.000000

 -----------------------------------------------------------------
                    Cartesian Multipole Moments
 -----------------------------------------------------------------
    Charge (ESU x 10^10)
                 0.0000
    Dipole Moment (Debye)
         X      -0.2227      Y      -0.2072      Z      -0.6222
       Tot       0.6926
    Quadrupole Moments (Debye-Ang)
        XX     -89.4410     XY       1.2107     YY    -104.0808
        XZ       1.5418     YZ       3.2812     ZZ    -112.9210
    Octopole Moments (Debye-Ang^2)
       XXX     -20.5395    XXY       6.3232    XYY       1.9636
       YYY     -49.3197    XXZ      -3.5741    XYZ     -14.6355
       YYZ      -5.7283    XZZ     -25.6390    YZZ     -17.2391
       ZZZ     -11.0389
    Hexadecapole Moments (Debye-Ang^3)
      XXXX   -6219.2773   XXXY     133.7238   XXYY   -1283.8117
      XYYY     251.8144   YYYY    -780.0285   XXXZ     122.4450
      XXYZ      24.6483   XYYZ       9.2723   YYYZ     -84.3021
      XXZZ   -1307.2685   XYZZ      66.1791   YYZZ    -195.3441
      XZZZ      90.5717   YZZZ     -90.8092   ZZZZ    -347.9710
 -----------------------------------------------------------------
 Calculating analytic gradient of the SCF energy
 Gradient of SCF Energy
            1           2           3           4           5           6
    1   0.0000005   0.0000015   0.0000100   0.0000046  -0.0000054  -0.0000053
    2  -0.0000000  -0.0000023   0.0000039  -0.0000056   0.0000069  -0.0000008
    3   0.0000034  -0.0000135  -0.0000021  -0.0000100   0.0000044  -0.0000142
            7           8           9          10          11          12
    1   0.0000009  -0.0000045   0.0000020   0.0000122  -0.0000240  -0.0000377
    2  -0.0000030   0.0000065  -0.0000101  -0.0000041   0.0000040  -0.0000577
    3  -0.0000124  -0.0000005   0.0000501  -0.0000146  -0.0000144   0.0000397
           13          14          15          16          17          18
    1   0.0000199   0.0000029   0.0000737  -0.0001731  -0.0000013   0.0001015
    2  -0.0002592  -0.0000031   0.0008601  -0.0012037  -0.0000031   0.0006610
    3   0.0008344   0.0000290  -0.0016986   0.0014435   0.0000066  -0.0005499
           19          20          21          22          23
    1   0.0000222   0.0000135  -0.0000199   0.0000032   0.0000025
    2   0.0000082  -0.0000373   0.0000045   0.0000270   0.0000078
    3  -0.0000777   0.0000178  -0.0000006  -0.0000149  -0.0000054
 Max gradient component =       1.699E-03
 RMS gradient           =       3.557E-04
 Gradient time:  CPU 4.72 s  wall 4.60 s
 Geometry Optimization Parameters
   NAtoms,    NIC,     NZ,  NCons,   NDum,   NFix, NCnnct, MaxDiis
       23     166       0       1       0       0       0       0

 Cartesian Hessian Update
 Hessian Updated using BFGS Update


** CONSTRAINED OPTIMIZATION IN DELOCALIZED INTERNAL COORDINATES **
   Searching for a Minimum

   Optimization Cycle:   6

                       Coordinates (Angstroms)
     ATOM                X               Y               Z
      1  H         6.2355380416   -0.2633453488    0.1681223704
      2  H         5.3311761009    2.2012232519   -0.1084866646
      3  C         5.2041113018    0.0482622869    0.0768248974
      4  C         4.7061419371    1.3165768296   -0.0666082602
      5  S         3.9372300202   -1.1364756988    0.1079418626
      6  C         3.2854094476    1.3448119261   -0.1678244885
      7  H         2.7115684259    2.2541472714   -0.3081500072
      8  C         2.7028815859    0.0950668958   -0.0978962761
      9  H         1.3117548371   -2.3655351337   -0.7037500767
     10  C         1.2988025850   -0.2622543268   -0.1724921516
     11  C         0.7264235150   -1.4829685770   -0.4703298335
     12  S         0.0515681718    0.9318928092    0.1374535555
     13  C        -0.6929138326   -1.4692716574   -0.4442015586
     14  H        -1.3085994403   -2.3430865958   -0.6240549861
     15  C        -1.2287001508   -0.2344672500   -0.1435163655
     16  C        -2.6342796535    0.1280194351   -0.0577623994
     17  H        -3.4955189177   -0.9238659402   -1.7415932300
     18  C        -3.6605100168   -0.2820979987   -0.8838228385
     19  S        -3.2497219799    1.1986147403    1.1896544583
     20  C        -4.9307793902    0.2501667569   -0.5174076141
     21  C        -4.8663008752    1.0752729374    0.5751190654
     22  H        -5.8497013939    0.0425617726   -1.0539103926
     23  H        -5.6691760991    1.6184171940    1.0546597235
   Point Group: c1    Number of degrees of freedom:    63


   Energy is  -1656.663058166

              Constraints and their Current Values
                                        Value     Constraint
   Dihedral:       13  15  16  18      -40.000      -40.000
 Hessian Updated using BFGS Update

 60 Hessian modes will be used to form the next step
  Hessian Eigenvalues:
     0.014175    0.028638    0.045000    0.045000    0.045000    0.045000
     0.045000    0.045001    0.045002    0.045003    0.045005    0.045009
     0.045012    0.045014    0.045139    0.046215    0.049805    0.159321
     0.159918    0.159950    0.159963    0.159997    0.160021    0.160120
     0.160333    0.213924    0.221463    0.222971    0.227511    0.238147
     0.242287    0.250004    0.250085    0.250759    0.279274    0.293680
     0.294192    0.294756    0.299317    0.312581    0.313361    0.354736
     0.354749    0.354808    0.354914    0.355164    0.355312    0.358382
     0.358611    0.383848    0.391324    0.406298    0.410145    0.431945
     0.459141    0.462409    0.467543    0.488491    0.497409    0.500310

 Minimum Search - Taking Simple RFO Step
 Searching for Lamda that Minimizes Along All modes
 Value Taken    Lamda =   0.00000000
 Step Taken.  Stepsize is  0.003352

                             Maximum     Tolerance    Cnvgd?
         Gradient           0.000052      0.000300     YES
         Displacement       0.001643      0.001200      NO
         Energy change     -0.000001      0.000001     YES

 Final energy is   -1656.66305816613     


 ******************************
 **  OPTIMIZATION CONVERGED  **
 ******************************

                       Coordinates (Angstroms)
     ATOM                X               Y               Z
      1  H         6.2355380416   -0.2633453488    0.1681223704
      2  H         5.3311761009    2.2012232519   -0.1084866646
      3  C         5.2041113018    0.0482622869    0.0768248974
      4  C         4.7061419371    1.3165768296   -0.0666082602
      5  S         3.9372300202   -1.1364756988    0.1079418626
      6  C         3.2854094476    1.3448119261   -0.1678244885
      7  H         2.7115684259    2.2541472714   -0.3081500072
      8  C         2.7028815859    0.0950668958   -0.0978962761
      9  H         1.3117548371   -2.3655351337   -0.7037500767
     10  C         1.2988025850   -0.2622543268   -0.1724921516
     11  C         0.7264235150   -1.4829685770   -0.4703298335
     12  S         0.0515681718    0.9318928092    0.1374535555
     13  C        -0.6929138326   -1.4692716574   -0.4442015586
     14  H        -1.3085994403   -2.3430865958   -0.6240549861
     15  C        -1.2287001508   -0.2344672500   -0.1435163655
     16  C        -2.6342796535    0.1280194351   -0.0577623994
     17  H        -3.4955189177   -0.9238659402   -1.7415932300
     18  C        -3.6605100168   -0.2820979987   -0.8838228385
     19  S        -3.2497219799    1.1986147403    1.1896544583
     20  C        -4.9307793902    0.2501667569   -0.5174076141
     21  C        -4.8663008752    1.0752729374    0.5751190654
     22  H        -5.8497013939    0.0425617726   -1.0539103926
     23  H        -5.6691760991    1.6184171940    1.0546597235

Z-matrix Print:
$molecule
0 1
S 
C  1 1.754322
C  2 1.380749 1 110.193103
H  3 1.084445 2 122.833074 1 179.523600 0
C  3 1.419644 2 113.700323 1 -0.347288 0
H  5 1.083960 3 123.851525 2 -178.144821 0
C  5 1.379210 3 113.643202 2 0.809442 0
C  2 1.450752 1 120.753031 3 -179.994003 0
C  8 1.380613 2 128.954990 1 -19.813128 0
H  9 1.084378 8 122.844498 2 -0.823482 0
C  9 1.424613 8 113.531023 2 -179.566063 0
H  11 1.083984 9 123.787757 8 179.547628 0
C  11 1.370098 9 112.845669 8 0.145007 0
H  13 1.081331 11 128.483062 9 179.518451 0
C  7 1.454099 5 127.701911 3 178.902591 0
C  15 1.379754 7 127.557289 5 -40.000000 0
H  16 1.083909 15 122.450285 7 -2.187251 0
C  16 1.425184 15 113.452833 7 179.493975 0
H  18 1.084137 16 123.829700 15 179.622833 0
C  18 1.370610 16 112.819924 15 0.723905 0
H  20 1.081468 18 128.379528 16 179.121853 0
S  20 1.733838 18 111.667019 16 -0.785680 0
S  13 1.734809 11 111.632047 9 -0.620730 0
$end

 
 --------------------------------------------------------------
 
                    Orbital Energies (a.u.)
 --------------------------------------------------------------
 
 Alpha MOs
 -- Occupied --
-88.921 -88.921 -88.921 -10.241 -10.240 -10.240 -10.239 -10.226
-10.226 -10.206 -10.206 -10.206 -10.206 -10.205 -10.205  -7.980
 -7.980  -7.980  -5.945  -5.945  -5.944  -5.941  -5.941  -5.941
 -5.938  -5.937  -5.937  -0.906  -0.892  -0.876  -0.787  -0.755
 -0.745  -0.744  -0.734  -0.697  -0.617  -0.595  -0.568  -0.564
 -0.537  -0.533  -0.529  -0.499  -0.463  -0.422  -0.419  -0.418
 -0.415  -0.408  -0.403  -0.398  -0.385  -0.376  -0.370  -0.360
 -0.352  -0.344  -0.291  -0.266  -0.263  -0.261  -0.247  -0.205
 -- Virtual --
 -0.068  -0.032  -0.010  -0.006  -0.004   0.003   0.008   0.009
  0.016   0.019   0.024   0.029   0.033   0.034   0.034   0.043
  0.046   0.051   0.053   0.055   0.058   0.064   0.069   0.075
  0.085   0.087   0.089   0.097   0.100   0.103   0.107   0.110
  0.111   0.117   0.118   0.123   0.126   0.129   0.131   0.134
  0.135   0.139   0.142   0.145   0.147   0.151   0.153   0.157
  0.161   0.162   0.171   0.176   0.176   0.183   0.183   0.191
  0.194   0.199   0.202   0.208   0.212   0.214   0.216   0.222
  0.227   0.232   0.236   0.240   0.252   0.257   0.261   0.268
  0.269   0.271   0.277   0.279   0.281   0.287   0.299   0.301
  0.311   0.318   0.324   0.336   0.345   0.348   0.352   0.358
  0.367   0.372   0.384   0.394   0.402   0.449   0.451   0.466
  0.497   0.508   0.524   0.525   0.551   0.562   0.568   0.574
  0.585   0.590   0.610   0.619   0.632   0.646   0.654   0.661
  0.663   0.668   0.674   0.687   0.694   0.708   0.717   0.719
  0.724   0.726   0.737   0.743   0.749   0.757   0.770   0.788
  0.793   0.795   0.819   0.824   0.832   0.838   0.855   0.878
  0.901   0.929   0.941   0.943   0.953   0.956   0.960   0.966
  0.970   0.971   0.980   0.984   0.995   1.005   1.011   1.030
  1.036   1.041   1.056   1.068   1.077   1.092   1.101   1.103
  1.105   1.116   1.147   1.154   1.167   1.182   1.198   1.216
  1.241   1.257   1.268   1.291   1.319   1.336   1.345   1.350
  1.354   1.364   1.365   1.385   1.443   1.460   1.474   1.501
  1.510   1.538   1.549   1.568   1.613   1.682   1.688   1.718
  1.744   1.791   1.832   1.866   1.875   1.888   1.894   1.910
  1.917   1.927   1.939   1.961   1.966   2.008   2.020   2.052
  2.065   2.080   2.103   2.127   2.152   2.172   2.182   2.194
  2.216   2.227   2.241   2.256   2.266   2.288   2.327   2.364
  2.366   2.424   2.426   2.452   2.456   2.464   2.466   2.479
  2.505   2.524   2.526   2.533   2.564   2.581   2.590   2.602
  2.632   2.666   2.674   2.705   2.713   2.739   2.786   2.848
  2.874   2.891   2.914   2.942   2.965   3.128   3.177   3.217
  3.271   3.273   3.326   3.413   3.416   3.672   3.731   3.739
  3.953   3.978   4.000   4.256   4.272   4.309   4.316   4.330
  4.355   4.390   4.476   4.549   4.644   4.695   4.730
 --------------------------------------------------------------
 
          Ground-State Mulliken Net Atomic Charges

     Atom                 Charge (a.u.)
  ----------------------------------------
      1 H                     0.196767
      2 H                     0.119532
      3 C                     0.036646
      4 C                    -0.380585
      5 S                    -0.116435
      6 C                     0.512126
      7 H                     0.126913
      8 C                    -0.469280
      9 H                     0.122642
     10 C                    -0.044899
     11 C                    -0.144500
     12 S                    -0.178193
     13 C                     0.163144
     14 H                     0.136181
     15 C                    -0.168201
     16 C                    -0.344362
     17 H                     0.145103
     18 C                     0.348050
     19 S                    -0.004887
     20 C                    -0.395271
     21 C                     0.024815
     22 H                     0.119685
     23 H                     0.195008
  ----------------------------------------
  Sum of atomic charges =     0.000000

 -----------------------------------------------------------------
                    Cartesian Multipole Moments
 -----------------------------------------------------------------
    Charge (ESU x 10^10)
                 0.0000
    Dipole Moment (Debye)
         X      -0.2227      Y      -0.2072      Z      -0.6222
       Tot       0.6926
    Quadrupole Moments (Debye-Ang)
        XX     -89.4410     XY       1.2107     YY    -104.0808
        XZ       1.5418     YZ       3.2812     ZZ    -112.9210
    Octopole Moments (Debye-Ang^2)
       XXX     -20.5395    XXY       6.3232    XYY       1.9636
       YYY     -49.3197    XXZ      -3.5741    XYZ     -14.6355
       YYZ      -5.7283    XZZ     -25.6390    YZZ     -17.2391
       ZZZ     -11.0389
    Hexadecapole Moments (Debye-Ang^3)
      XXXX   -6219.2773   XXXY     133.7238   XXYY   -1283.8117
      XYYY     251.8144   YYYY    -780.0285   XXXZ     122.4450
      XXYZ      24.6483   XYYZ       9.2723   YYYZ     -84.3021
      XXZZ   -1307.2685   XYZZ      66.1791   YYZZ    -195.3441
      XZZZ      90.5717   YZZZ     -90.8092   ZZZZ    -347.9710
 -----------------------------------------------------------------
Archival summary:
1\1\nid00571\OPT\ProcedureUnspecified\BasisUnspecified\3128\bwood\TueMay3010:54:242017TueMay3010:54:242017\0\\#,OPT,ProcedureUnspecified,BasisUnspecified,\\0,1\S\C,1,1.75432\C,2,1.38075,1,110.193\H,3,1.08445,2,122.833,1,179.524,0\C,3,1.41964,2,113.7,1,-0.347288,0\H,5,1.08396,3,123.852,2,-178.145,0\C,5,1.37921,3,113.643,2,0.809442,0\C,2,1.45075,1,120.753,3,-179.994,0\C,8,1.38061,2,128.955,1,-19.8131,0\H,9,1.08438,8,122.844,2,-0.823482,0\C,9,1.42461,8,113.531,2,-179.566,0\H,11,1.08398,9,123.788,8,179.548,0\C,11,1.3701,9,112.846,8,0.145007,0\H,13,1.08133,11,128.483,9,179.518,0\C,7,1.4541,5,127.702,3,178.903,0\C,15,1.37975,7,127.557,5,-40,0\H,16,1.08391,15,122.45,7,-2.18725,0\C,16,1.42518,15,113.453,7,179.494,0\H,18,1.08414,16,123.83,15,179.623,0\C,18,1.37061,16,112.82,15,0.723905,0\H,20,1.08147,18,128.38,16,179.122,0\S,20,1.73384,18,111.667,16,-0.78568,0\S,13,1.73481,11,111.632,9,-0.62073,0\\\@

 Total job time:  99.02s(wall), 105.24s(cpu) 
 Tue May 30 10:54:24 2017

        *************************************************************
        *                                                           *
        *  Thank you very much for using Q-Chem.  Have a nice day.  *
        *                                                           *
        *************************************************************


0 sent ACK to 0 
now end server 0 ... 
