srun -N 1 --ntasks-per-node 22 --cpus-per-task 2 --cpu_bind=cores --nodelist nid00506 /global/project/projectdirs/jcesr/qchem/qc44/cnl_qc441/dist/exe/qcprog.cori.haswell.exe .pt_nn_neutral_40.0.in.37196.qcin.1 /dev/shm/eg_qchem/qchem37196/
Process 1 of 22 is on nid00506 - thread support 0
Process 2 of 22 is on nid00506 - thread support 0
Process 3 of 22 is on nid00506 - thread support 0
Process 4 of 22 is on nid00506 - thread support 0
Process 5 of 22 is on nid00506 - thread support 0
Process 6 of 22 is on nid00506 - thread support 0
Process 0 of 22 is on nid00506 - thread support 0
initial socket setup ...start
Process 21 of 22 is on nid00506 - thread support 0
initial socket setup ...done 
now start server 0 ... 
nid00506 10.128.1
Q-Chem Developer Version! Running on 10.128.1.*
                  Welcome to Q-Chem
     A Quantum Leap Into The Future Of Chemistry


 Q-Chem 4.4, Q-Chem, Inc., Pleasanton, CA (2016)

 Y. Shao,  Z. Gan,  E. Epifanovsky,  A. T. B. Gilbert,  M. Wormit,  
 J. Kussmann,  A. W. Lange,  A. Behn,  J. Deng,  X. Feng,  D. Ghosh,  
 M. Goldey,  P. R. Horn,  L. D. Jacobson,  I. Kaliman,  F. Rob,  
 R. Z. Khaliullin,  T. Kus,  A. Landau,  J. Liu,  E. I. Proynov,  Y. M. Rhee,  
 R. M. Richard,  M. A. Rohrdanz,  R. P. Steele,  E. J. Sundstrom,  
 H. L. Woodcock III,  P. M. Zimmerman,  D. Zuev,  B. Albrecht,  E. Alguire,  
 B. Austin,  S. A. Baeppler,  G. J. O. Beran,  Y. A. Bernard,  
 E. J. Berquist,  K. Brandhorst,  K. B. Bravaya,  S. T. Brown,  D. Casanova,  
 C.-M. Chang,  Y. Chen,  S. H. Chien,  K. D. Closser,  M. P. Coons,  
 D. L. Crittenden,  S. Dasgupta,  M. Diedenhofen,  R. A. DiStasio Jr.,  
 H. Do,  A. D. Dutoi,  R. G. Edgar,  P.-T. Fang,  S. Fatehi,  Q. Feng,  
 L. Fusti-Molnar,  A. Ghysels,  A. Golubeva-Zadorozhnaya,  J. Gomes,  
 A. Gunina,  M. W. D. Hanson-Heine,  P. H. P. Harbach,  A. W. Hauser,  
 J. E. Herr,  E. G. Hohenstein,  Z. C. Holden,  K. Hui,  T.-C. Jagau,  H. Ji,  
 B. Kaduk,  K. Khistyaev,  Jaehoon Kim,  Jihan Kim,  R. A. King,  
 P. Klunzinger,  K. Koh,  D. Kosenkov,  T. Kowalczyk,  C. M. Krauter,  
 A. Kunitsa,  K. U. Lao,  A. Laurent,  K. V. Lawler,  J. Lee,  D. Lefrancois,  
 S. Lehtola,  S. V. Levchenko,  C. Y. Lin,  Y.-S. Lin,  F. Liu,  E. Livshits,  
 R. C. Lochan,  A. Luenser,  P. Manohar,  S. F. Manzer,  S.-P. Mao,  Y. Mao,  
 N. Mardirossian,  A. V. Marenich,  L. A. Martinez-Martinez,  S. A. Maurer,  
 N. J. Mayhall,  J.-M. Mewes,  A. F. Morrison,  K. Nanda,  T. S. Nguyen-Beck,  
 C. M. Oana,  R. Olivares-Amaya,  D. P. O'Neill,  J. A. Parkhill,  
 T. M. Perrine,  R. Peverati,  P. A. Pieniazek,  F. Plasser,  A. Prociuk,  
 D. R. Rehn,  E. Rosta,  N. J. Russ,  N. Sergueev,  S. M. Sharada,  
 S. Sharma,  D. W. Small,  A. Sodt,  T. Stauch,  T. Stein,  D. Stuck,  
 Y.-C. Su,  A. J. W. Thom,  T. Tsuchimochi,  L. Vogt,  O. Vydrov,  T. Wang,  
 M. A. Watson,  J. Wenzel,  A. White,  C. F. Williams,  V. Vanovschi,  
 K. Yao,  S. Yeganeh,  S. R. Yost,  Z.-Q. You,  I. Y. Zhang,  X. Zhang,  
 Y. Zhao,  B. R. Brooks,  G. K. L. Chan,  D. M. Chipman,  C. J. Cramer,  
 W. A. Goddard III,  M. S. Gordon,  W. J. Hehre,  A. Klamt,  
 H. F. Schaefer III,  M. W. Schmidt,  C. D. Sherrill,  D. G. Truhlar,  
 A. Warshel,  X. Xu,  A. Aspuru-Guzik,  R. Baer,  A. T. Bell,  N. A. Besley,  
 J.-D. Chai,  A. Dreuw,  B. D. Dunietz,  T. R. Furlani,  S. R. Gwaltney,  
 C.-P. Hsu,  Y. Jung,  J. Kong,  D. S. Lambrecht,  W. Liang,  C. Ochsenfeld,  
 V. A. Rassolov,  L. V. Slipchenko,  J. E. Subotnik,  T. Van Voorhis,  
 J. M. Herbert,  A. I. Krylov,  P. M. W. Gill,  M. Head-Gordon

 Contributors to earlier versions of Q-Chem not listed above: 
 R. D. Adamson,  J. Baker,  E. F. C. Byrd,  A. K. Chakraborty,  C.-L. Cheng,  
 H. Dachsel,  R. J. Doerksen,  G. Hawkins,  A. Heyden,  S. Hirata,  
 G. Kedziora,  F. J. Keil,  C. Kelley,  P. P. Korambath,  W. Kurlancheek,  
 A. M. Lee,  M. S. Lee,  D. Liotard,  I. Lotan,  P. E. Maslen,  N. Nair,  
 D. Neuhauser,  R. Olson,  B. Peters,  J. Ritchie,  N. E. Schultz,  
 N. Shenvi,  A. C. Simmonett,  K. S. Thanthiriwatte,  Q. Wu,  W. Zhang

 Please cite Q-Chem as follows:
 Y. Shao et al., Mol. Phys. 113, 184-215 (2015)
 DOI: 10.1080/00268976.2014.952696

 Q-Chem 4.4.2 for Intel X86 EM64T Linux

 Parts of Q-Chem use Armadillo 5.200.1 (Boston Tea Smuggler).
 http://arma.sourceforge.net/

 Q-Chem begins on Tue May 30 10:52:42 2017  

Host: nid00478
0

     Scratch files written to /dev/shm/eg_qchem/qchem37196.0//
 Parallel job on  22  processors

Checking the input file for inconsistencies... 	...done.

--------------------------------------------------------------
User input:
--------------------------------------------------------------
$molecule
 0  1
 H           6.23254100       -0.22338900        0.17638100
 H           5.29752400        2.22850500       -0.10953100
 C           5.19733500        0.07486000        0.08356300
 C           4.68347900        1.33634400       -0.06443600
 S           3.94559900       -1.12581000        0.11905200
 C           3.26267300        1.34659400       -0.16511200
 H           2.67740100        2.24810800       -0.30841700
 C           2.69562400        0.08941900       -0.09094600
 H           1.33241900       -2.39005500       -0.68762600
 C           1.29739300       -0.28590200       -0.16150800
 C           0.73808300       -1.51455700       -0.45078400
 S           0.03601800        0.89451200        0.14982500
 C          -0.68041100       -1.51067300       -0.44936800
 H          -1.28012400       -2.38277100       -0.68510300
 C          -1.23220500       -0.27900200       -0.15852500
 C          -2.62830100        0.10383400       -0.08465000
 H          -3.58780743       -1.57516315        0.89912017
 C          -3.69522658       -0.59824552        0.44096621
 S          -3.17383735        1.64853999       -0.71662645
 C          -4.93478073        0.09735060        0.34787864
 C          -4.81198536        1.32634600       -0.24523601
 H          -5.87589346       -0.29597025        0.71482175
 H          -5.58203299        2.06095511       -0.43652993
$end


$rem
         jobtype = opt
        exchange = b3lyp
           basis = 6-31++g**
  max_scf_cycles = 150
      mem_static = 281
       mem_total = 2818
      sym_ignore = true
        symmetry = false
          thresh = 12
$end


$opt
CONSTRAINT
tors 13 15 16 18 40.0
ENDCONSTRAINT
$end

--------------------------------------------------------------
 ----------------------------------------------------------------
             Standard Nuclear Orientation (Angstroms)
    I     Atom           X                Y                Z
 ----------------------------------------------------------------
    1      H       6.2325410000    -0.2233890000     0.1763810000
    2      H       5.2975240000     2.2285050000    -0.1095310000
    3      C       5.1973350000     0.0748600000     0.0835630000
    4      C       4.6834790000     1.3363440000    -0.0644360000
    5      S       3.9455990000    -1.1258100000     0.1190520000
    6      C       3.2626730000     1.3465940000    -0.1651120000
    7      H       2.6774010000     2.2481080000    -0.3084170000
    8      C       2.6956240000     0.0894190000    -0.0909460000
    9      H       1.3324190000    -2.3900550000    -0.6876260000
   10      C       1.2973930000    -0.2859020000    -0.1615080000
   11      C       0.7380830000    -1.5145570000    -0.4507840000
   12      S       0.0360180000     0.8945120000     0.1498250000
   13      C      -0.6804110000    -1.5106730000    -0.4493680000
   14      H      -1.2801240000    -2.3827710000    -0.6851030000
   15      C      -1.2322050000    -0.2790020000    -0.1585250000
   16      C      -2.6283010000     0.1038340000    -0.0846500000
   17      H      -3.5878074300    -1.5751631500     0.8991201700
   18      C      -3.6952265800    -0.5982455200     0.4409662100
   19      S      -3.1738373500     1.6485399900    -0.7166264500
   20      C      -4.9347807300     0.0973506000     0.3478786400
   21      C      -4.8119853600     1.3263460000    -0.2452360100
   22      H      -5.8758934600    -0.2959702500     0.7148217500
   23      H      -5.5820329900     2.0609551100    -0.4365299300
 ----------------------------------------------------------------
 Nuclear Repulsion Energy =  1177.8405542883 hartrees
 There are       64 alpha and       64 beta electrons
 Requested basis set is 6-31++G(d,p)
 There are 110 shells and 345 basis functions

 Total QAlloc Memory Limit   2818 MB
 Mega-Array Size       275 MB
 MEM_STATIC part       281 MB
 A cutoff of  1.0D-12 yielded   4668 shell pairs
 There are     47551 function pairs

 Q-Chem warning in module /project/projectdirs/jcesr/qchem/qc44/cnl_qc441/compile/cori/qc_src/libqints/qchem/aobasis.C, line 68:

 Using reconstructed effective core potential

 
 -------------------------------------------------------
 OpenMP Integral Computing Module                       
 Release: version 1.0, May 2013, Q-Chem Inc. Pittsburgh 
 -------------------------------------------------------
 Integral Job Info:
 Integral job number is                      11
 Integral operator is                         1
 short-range coefficients                     0
 long-range coefficients              100000000
 Omega coefficients                           0
 if combine SR and LR in K                    0
 Integral screening is                        0
 Integral computing path is                   2
 max size of driver memory is            800000
 size of driver memory is                593474
 size of scratch memory is             15166112
 max col of scratch BK array               1296
 max len of scratch array in speh3          155
 max len of scratch index in speh4           18
 max int batch size is                      520
 min int batch size is                       52
 fixed nKL is                                52
 max L of basis functions is                  2
 order of int derivative is                   0
 number of shells is                        110
 number of basis is                         345
 number of cartesian basis is               345
 number of contracted shell pairs          4668
 number of primitive shell pairs          14607
 maxK2 (contraction) of shell pair           36
 max number of K2 of shell pair               1
 max number of CS2 of shell pair            510
 max number of PS2 of shell pair           3030
 mem total for path MDJ                  101080
 -------------------------------------------------------
 Smallest overlap matrix eigenvalue = 7.80E-08
 Linear dependence detected in AO basis
 Number of orthogonalized atomic orbitals = 342
 Maximum deviation from orthogonality = 5.049E-11

 Scale SEOQF with 1.000000e-02/1.000000e-01/1.000000e-01

 Standard Electronic Orientation quadrupole field applied
 Nucleus-field energy     =     0.0000000152 hartrees
 Guess from superposition of atomic densities
 Warning:  Energy on first SCF cycle will be non-variational
 A restricted hybrid HF-DFT SCF calculation will be
 performed using Pulay DIIS extrapolation
 Exchange:     0.2000 Hartree-Fock + 0.0800 Slater + 0.7200 B88
 Correlation:  0.1900 VWN1RPA + 0.8100 LYP
 Using SG-1 standard quadrature grid
 SCF converges when DIIS error is below 1.0E-08
 ---------------------------------------
  Cycle       Energy         DIIS Error
 ---------------------------------------
    1   -1660.2974275789      3.69E-02
    2   -1656.4280601023      3.76E-03
    3   -1656.1022408159      5.69E-03
    4   -1656.6487829203      8.94E-04
    5   -1656.6587872679      5.07E-04
    6   -1656.6622386317      1.91E-04
    7   -1656.6627806861      7.32E-05
    8   -1656.6628623942      1.40E-05
    9   -1656.6628653525      4.05E-06
   10   -1656.6628655671      1.99E-06
   11   -1656.6628656328      4.49E-07
   12   -1656.6628656370      2.30E-07
   13   -1656.6628656361      6.81E-08
   14   -1656.6628656346      2.47E-08
   15   -1656.6628656370      1.07E-08
   16   -1656.6628656356      2.53E-09 Convergence criterion met
 ---------------------------------------
 SCF time:  CPU 17.79 s  wall 16.36 s
 SCF   energy in the final basis set = -1656.6628656356
 Total energy in the final basis set = -1656.6628656356
 
 --------------------------------------------------------------
 
                    Orbital Energies (a.u.)
 --------------------------------------------------------------
 
 Alpha MOs
 -- Occupied --
-88.921 -88.921 -88.921 -10.241 -10.240 -10.240 -10.239 -10.226
-10.226 -10.207 -10.206 -10.206 -10.206 -10.205 -10.205  -7.980
 -7.980  -7.980  -5.945  -5.944  -5.944  -5.941  -5.941  -5.941
 -5.937  -5.937  -5.937  -0.907  -0.892  -0.876  -0.787  -0.756
 -0.745  -0.744  -0.733  -0.697  -0.617  -0.596  -0.568  -0.564
 -0.537  -0.533  -0.529  -0.498  -0.463  -0.422  -0.421  -0.418
 -0.415  -0.408  -0.402  -0.398  -0.386  -0.375  -0.370  -0.360
 -0.352  -0.343  -0.290  -0.266  -0.263  -0.261  -0.249  -0.204
 -- Virtual --
 -0.068  -0.032  -0.010  -0.005  -0.004   0.001   0.008   0.010
  0.016   0.018   0.024   0.028   0.033   0.033   0.038   0.044
  0.046   0.048   0.053   0.054   0.060   0.063   0.074   0.077
  0.081   0.089   0.092   0.095   0.097   0.105   0.108   0.111
  0.112   0.115   0.122   0.124   0.126   0.132   0.132   0.134
  0.138   0.139   0.141   0.145   0.149   0.150   0.153   0.157
  0.161   0.169   0.171   0.175   0.179   0.185   0.187   0.189
  0.196   0.200   0.203   0.207   0.211   0.211   0.218   0.221
  0.232   0.236   0.238   0.246   0.248   0.257   0.259   0.264
  0.267   0.270   0.275   0.285   0.291   0.299   0.305   0.309
  0.319   0.321   0.333   0.343   0.346   0.354   0.360   0.366
  0.372   0.378   0.393   0.403   0.448   0.453   0.457   0.489
  0.510   0.520   0.527   0.530   0.565   0.570   0.576   0.583
  0.584   0.612   0.616   0.627   0.643   0.654   0.657   0.659
  0.669   0.675   0.686   0.689   0.710   0.713   0.718   0.725
  0.728   0.731   0.742   0.753   0.759   0.772   0.782   0.791
  0.797   0.821   0.825   0.832   0.836   0.853   0.876   0.899
  0.927   0.936   0.941   0.945   0.957   0.958   0.961   0.967
  0.974   0.979   0.983   0.996   1.002   1.006   1.022   1.031
  1.045   1.052   1.069   1.079   1.084   1.100   1.103   1.110
  1.117   1.145   1.152   1.170   1.182   1.197   1.211   1.235
  1.252   1.265   1.285   1.312   1.335   1.344   1.350   1.356
  1.363   1.364   1.384   1.448   1.463   1.468   1.502   1.510
  1.536   1.552   1.568   1.615   1.685   1.687   1.723   1.736
  1.794   1.831   1.867   1.874   1.882   1.896   1.912   1.916
  1.922   1.948   1.959   1.966   2.010   2.022   2.048   2.064
  2.078   2.099   2.123   2.156   2.175   2.188   2.195   2.199
  2.226   2.241   2.254   2.267   2.284   2.327   2.364   2.365
  2.418   2.430   2.447   2.455   2.463   2.470   2.481   2.504
  2.522   2.531   2.538   2.555   2.583   2.593   2.606   2.628
  2.660   2.680   2.702   2.716   2.737   2.783   2.847   2.871
  2.898   2.917   2.945   2.968   3.128   3.178   3.219   3.270
  3.272   3.325   3.413   3.416   3.666   3.732   3.739   3.953
  3.980   4.000   4.256   4.272   4.310   4.316   4.331   4.342
  4.391   4.476   4.552   4.640   4.698   4.733
 --------------------------------------------------------------
 
          Ground-State Mulliken Net Atomic Charges

     Atom                 Charge (a.u.)
  ----------------------------------------
      1 H                     0.195965
      2 H                     0.119832
      3 C                     0.018873
      4 C                    -0.368904
      5 S                    -0.110112
      6 C                     0.475250
      7 H                     0.124467
      8 C                    -0.328931
      9 H                     0.127141
     10 C                    -0.172583
     11 C                     0.034763
     12 S                    -0.197390
     13 C                     0.105061
     14 H                     0.132454
     15 C                    -0.290029
     16 C                    -0.286555
     17 H                     0.142971
     18 C                     0.353256
     19 S                    -0.074586
     20 C                    -0.360361
     21 C                     0.041118
     22 H                     0.120023
     23 H                     0.198277
  ----------------------------------------
  Sum of atomic charges =     0.000000

 -----------------------------------------------------------------
                    Cartesian Multipole Moments
 -----------------------------------------------------------------
    Charge (ESU x 10^10)
                 0.0000
    Dipole Moment (Debye)
         X      -0.2277      Y      -0.3467      Z       0.0139
       Tot       0.4150
    Quadrupole Moments (Debye-Ang)
        XX     -89.5700     XY       1.8634     YY    -101.5944
        XZ      -1.2014     YZ      -1.1015     ZZ    -115.3726
    Octopole Moments (Debye-Ang^2)
       XXX     -22.2208    XXY       0.6462    XYY     -10.7753
       YYY     -56.3223    XXZ      22.6731    XYZ       7.1253
       YYZ       5.5465    XZZ     -14.4456    YZZ     -21.6685
       ZZZ      36.4530
    Hexadecapole Moments (Debye-Ang^3)
      XXXX   -6178.6557   XXXY     182.1526   XXYY   -1239.6797
      XYYY     262.9051   YYYY    -904.7476   XXXZ     -68.0548
      XXYZ     -40.7981   XYYZ     -12.9771   YYYZ      34.6897
      XXZZ   -1336.8675   XYZZ      84.5467   YYZZ    -203.8825
      XZZZ     -54.4672   YZZZ      36.1610   ZZZZ    -237.5304
 -----------------------------------------------------------------
 Calculating analytic gradient of the SCF energy
 Gradient of SCF Energy
            1           2           3           4           5           6
    1  -0.0000106   0.0000105  -0.0000009  -0.0000448   0.0000030   0.0001190
    2  -0.0000067  -0.0000014   0.0000183   0.0000385  -0.0000732   0.0001905
    3   0.0000046  -0.0000081  -0.0000171   0.0000121  -0.0000265   0.0000216
            7           8           9          10          11          12
    1   0.0000171  -0.0006026  -0.0000270   0.0005700  -0.0004656  -0.0014396
    2  -0.0000051  -0.0001293   0.0000409  -0.0008403  -0.0000649   0.0007005
    3  -0.0000284   0.0000804   0.0000923  -0.0001743  -0.0007849   0.0006938
           13          14          15          16          17          18
    1   0.0019667   0.0004647  -0.0033008   0.0035635  -0.0007905  -0.0014410
    2   0.0001697  -0.0006565   0.0014519  -0.0005509  -0.0004191   0.0011797
    3  -0.0008580   0.0004465   0.0006562  -0.0007729  -0.0003288   0.0005619
           19          20          21          22          23
    1   0.0014982   0.0001234  -0.0004210   0.0000453   0.0001630
    2  -0.0003832   0.0002050  -0.0008441   0.0000110  -0.0000313
    3  -0.0007057   0.0008297   0.0004921  -0.0000772  -0.0001097
 Max gradient component =       3.563E-03
 RMS gradient           =       8.290E-04
 Gradient time:  CPU 4.68 s  wall 4.68 s
 Geometry Optimization Parameters
   NAtoms,    NIC,     NZ,  NCons,   NDum,   NFix, NCnnct, MaxDiis
       23     166       0       1       0       0       0       0


** CONSTRAINED OPTIMIZATION IN DELOCALIZED INTERNAL COORDINATES **
   Searching for a Minimum

   Optimization Cycle:   1

                       Coordinates (Angstroms)
     ATOM                X               Y               Z
      1  H         6.2325410000   -0.2233890000    0.1763810000
      2  H         5.2975240000    2.2285050000   -0.1095310000
      3  C         5.1973350000    0.0748600000    0.0835630000
      4  C         4.6834790000    1.3363440000   -0.0644360000
      5  S         3.9455990000   -1.1258100000    0.1190520000
      6  C         3.2626730000    1.3465940000   -0.1651120000
      7  H         2.6774010000    2.2481080000   -0.3084170000
      8  C         2.6956240000    0.0894190000   -0.0909460000
      9  H         1.3324190000   -2.3900550000   -0.6876260000
     10  C         1.2973930000   -0.2859020000   -0.1615080000
     11  C         0.7380830000   -1.5145570000   -0.4507840000
     12  S         0.0360180000    0.8945120000    0.1498250000
     13  C        -0.6804110000   -1.5106730000   -0.4493680000
     14  H        -1.2801240000   -2.3827710000   -0.6851030000
     15  C        -1.2322050000   -0.2790020000   -0.1585250000
     16  C        -2.6283010000    0.1038340000   -0.0846500000
     17  H        -3.5878074300   -1.5751631500    0.8991201700
     18  C        -3.6952265800   -0.5982455200    0.4409662100
     19  S        -3.1738373500    1.6485399900   -0.7166264500
     20  C        -4.9347807300    0.0973506000    0.3478786400
     21  C        -4.8119853600    1.3263460000   -0.2452360100
     22  H        -5.8758934600   -0.2959702500    0.7148217500
     23  H        -5.5820329900    2.0609551100   -0.4365299300
   Point Group: c1    Number of degrees of freedom:    63


   Energy is  -1656.662865636

              Constraints and their Current Values
                                        Value     Constraint
   Dihedral:       13  15  16  18       40.000       40.000

 Attempting to Generate Delocalized Internal Coordinates

 62 Hessian modes will be used to form the next step
  Hessian Eigenvalues:
     0.045000    0.045000    0.045000    0.045000    0.045000    0.045000
     0.045000    0.045000    0.045000    0.045001    0.045002    0.045002
     0.045003    0.045003    0.045009    0.045010    0.045011    0.045018
     0.045019    0.159886    0.159939    0.159955    0.159957    0.159992
     0.159993    0.160000    0.160000    0.221281    0.221281    0.226855
     0.237826    0.237826    0.245311    0.249998    0.249998    0.250000
     0.250000    0.293636    0.293684    0.294746    0.294936    0.312571
     0.312615    0.354732    0.354740    0.354742    0.354756    0.355161
     0.355164    0.358372    0.358373    0.383080    0.383176    0.405793
     0.405832    0.413732    0.458107    0.461989    0.461995    0.485493
     0.497291    0.497294

 Minimum Search - Taking Simple RFO Step
 Searching for Lamda that Minimizes Along All modes
 Value Taken    Lamda =  -0.00027149
 Step Taken.  Stepsize is  0.042437

                             Maximum     Tolerance    Cnvgd?
         Gradient           0.004336      0.000300      NO
         Displacement       0.018527      0.001200      NO
         Energy change     *********      0.000001      NO


 New Cartesian Coordinates Obtained by Inverse Iteration

 Displacement from previous Coordinates is:  0.252390
 ----------------------------------------------------------------
             Standard Nuclear Orientation (Angstroms)
    I     Atom           X                Y                Z
 ----------------------------------------------------------------
    1      H       6.2354434567    -0.2479787013     0.1844421434
    2      H       5.3198622726     2.2097686289    -0.1141275068
    3      C       5.2027129081     0.0578820319     0.0887323255
    4      C       4.6988894047     1.3225885376    -0.0659075347
    5      S       3.9414569185    -1.1326010933     0.1280928092
    6      C       3.2782921479     1.3434616732    -0.1686554021
    7      H       2.7002022500     2.2488595450    -0.3166649232
    8      C       2.7013842991     0.0913362885    -0.0895701413
    9      H       1.3193331066    -2.3793199262    -0.6801790047
   10      C       1.2996300511    -0.2732243674    -0.1602948712
   11      C       0.7310884623    -1.4990009337    -0.4455452106
   12      S       0.0467909459     0.9167854489     0.1426064083
   13      C      -0.6882676828    -1.4843218651    -0.4500206129
   14      H      -1.2976936290    -2.3485065539    -0.6887765993
   15      C      -1.2303816937    -0.2500856844    -0.1600215134
   16      C      -2.6326307092     0.1255441305    -0.0880253626
   17      H      -3.5503649284    -1.5669035756     0.9030250226
   18      C      -3.6829062015    -0.5950510994     0.4412540172
   19      S      -3.2081983781     1.6626289738    -0.7155219234
   20      C      -4.9370615582     0.0747967599     0.3442101393
   21      C      -4.8395196959     1.3074568024    -0.2474049370
   22      H      -5.8699156300    -0.3369726590     0.7123095685
   23      H      -5.6246620166     2.0266874187    -0.4367475109
 ----------------------------------------------------------------
 Nuclear Repulsion Energy =  1176.6763299967 hartrees
 There are       64 alpha and       64 beta electrons
 Applying Cartesian multipole field
    Component          Value
    ---------          -----
     (2,0,0)        1.00000E-12
     (0,2,0)        2.00000E-11
     (0,0,2)       -3.00000E-11
 Nucleus-field energy     =     0.0000000152 hartrees
 Requested basis set is 6-31++G(d,p)
 There are 110 shells and 345 basis functions
 A cutoff of  1.0D-12 yielded   4669 shell pairs
 There are     47555 function pairs

 Q-Chem warning in module /project/projectdirs/jcesr/qchem/qc44/cnl_qc441/compile/cori/qc_src/libqints/qchem/aobasis.C, line 68:

 Using reconstructed effective core potential

 Smallest overlap matrix eigenvalue = 7.74E-08
 Linear dependence detected in AO basis
 Number of orthogonalized atomic orbitals = 342
 Maximum deviation from orthogonality = 5.484E-11
 Guess MOs from SCF MO coefficient file
 Reading MOs from coefficient file
 Reading MOs from coefficient file
 A restricted hybrid HF-DFT SCF calculation will be
 performed using Pulay DIIS extrapolation
 Exchange:     0.2000 Hartree-Fock + 0.0800 Slater + 0.7200 B88
 Correlation:  0.1900 VWN1RPA + 0.8100 LYP
 Using SG-1 standard quadrature grid
 SCF converges when DIIS error is below 1.0E-08
 Geometry optimization detected.  Setting ReadMinima to 0
 Setting SaveMinima to 0
 ---------------------------------------
  Cycle       Energy         DIIS Error
 ---------------------------------------
    1   -1656.6648584988      6.86E-04
    2   -1656.6627114184      1.39E-04
    3   -1656.6615682323      3.01E-04
    4   -1656.6630266226      3.11E-05
    5   -1656.6630410807      1.11E-05
    6   -1656.6630429223      3.16E-06
    7   -1656.6630430604      1.14E-06
    8   -1656.6630430772      4.93E-07
    9   -1656.6630430801      1.46E-07
   10   -1656.6630430807      3.24E-08
   11   -1656.6630430808      1.71E-08
   12   -1656.6630430802      5.37E-09 Convergence criterion met
 ---------------------------------------
 SCF time:  CPU 13.54 s  wall 12.41 s
 SCF   energy in the final basis set = -1656.6630430802
 Total energy in the final basis set = -1656.6630430802
 
 --------------------------------------------------------------
 
                    Orbital Energies (a.u.)
 --------------------------------------------------------------
 
 Alpha MOs
 -- Occupied --
-88.921 -88.921 -88.921 -10.241 -10.240 -10.240 -10.239 -10.226
-10.226 -10.206 -10.206 -10.206 -10.206 -10.205 -10.205  -7.980
 -7.980  -7.980  -5.945  -5.945  -5.945  -5.941  -5.941  -5.941
 -5.938  -5.937  -5.937  -0.906  -0.892  -0.876  -0.787  -0.755
 -0.745  -0.744  -0.733  -0.697  -0.617  -0.595  -0.568  -0.564
 -0.537  -0.533  -0.529  -0.499  -0.463  -0.422  -0.420  -0.418
 -0.415  -0.408  -0.402  -0.398  -0.386  -0.376  -0.370  -0.360
 -0.352  -0.343  -0.291  -0.266  -0.262  -0.261  -0.249  -0.204
 -- Virtual --
 -0.068  -0.032  -0.010  -0.005  -0.004   0.001   0.008   0.010
  0.016   0.018   0.024   0.028   0.033   0.033   0.038   0.044
  0.046   0.048   0.053   0.054   0.060   0.063   0.074   0.077
  0.081   0.089   0.091   0.095   0.097   0.105   0.108   0.111
  0.112   0.115   0.122   0.124   0.126   0.132   0.132   0.134
  0.138   0.139   0.141   0.145   0.149   0.150   0.153   0.157
  0.161   0.168   0.171   0.175   0.179   0.186   0.187   0.189
  0.196   0.200   0.203   0.206   0.211   0.211   0.218   0.221
  0.232   0.236   0.238   0.246   0.248   0.257   0.258   0.264
  0.267   0.271   0.274   0.284   0.291   0.298   0.305   0.309
  0.319   0.321   0.334   0.344   0.345   0.353   0.360   0.366
  0.371   0.378   0.392   0.403   0.448   0.454   0.457   0.489
  0.510   0.520   0.527   0.530   0.565   0.570   0.576   0.583
  0.584   0.612   0.616   0.627   0.644   0.654   0.658   0.659
  0.669   0.675   0.684   0.689   0.710   0.713   0.718   0.725
  0.727   0.730   0.741   0.752   0.759   0.772   0.781   0.791
  0.796   0.821   0.825   0.832   0.836   0.854   0.876   0.899
  0.927   0.936   0.941   0.946   0.957   0.958   0.961   0.968
  0.974   0.978   0.983   0.996   1.003   1.006   1.023   1.030
  1.043   1.052   1.068   1.079   1.085   1.100   1.102   1.110
  1.116   1.144   1.152   1.169   1.182   1.198   1.211   1.235
  1.252   1.265   1.285   1.313   1.335   1.343   1.350   1.356
  1.363   1.364   1.385   1.447   1.462   1.468   1.500   1.510
  1.535   1.550   1.567   1.614   1.684   1.687   1.723   1.735
  1.792   1.830   1.869   1.873   1.882   1.896   1.911   1.915
  1.921   1.947   1.959   1.966   2.010   2.021   2.048   2.064
  2.078   2.099   2.124   2.155   2.175   2.188   2.194   2.199
  2.226   2.241   2.254   2.267   2.285   2.326   2.364   2.366
  2.418   2.429   2.446   2.456   2.463   2.469   2.480   2.505
  2.522   2.531   2.538   2.555   2.583   2.592   2.606   2.627
  2.660   2.680   2.701   2.716   2.736   2.786   2.846   2.872
  2.897   2.914   2.943   2.966   3.128   3.178   3.218   3.270
  3.272   3.325   3.413   3.416   3.666   3.732   3.739   3.953
  3.979   3.998   4.255   4.273   4.309   4.316   4.331   4.342
  4.390   4.475   4.551   4.639   4.698   4.731
 --------------------------------------------------------------
 
          Ground-State Mulliken Net Atomic Charges

     Atom                 Charge (a.u.)
  ----------------------------------------
      1 H                     0.196087
      2 H                     0.119899
      3 C                     0.020048
      4 C                    -0.368723
      5 S                    -0.110354
      6 C                     0.472798
      7 H                     0.124300
      8 C                    -0.326755
      9 H                     0.126545
     10 C                    -0.171129
     11 C                     0.022668
     12 S                    -0.179469
     13 C                     0.087490
     14 H                     0.133437
     15 C                    -0.273182
     16 C                    -0.290594
     17 H                     0.144474
     18 C                     0.340633
     19 S                    -0.060456
     20 C                    -0.364474
     21 C                     0.038510
     22 H                     0.119938
     23 H                     0.198309
  ----------------------------------------
  Sum of atomic charges =     0.000000

 -----------------------------------------------------------------
                    Cartesian Multipole Moments
 -----------------------------------------------------------------
    Charge (ESU x 10^10)
                 0.0000
    Dipole Moment (Debye)
         X      -0.2171      Y      -0.3629      Z       0.0153
       Tot       0.4231
    Quadrupole Moments (Debye-Ang)
        XX     -89.4836     XY       1.8943     YY    -101.7239
        XZ      -1.1607     YZ      -1.1418     ZZ    -115.3773
    Octopole Moments (Debye-Ang^2)
       XXX     -21.4463    XXY      -0.0487    XYY     -10.1720
       YYY     -57.9775    XXZ      22.3727    XYZ       6.9841
       YYZ       5.6466    XZZ     -14.0920    YZZ     -22.2472
       ZZZ      36.4192
    Hexadecapole Moments (Debye-Ang^3)
      XXXX   -6203.3670   XXXY     184.1891   XXYY   -1245.4942
      XYYY     268.0703   YYYY    -905.3071   XXXZ     -68.0463
      XXYZ     -41.3887   XYYZ     -14.4876   YYYZ      36.3654
      XXZZ   -1343.1250   XYZZ      86.3381   YYZZ    -203.5297
      XZZZ     -58.2965   YZZZ      38.0948   ZZZZ    -237.3858
 -----------------------------------------------------------------
 Calculating analytic gradient of the SCF energy
 Gradient of SCF Energy
            1           2           3           4           5           6
    1   0.0000010   0.0000068   0.0000215  -0.0000336   0.0000738   0.0000975
    2   0.0000006  -0.0000050  -0.0000101  -0.0000075   0.0000085   0.0000465
    3   0.0000056  -0.0000017  -0.0000226   0.0000200  -0.0000130   0.0000311
            7           8           9          10          11          12
    1   0.0000057  -0.0002308  -0.0000291   0.0006249  -0.0003535   0.0000325
    2  -0.0000077   0.0000088   0.0000044   0.0000579   0.0001426   0.0002119
    3  -0.0000237   0.0000216   0.0000103   0.0000349  -0.0001988   0.0002751
           13          14          15          16          17          18
    1   0.0004604   0.0000855  -0.0008161   0.0002059  -0.0002392   0.0001144
    2   0.0006771  -0.0002226  -0.0007889  -0.0014109  -0.0002281   0.0009822
    3  -0.0010380   0.0003501   0.0012329  -0.0010249  -0.0002970   0.0008712
           19          20          21          22          23
    1  -0.0000306   0.0002870  -0.0003255   0.0000371   0.0000042
    2   0.0001633   0.0000978   0.0002475  -0.0000167   0.0000484
    3  -0.0002621   0.0001638  -0.0000789   0.0000038  -0.0000598
 Max gradient component =       1.411E-03
 RMS gradient           =       3.980E-04
 Gradient time:  CPU 4.67 s  wall 4.67 s
 Geometry Optimization Parameters
   NAtoms,    NIC,     NZ,  NCons,   NDum,   NFix, NCnnct, MaxDiis
       23     166       0       1       0       0       0       0

 Cartesian Hessian Update
 Hessian Updated using BFGS Update


** CONSTRAINED OPTIMIZATION IN DELOCALIZED INTERNAL COORDINATES **
   Searching for a Minimum

   Optimization Cycle:   2

                       Coordinates (Angstroms)
     ATOM                X               Y               Z
      1  H         6.2354434567   -0.2479787013    0.1844421434
      2  H         5.3198622726    2.2097686289   -0.1141275068
      3  C         5.2027129081    0.0578820319    0.0887323255
      4  C         4.6988894047    1.3225885376   -0.0659075347
      5  S         3.9414569185   -1.1326010933    0.1280928092
      6  C         3.2782921479    1.3434616732   -0.1686554021
      7  H         2.7002022500    2.2488595450   -0.3166649232
      8  C         2.7013842991    0.0913362885   -0.0895701413
      9  H         1.3193331066   -2.3793199262   -0.6801790047
     10  C         1.2996300511   -0.2732243674   -0.1602948712
     11  C         0.7310884623   -1.4990009337   -0.4455452106
     12  S         0.0467909459    0.9167854489    0.1426064083
     13  C        -0.6882676828   -1.4843218651   -0.4500206129
     14  H        -1.2976936290   -2.3485065539   -0.6887765993
     15  C        -1.2303816937   -0.2500856844   -0.1600215134
     16  C        -2.6326307092    0.1255441305   -0.0880253626
     17  H        -3.5503649284   -1.5669035756    0.9030250226
     18  C        -3.6829062015   -0.5950510994    0.4412540172
     19  S        -3.2081983781    1.6626289738   -0.7155219234
     20  C        -4.9370615582    0.0747967599    0.3442101393
     21  C        -4.8395196959    1.3074568024   -0.2474049370
     22  H        -5.8699156300   -0.3369726590    0.7123095685
     23  H        -5.6246620166    2.0266874187   -0.4367475109
   Point Group: c1    Number of degrees of freedom:    63


   Energy is  -1656.663043080

              Constraints and their Current Values
                                        Value     Constraint
   Dihedral:       13  15  16  18       40.000       40.000
 Hessian Updated using BFGS Update

 55 Hessian modes will be used to form the next step
  Hessian Eigenvalues:
     0.038668    0.045000    0.045000    0.045001    0.045001    0.045002
     0.045003    0.045009    0.045009    0.045015    0.045018    0.045391
     0.151274    0.159916    0.159944    0.159957    0.159992    0.159998
     0.159999    0.160065    0.179711    0.221281    0.223448    0.227886
     0.237826    0.239396    0.249995    0.249999    0.249999    0.251870
     0.293630    0.294296    0.294702    0.302417    0.312571    0.313855
     0.354713    0.354734    0.354743    0.354750    0.355158    0.355164
     0.358372    0.358426    0.383168    0.392904    0.405831    0.407116
     0.415235    0.459575    0.461940    0.477322    0.490621    0.497285
     0.497856

 Minimum Search - Taking Simple RFO Step
 Searching for Lamda that Minimizes Along All modes
 Value Taken    Lamda =  -0.00006953
 Step Taken.  Stepsize is  0.030506

                             Maximum     Tolerance    Cnvgd?
         Gradient           0.001581      0.000300      NO
         Displacement       0.011953      0.001200      NO
         Energy change     -0.000177      0.000001      NO


 New Cartesian Coordinates Obtained by Inverse Iteration

 Displacement from previous Coordinates is:  0.168169
 ----------------------------------------------------------------
             Standard Nuclear Orientation (Angstroms)
    I     Atom           X                Y                Z
 ----------------------------------------------------------------
    1      H       6.2339006288    -0.2647823270     0.1914640774
    2      H       5.3317744102     2.1968442956    -0.1167051583
    3      C       5.2029393164     0.0462211453     0.0932942114
    4      C       4.7061119234     1.3130806390    -0.0664545457
    5      S       3.9353920476    -1.1375334557     0.1349248469
    6      C       3.2857551799     1.3410737070    -0.1711534287
    7      H       2.7124940078     2.2489841576    -0.3226135083
    8      C       2.7024839387     0.0922920508    -0.0887284583
    9      H       1.3104284889    -2.3723481406    -0.6761003604
   10      C       1.2987155928    -0.2650036642    -0.1600427814
   11      C       0.7258369607    -1.4891387243    -0.4429333252
   12      S       0.0527231238     0.9333645525     0.1370446782
   13      C      -0.6934822904    -1.4660614293    -0.4512731682
   14      H      -1.3091417109    -2.3244657998    -0.6942035732
   15      C      -1.2284082581    -0.2286303312    -0.1617695482
   16      C      -2.6328596180     0.1416645054    -0.0911349608
   17      H      -3.5221943147    -1.5593120950     0.9081308258
   18      C      -3.6719594600    -0.5924295633     0.4415312386
   19      S      -3.2271295837     1.6712118478    -0.7167855080
   20      C      -4.9356202168     0.0589349176     0.3431124422
   21      C      -4.8532546766     1.2926224481    -0.2485681019
   22      H      -5.8628762827    -0.3640663773     0.7128057620
   23      H      -5.6481451071     2.0013074210    -0.4366322758
 ----------------------------------------------------------------
 Nuclear Repulsion Energy =  1176.3808749714 hartrees
 There are       64 alpha and       64 beta electrons
 Applying Cartesian multipole field
    Component          Value
    ---------          -----
     (2,0,0)        1.00000E-12
     (0,2,0)        2.00000E-11
     (0,0,2)       -3.00000E-11
 Nucleus-field energy     =     0.0000000152 hartrees
 Requested basis set is 6-31++G(d,p)
 There are 110 shells and 345 basis functions
 A cutoff of  1.0D-12 yielded   4670 shell pairs
 There are     47571 function pairs

 Q-Chem warning in module /project/projectdirs/jcesr/qchem/qc44/cnl_qc441/compile/cori/qc_src/libqints/qchem/aobasis.C, line 68:

 Using reconstructed effective core potential

 Smallest overlap matrix eigenvalue = 7.62E-08
 Linear dependence detected in AO basis
 Number of orthogonalized atomic orbitals = 342
 Maximum deviation from orthogonality = 5.955E-11
 Guess MOs from SCF MO coefficient file
 Reading MOs from coefficient file
 Reading MOs from coefficient file
 A restricted hybrid HF-DFT SCF calculation will be
 performed using Pulay DIIS extrapolation
 Exchange:     0.2000 Hartree-Fock + 0.0800 Slater + 0.7200 B88
 Correlation:  0.1900 VWN1RPA + 0.8100 LYP
 Using SG-1 standard quadrature grid
 SCF converges when DIIS error is below 1.0E-08
 Geometry optimization detected.  Setting ReadMinima to 0
 Setting SaveMinima to 0
 ---------------------------------------
  Cycle       Energy         DIIS Error
 ---------------------------------------
    1   -1656.6659973595      4.67E-04
    2   -1656.6629121967      9.86E-05
    3   -1656.6623669051      2.09E-04
    4   -1656.6630703353      2.36E-05
    5   -1656.6630788067      7.77E-06
    6   -1656.6630796855      2.39E-06
    7   -1656.6630797662      7.84E-07
    8   -1656.6630797748      3.49E-07
    9   -1656.6630797771      1.08E-07
   10   -1656.6630797764      2.30E-08
   11   -1656.6630797757      1.17E-08
   12   -1656.6630797768      3.90E-09 Convergence criterion met
 ---------------------------------------
 SCF time:  CPU 13.34 s  wall 12.28 s
 SCF   energy in the final basis set = -1656.6630797768
 Total energy in the final basis set = -1656.6630797768
 
 --------------------------------------------------------------
 
                    Orbital Energies (a.u.)
 --------------------------------------------------------------
 
 Alpha MOs
 -- Occupied --
-88.922 -88.921 -88.921 -10.241 -10.240 -10.240 -10.239 -10.226
-10.226 -10.206 -10.206 -10.206 -10.206 -10.205 -10.205  -7.981
 -7.981  -7.980  -5.945  -5.945  -5.945  -5.941  -5.941  -5.941
 -5.938  -5.938  -5.938  -0.907  -0.892  -0.876  -0.787  -0.755
 -0.745  -0.744  -0.734  -0.697  -0.617  -0.595  -0.568  -0.564
 -0.537  -0.533  -0.529  -0.499  -0.463  -0.422  -0.420  -0.418
 -0.415  -0.408  -0.402  -0.398  -0.385  -0.376  -0.370  -0.360
 -0.352  -0.344  -0.291  -0.266  -0.263  -0.261  -0.249  -0.204
 -- Virtual --
 -0.068  -0.032  -0.010  -0.005  -0.004   0.001   0.008   0.010
  0.016   0.018   0.024   0.028   0.033   0.033   0.038   0.044
  0.046   0.048   0.053   0.054   0.060   0.063   0.074   0.077
  0.081   0.089   0.091   0.095   0.097   0.105   0.108   0.111
  0.112   0.115   0.122   0.124   0.125   0.132   0.132   0.134
  0.138   0.139   0.141   0.146   0.149   0.150   0.153   0.156
  0.160   0.168   0.171   0.175   0.179   0.186   0.187   0.188
  0.196   0.200   0.204   0.206   0.210   0.211   0.218   0.220
  0.232   0.235   0.238   0.246   0.248   0.257   0.258   0.264
  0.266   0.271   0.274   0.284   0.292   0.298   0.305   0.308
  0.319   0.321   0.334   0.345   0.345   0.353   0.360   0.367
  0.371   0.378   0.392   0.402   0.448   0.454   0.457   0.488
  0.511   0.520   0.526   0.530   0.566   0.570   0.576   0.582
  0.584   0.612   0.616   0.627   0.645   0.654   0.659   0.659
  0.669   0.674   0.683   0.689   0.710   0.712   0.718   0.725
  0.727   0.730   0.741   0.752   0.759   0.772   0.781   0.791
  0.796   0.821   0.825   0.832   0.836   0.854   0.876   0.899
  0.927   0.936   0.941   0.946   0.957   0.958   0.961   0.968
  0.974   0.978   0.983   0.997   1.004   1.006   1.023   1.030
  1.043   1.053   1.068   1.080   1.086   1.101   1.102   1.110
  1.115   1.143   1.152   1.169   1.182   1.199   1.210   1.234
  1.252   1.265   1.284   1.313   1.335   1.343   1.350   1.356
  1.362   1.365   1.387   1.446   1.462   1.468   1.499   1.509
  1.535   1.549   1.567   1.613   1.684   1.687   1.723   1.734
  1.791   1.831   1.870   1.873   1.883   1.896   1.911   1.916
  1.922   1.947   1.960   1.966   2.011   2.021   2.048   2.064
  2.078   2.100   2.124   2.155   2.175   2.188   2.195   2.200
  2.226   2.241   2.254   2.267   2.285   2.326   2.364   2.366
  2.418   2.429   2.444   2.456   2.463   2.469   2.480   2.505
  2.521   2.532   2.538   2.555   2.583   2.592   2.606   2.627
  2.661   2.679   2.701   2.716   2.737   2.788   2.846   2.873
  2.897   2.913   2.942   2.964   3.128   3.177   3.218   3.270
  3.272   3.324   3.413   3.416   3.666   3.732   3.739   3.954
  3.979   3.997   4.255   4.274   4.309   4.316   4.331   4.342
  4.390   4.475   4.550   4.640   4.697   4.730
 --------------------------------------------------------------
 
          Ground-State Mulliken Net Atomic Charges

     Atom                 Charge (a.u.)
  ----------------------------------------
      1 H                     0.196085
      2 H                     0.119912
      3 C                     0.020358
      4 C                    -0.368308
      5 S                    -0.111022
      6 C                     0.471868
      7 H                     0.123987
      8 C                    -0.326051
      9 H                     0.126415
     10 C                    -0.170454
     11 C                     0.016339
     12 S                    -0.167355
     13 C                     0.075477
     14 H                     0.134163
     15 C                    -0.263257
     16 C                    -0.292490
     17 H                     0.145504
     18 C                     0.332380
     19 S                    -0.050306
     20 C                    -0.365324
     21 C                     0.034158
     22 H                     0.120065
     23 H                     0.197856
  ----------------------------------------
  Sum of atomic charges =     0.000000

 -----------------------------------------------------------------
                    Cartesian Multipole Moments
 -----------------------------------------------------------------
    Charge (ESU x 10^10)
                 0.0000
    Dipole Moment (Debye)
         X      -0.2153      Y      -0.3689      Z       0.0161
       Tot       0.4274
    Quadrupole Moments (Debye-Ang)
        XX     -89.5151     XY       1.9091     YY    -101.8032
        XZ      -1.1432     YZ      -1.1677     ZZ    -115.3569
    Octopole Moments (Debye-Ang^2)
       XXX     -21.0792    XXY      -0.7350    XYY      -9.6668
       YYY     -59.0877    XXZ      22.3313    XYZ       6.8899
       YYZ       5.7160    XZZ     -13.8983    YZZ     -22.6391
       ZZZ      36.4717
    Hexadecapole Moments (Debye-Ang^3)
      XXXX   -6212.3961   XXXY     186.4462   XXYY   -1248.1980
      XYYY     271.1462   YYYY    -905.5660   XXXZ     -68.8696
      XXYZ     -41.6684   XYYZ     -15.5892   YYYZ      37.6144
      XXZZ   -1345.1056   XYZZ      87.4006   YYZZ    -203.2729
      XZZZ     -61.1610   YZZZ      39.4672   ZZZZ    -237.6389
 -----------------------------------------------------------------
 Calculating analytic gradient of the SCF energy
 Gradient of SCF Energy
            1           2           3           4           5           6
    1  -0.0000036  -0.0000059  -0.0000588  -0.0000323   0.0000362   0.0000019
    2  -0.0000027   0.0000029  -0.0000349   0.0000159  -0.0000417  -0.0000041
    3   0.0000069   0.0000012  -0.0000147  -0.0000013  -0.0000061   0.0000278
            7           8           9          10          11          12
    1  -0.0000023  -0.0000244  -0.0000133  -0.0001215   0.0000144   0.0002581
    2   0.0000005  -0.0000053  -0.0000569   0.0000884  -0.0000484   0.0003436
    3  -0.0000096  -0.0000162  -0.0000535   0.0000439   0.0000870   0.0000649
           13          14          15          16          17          18
    1  -0.0000143  -0.0000150   0.0002439  -0.0006909  -0.0000411   0.0003506
    2   0.0005561  -0.0000420  -0.0007132  -0.0009664  -0.0000817   0.0007682
    3  -0.0011407   0.0001689   0.0018914  -0.0017103  -0.0001646   0.0010190
           19          20          21          22          23
    1  -0.0000421  -0.0000443   0.0002034  -0.0000107   0.0000119
    2   0.0004397  -0.0001019  -0.0000310  -0.0000479  -0.0000372
    3  -0.0001716  -0.0000726  -0.0000447   0.0000732   0.0000216
 Max gradient component =       1.891E-03
 RMS gradient           =       4.247E-04
 Gradient time:  CPU 4.80 s  wall 4.68 s
 Geometry Optimization Parameters
   NAtoms,    NIC,     NZ,  NCons,   NDum,   NFix, NCnnct, MaxDiis
       23     166       0       1       0       0       0       0

 Cartesian Hessian Update
 Hessian Updated using BFGS Update


** CONSTRAINED OPTIMIZATION IN DELOCALIZED INTERNAL COORDINATES **
   Searching for a Minimum

   Optimization Cycle:   3

                       Coordinates (Angstroms)
     ATOM                X               Y               Z
      1  H         6.2339006288   -0.2647823270    0.1914640774
      2  H         5.3317744102    2.1968442956   -0.1167051583
      3  C         5.2029393164    0.0462211453    0.0932942114
      4  C         4.7061119234    1.3130806390   -0.0664545457
      5  S         3.9353920476   -1.1375334557    0.1349248469
      6  C         3.2857551799    1.3410737070   -0.1711534287
      7  H         2.7124940078    2.2489841576   -0.3226135083
      8  C         2.7024839387    0.0922920508   -0.0887284583
      9  H         1.3104284889   -2.3723481406   -0.6761003604
     10  C         1.2987155928   -0.2650036642   -0.1600427814
     11  C         0.7258369607   -1.4891387243   -0.4429333252
     12  S         0.0527231238    0.9333645525    0.1370446782
     13  C        -0.6934822904   -1.4660614293   -0.4512731682
     14  H        -1.3091417109   -2.3244657998   -0.6942035732
     15  C        -1.2284082581   -0.2286303312   -0.1617695482
     16  C        -2.6328596180    0.1416645054   -0.0911349608
     17  H        -3.5221943147   -1.5593120950    0.9081308258
     18  C        -3.6719594600   -0.5924295633    0.4415312386
     19  S        -3.2271295837    1.6712118478   -0.7167855080
     20  C        -4.9356202168    0.0589349176    0.3431124422
     21  C        -4.8532546766    1.2926224481   -0.2485681019
     22  H        -5.8628762827   -0.3640663773    0.7128057620
     23  H        -5.6481451071    2.0013074210   -0.4366322758
   Point Group: c1    Number of degrees of freedom:    63


   Energy is  -1656.663079777

              Constraints and their Current Values
                                        Value     Constraint
   Dihedral:       13  15  16  18       40.000       40.000
 Hessian Updated using BFGS Update

 60 Hessian modes will be used to form the next step
  Hessian Eigenvalues:
     0.034688    0.045000    0.045000    0.045000    0.045000    0.045000
     0.045000    0.045001    0.045001    0.045002    0.045003    0.045003
     0.045004    0.045009    0.045014    0.045018    0.045028    0.045988
     0.150080    0.159928    0.159949    0.159958    0.159993    0.159999
     0.160034    0.160419    0.178622    0.221286    0.223848    0.227977
     0.237844    0.240366    0.249998    0.249999    0.250025    0.261889
     0.293632    0.294276    0.294926    0.301770    0.312576    0.314014
     0.354716    0.354742    0.354749    0.354800    0.355268    0.358372
     0.358531    0.383468    0.393249    0.405867    0.407894    0.416439
     0.459542    0.462094    0.476576    0.491042    0.497282    0.498133

 Minimum Search - Taking Simple RFO Step
 Searching for Lamda that Minimizes Along All modes
 Value Taken    Lamda =  -0.00000399
 Step Taken.  Stepsize is  0.007457

                             Maximum     Tolerance    Cnvgd?
         Gradient           0.000360      0.000300      NO
         Displacement       0.002874      0.001200      NO
         Energy change     -0.000037      0.000001      NO


 New Cartesian Coordinates Obtained by Inverse Iteration

 Displacement from previous Coordinates is:  0.016591
 ----------------------------------------------------------------
             Standard Nuclear Orientation (Angstroms)
    I     Atom           X                Y                Z
 ----------------------------------------------------------------
    1      H       6.2344273029    -0.2659004594     0.1925351993
    2      H       5.3331753329     2.1958977506    -0.1166029017
    3      C       5.2035951342     0.0454499014     0.0940615698
    4      C       4.7071844236     1.3123735450    -0.0662450091
    5      S       3.9354617010    -1.1377606180     0.1356957884
    6      C       3.2867862270     1.3407966774    -0.1713233249
    7      H       2.7139106586     2.2488901619    -0.3231014665
    8      C       2.7029499969     0.0922594803    -0.0886981499
    9      H       1.3098056726    -2.3716668232    -0.6764691106
   10      C       1.2989364349    -0.2647047561    -0.1602644241
   11      C       0.7253857605    -1.4884546772    -0.4432329126
   12      S       0.0529856466     0.9338383421     0.1365537169
   13      C      -0.6940800843    -1.4647676397    -0.4516041689
   14      H      -1.3101487193    -2.3223172119    -0.6964309993
   15      C      -1.2285588791    -0.2267719800    -0.1621385372
   16      C      -2.6329487632     0.1430454887    -0.0915233123
   17      H      -3.5197803629    -1.5578116397     0.9104410223
   18      C      -3.6713382862    -0.5922488367     0.4417089086
   19      S      -3.2295193500     1.6708026966    -0.7174964204
   20      C      -4.9358654185     0.0578920696     0.3435214092
   21      C      -4.8553344757     1.2913034752    -0.2488299339
   22      H      -5.8626190463    -0.3655538091     0.7137327100
   23      H      -5.6509268063     1.9992386421    -0.4370802730
 ----------------------------------------------------------------
 Nuclear Repulsion Energy =  1176.3185354730 hartrees
 There are       64 alpha and       64 beta electrons
 Applying Cartesian multipole field
    Component          Value
    ---------          -----
     (2,0,0)        1.00000E-12
     (0,2,0)        2.00000E-11
     (0,0,2)       -3.00000E-11
 Nucleus-field energy     =     0.0000000152 hartrees
 Requested basis set is 6-31++G(d,p)
 There are 110 shells and 345 basis functions
 A cutoff of  1.0D-12 yielded   4670 shell pairs
 There are     47571 function pairs

 Q-Chem warning in module /project/projectdirs/jcesr/qchem/qc44/cnl_qc441/compile/cori/qc_src/libqints/qchem/aobasis.C, line 68:

 Using reconstructed effective core potential

 Smallest overlap matrix eigenvalue = 7.63E-08
 Linear dependence detected in AO basis
 Number of orthogonalized atomic orbitals = 342
 Maximum deviation from orthogonality = 8.925E-11
 Guess MOs from SCF MO coefficient file
 Reading MOs from coefficient file
 Reading MOs from coefficient file
 A restricted hybrid HF-DFT SCF calculation will be
 performed using Pulay DIIS extrapolation
 Exchange:     0.2000 Hartree-Fock + 0.0800 Slater + 0.7200 B88
 Correlation:  0.1900 VWN1RPA + 0.8100 LYP
 Using SG-1 standard quadrature grid
 SCF converges when DIIS error is below 1.0E-08
 Geometry optimization detected.  Setting ReadMinima to 0
 Setting SaveMinima to 0
 ---------------------------------------
  Cycle       Energy         DIIS Error
 ---------------------------------------
    1   -1656.6630718592      4.50E-05
    2   -1656.6630804305      1.01E-05
    3   -1656.6630752644      2.05E-05
    4   -1656.6630821167      2.55E-06
    5   -1656.6630822125      8.93E-07
    6   -1656.6630822249      2.61E-07
    7   -1656.6630822251      1.01E-07
    8   -1656.6630822250      3.71E-08
    9   -1656.6630822237      1.34E-08
   10   -1656.6630822246      2.58E-09 Convergence criterion met
 ---------------------------------------
 SCF time:  CPU 11.04 s  wall 10.10 s
 SCF   energy in the final basis set = -1656.6630822246
 Total energy in the final basis set = -1656.6630822246
 
 --------------------------------------------------------------
 
                    Orbital Energies (a.u.)
 --------------------------------------------------------------
 
 Alpha MOs
 -- Occupied --
-88.922 -88.921 -88.921 -10.241 -10.240 -10.240 -10.239 -10.226
-10.226 -10.206 -10.206 -10.206 -10.206 -10.205 -10.205  -7.981
 -7.981  -7.980  -5.945  -5.945  -5.945  -5.941  -5.941  -5.941
 -5.938  -5.938  -5.938  -0.907  -0.892  -0.876  -0.787  -0.755
 -0.745  -0.744  -0.734  -0.697  -0.617  -0.595  -0.568  -0.564
 -0.537  -0.533  -0.529  -0.499  -0.463  -0.422  -0.420  -0.418
 -0.415  -0.408  -0.402  -0.398  -0.386  -0.376  -0.370  -0.360
 -0.352  -0.344  -0.291  -0.266  -0.263  -0.261  -0.249  -0.204
 -- Virtual --
 -0.068  -0.032  -0.009  -0.005  -0.004   0.001   0.008   0.010
  0.016   0.018   0.024   0.028   0.033   0.033   0.038   0.044
  0.046   0.048   0.053   0.054   0.060   0.063   0.074   0.077
  0.081   0.089   0.091   0.095   0.097   0.105   0.108   0.111
  0.112   0.115   0.122   0.124   0.125   0.132   0.132   0.134
  0.138   0.139   0.141   0.146   0.149   0.150   0.153   0.156
  0.160   0.168   0.171   0.175   0.179   0.186   0.187   0.188
  0.196   0.200   0.204   0.206   0.210   0.211   0.218   0.220
  0.232   0.235   0.238   0.246   0.248   0.257   0.258   0.264
  0.266   0.271   0.274   0.284   0.292   0.298   0.305   0.308
  0.319   0.321   0.334   0.345   0.345   0.353   0.360   0.367
  0.371   0.378   0.392   0.402   0.448   0.454   0.457   0.488
  0.511   0.520   0.526   0.530   0.566   0.570   0.576   0.582
  0.584   0.612   0.616   0.627   0.645   0.654   0.659   0.659
  0.669   0.674   0.683   0.689   0.710   0.712   0.718   0.725
  0.727   0.730   0.741   0.752   0.759   0.772   0.781   0.791
  0.796   0.821   0.825   0.832   0.836   0.854   0.876   0.899
  0.927   0.936   0.941   0.946   0.957   0.958   0.961   0.968
  0.974   0.978   0.983   0.997   1.004   1.006   1.023   1.030
  1.043   1.053   1.068   1.080   1.086   1.100   1.102   1.110
  1.115   1.143   1.152   1.169   1.182   1.199   1.210   1.234
  1.252   1.265   1.284   1.313   1.335   1.343   1.350   1.356
  1.362   1.365   1.387   1.446   1.463   1.468   1.498   1.509
  1.535   1.549   1.567   1.613   1.684   1.687   1.723   1.735
  1.791   1.830   1.870   1.873   1.883   1.896   1.911   1.916
  1.922   1.947   1.960   1.966   2.011   2.021   2.048   2.064
  2.078   2.100   2.124   2.155   2.175   2.188   2.195   2.200
  2.226   2.241   2.254   2.267   2.286   2.326   2.364   2.366
  2.418   2.429   2.444   2.456   2.463   2.469   2.480   2.505
  2.521   2.532   2.538   2.555   2.583   2.592   2.606   2.627
  2.661   2.679   2.701   2.716   2.736   2.788   2.846   2.873
  2.897   2.913   2.942   2.964   3.128   3.177   3.218   3.270
  3.272   3.324   3.413   3.416   3.666   3.732   3.739   3.954
  3.979   3.997   4.255   4.275   4.309   4.316   4.331   4.342
  4.390   4.475   4.550   4.639   4.697   4.730
 --------------------------------------------------------------
 
          Ground-State Mulliken Net Atomic Charges

     Atom                 Charge (a.u.)
  ----------------------------------------
      1 H                     0.196108
      2 H                     0.119926
      3 C                     0.020556
      4 C                    -0.368369
      5 S                    -0.111044
      6 C                     0.471488
      7 H                     0.123993
      8 C                    -0.325815
      9 H                     0.126413
     10 C                    -0.170306
     11 C                     0.015594
     12 S                    -0.166199
     13 C                     0.074206
     14 H                     0.134286
     15 C                    -0.262296
     16 C                    -0.292810
     17 H                     0.145655
     18 C                     0.331818
     19 S                    -0.049622
     20 C                    -0.366038
     21 C                     0.034476
     22 H                     0.120086
     23 H                     0.197894
  ----------------------------------------
  Sum of atomic charges =     0.000000

 -----------------------------------------------------------------
                    Cartesian Multipole Moments
 -----------------------------------------------------------------
    Charge (ESU x 10^10)
                 0.0000
    Dipole Moment (Debye)
         X      -0.2142      Y      -0.3673      Z       0.0163
       Tot       0.4255
    Quadrupole Moments (Debye-Ang)
        XX     -89.4993     XY       1.9016     YY    -101.8239
        XZ      -1.1421     YZ      -1.1675     ZZ    -115.3498
    Octopole Moments (Debye-Ang^2)
       XXX     -21.0272    XXY      -0.6825    XYY      -9.6031
       YYY     -59.0968    XXZ      22.3486    XYZ       6.8860
       YYZ       5.7240    XZZ     -13.8937    YZZ     -22.6550
       ZZZ      36.4967
    Hexadecapole Moments (Debye-Ang^3)
      XXXX   -6213.9190   XXXY     186.2012   XXYY   -1248.7142
      XYYY     271.3260   YYYY    -905.2875   XXXZ     -68.9965
      XXYZ     -41.7317   XYYZ     -15.7197   YYYZ      37.7392
      XXZZ   -1345.5524   XYZZ      87.4765   YYZZ    -203.1896
      XZZZ     -61.5599   YZZZ      39.5674   ZZZZ    -237.8141
 -----------------------------------------------------------------
 Calculating analytic gradient of the SCF energy
 Gradient of SCF Energy
            1           2           3           4           5           6
    1   0.0000040   0.0000035   0.0000049   0.0000215   0.0000135  -0.0000037
    2   0.0000016  -0.0000046  -0.0000089  -0.0000021   0.0000221  -0.0000115
    3   0.0000053   0.0000026  -0.0000071  -0.0000003  -0.0000128   0.0000273
            7           8           9          10          11          12
    1  -0.0000005   0.0000072  -0.0000057  -0.0000698   0.0001288   0.0000922
    2  -0.0000051  -0.0000218   0.0000133   0.0000029  -0.0000233   0.0000327
    3  -0.0000045  -0.0000148  -0.0000361   0.0000231   0.0000853  -0.0000303
           13          14          15          16          17          18
    1  -0.0000744  -0.0000194   0.0000683  -0.0002988   0.0000008   0.0003161
    2   0.0003647  -0.0000116  -0.0002722  -0.0006818  -0.0000453   0.0005366
    3  -0.0010533   0.0000920   0.0019946  -0.0018725  -0.0000966   0.0009540
           19          20          21          22          23
    1  -0.0000758  -0.0001298   0.0000305   0.0000137  -0.0000272
    2   0.0000766   0.0000361  -0.0000190   0.0000225  -0.0000018
    3   0.0000085  -0.0000929  -0.0000193   0.0000340   0.0000136
 Max gradient component =       1.995E-03
 RMS gradient           =       3.951E-04
 Gradient time:  CPU 4.66 s  wall 4.66 s
 Geometry Optimization Parameters
   NAtoms,    NIC,     NZ,  NCons,   NDum,   NFix, NCnnct, MaxDiis
       23     166       0       1       0       0       0       0

 Cartesian Hessian Update
 Hessian Updated using BFGS Update


** CONSTRAINED OPTIMIZATION IN DELOCALIZED INTERNAL COORDINATES **
   Searching for a Minimum

   Optimization Cycle:   4

                       Coordinates (Angstroms)
     ATOM                X               Y               Z
      1  H         6.2344273029   -0.2659004594    0.1925351993
      2  H         5.3331753329    2.1958977506   -0.1166029017
      3  C         5.2035951342    0.0454499014    0.0940615698
      4  C         4.7071844236    1.3123735450   -0.0662450091
      5  S         3.9354617010   -1.1377606180    0.1356957884
      6  C         3.2867862270    1.3407966774   -0.1713233249
      7  H         2.7139106586    2.2488901619   -0.3231014665
      8  C         2.7029499969    0.0922594803   -0.0886981499
      9  H         1.3098056726   -2.3716668232   -0.6764691106
     10  C         1.2989364349   -0.2647047561   -0.1602644241
     11  C         0.7253857605   -1.4884546772   -0.4432329126
     12  S         0.0529856466    0.9338383421    0.1365537169
     13  C        -0.6940800843   -1.4647676397   -0.4516041689
     14  H        -1.3101487193   -2.3223172119   -0.6964309993
     15  C        -1.2285588791   -0.2267719800   -0.1621385372
     16  C        -2.6329487632    0.1430454887   -0.0915233123
     17  H        -3.5197803629   -1.5578116397    0.9104410223
     18  C        -3.6713382862   -0.5922488367    0.4417089086
     19  S        -3.2295193500    1.6708026966   -0.7174964204
     20  C        -4.9358654185    0.0578920696    0.3435214092
     21  C        -4.8553344757    1.2913034752   -0.2488299339
     22  H        -5.8626190463   -0.3655538091    0.7137327100
     23  H        -5.6509268063    1.9992386421   -0.4370802730
   Point Group: c1    Number of degrees of freedom:    63


   Energy is  -1656.663082225

              Constraints and their Current Values
                                        Value     Constraint
   Dihedral:       13  15  16  18       40.000       40.000
 Hessian Updated using BFGS Update

 62 Hessian modes will be used to form the next step
  Hessian Eigenvalues:
     0.025214    0.042441    0.045000    0.045000    0.045000    0.045000
     0.045000    0.045000    0.045000    0.045001    0.045001    0.045002
     0.045003    0.045004    0.045009    0.045011    0.045016    0.045020
     0.045274    0.154596    0.158933    0.159931    0.159952    0.159958
     0.159997    0.160012    0.160715    0.183402    0.221247    0.221827
     0.226545    0.237797    0.241868    0.249000    0.249998    0.250000
     0.281041    0.287279    0.293635    0.294541    0.296268    0.312547
     0.315280    0.354718    0.354742    0.354750    0.354864    0.355164
     0.355670    0.358372    0.359010    0.384927    0.390184    0.405879
     0.410333    0.451456    0.459790    0.463052    0.468145    0.484752
     0.497261    0.503865

 Minimum Search - Taking Simple RFO Step
 Searching for Lamda that Minimizes Along All modes
 Value Taken    Lamda =  -0.00000116
 Step Taken.  Stepsize is  0.005723

                             Maximum     Tolerance    Cnvgd?
         Gradient           0.000144      0.000300     YES
         Displacement       0.002474      0.001200      NO
         Energy change     -0.000002      0.000001      NO


 New Cartesian Coordinates Obtained by Inverse Iteration

 Displacement from previous Coordinates is:  0.007398
 ----------------------------------------------------------------
             Standard Nuclear Orientation (Angstroms)
    I     Atom           X                Y                Z
 ----------------------------------------------------------------
    1      H       6.2340943335    -0.2658812810     0.1931967310
    2      H       5.3328817940     2.1959163376    -0.1163617337
    3      C       5.2032866542     0.0454810369     0.0945582435
    4      C       4.7068969504     1.3123863735    -0.0660131701
    5      S       3.9351736733    -1.1377846672     0.1360797924
    6      C       3.2865451617     1.3408008301    -0.1714060620
    7      H       2.7136928607     2.2488870989    -0.3233311289
    8      C       2.7027717995     0.0922352316    -0.0887396110
    9      H       1.3096013196    -2.3716481168    -0.6771705108
   10      C       1.2988303811    -0.2648413998    -0.1605374374
   11      C       0.7251421934    -1.4884933951    -0.4438350891
   12      S       0.0528434647     0.9335650585     0.1367243438
   13      C      -0.6942167903    -1.4648877104    -0.4519543231
   14      H      -1.3102412428    -2.3220238594    -0.6983134477
   15      C      -1.2285061988    -0.2266212642    -0.1624124892
   16      C      -2.6327175419     0.1432126558    -0.0915722899
   17      H      -3.5190920333    -1.5569760894     0.9124925667
   18      C      -3.6710181021    -0.5923141748     0.4420374320
   19      S      -3.2293530335     1.6702105500    -0.7182731693
   20      C      -4.9353843933     0.0578982592     0.3440576727
   21      C      -4.8550720454     1.2910579687    -0.2489606579
   22      H      -5.8621273952    -0.3653575457     0.7145094377
   23      H      -5.6505477095     1.9990078832    -0.4375657195
 ----------------------------------------------------------------
 Nuclear Repulsion Energy =  1176.3661229011 hartrees
 There are       64 alpha and       64 beta electrons
 Applying Cartesian multipole field
    Component          Value
    ---------          -----
     (2,0,0)        1.00000E-12
     (0,2,0)        2.00000E-11
     (0,0,2)       -3.00000E-11
 Nucleus-field energy     =     0.0000000152 hartrees
 Requested basis set is 6-31++G(d,p)
 There are 110 shells and 345 basis functions
 A cutoff of  1.0D-12 yielded   4670 shell pairs
 There are     47571 function pairs

 Q-Chem warning in module /project/projectdirs/jcesr/qchem/qc44/cnl_qc441/compile/cori/qc_src/libqints/qchem/aobasis.C, line 68:

 Using reconstructed effective core potential

 Smallest overlap matrix eigenvalue = 7.62E-08
 Linear dependence detected in AO basis
 Number of orthogonalized atomic orbitals = 342
 Maximum deviation from orthogonality = 1.150E-10
 Guess MOs from SCF MO coefficient file
 Reading MOs from coefficient file
 Reading MOs from coefficient file
 A restricted hybrid HF-DFT SCF calculation will be
 performed using Pulay DIIS extrapolation
 Exchange:     0.2000 Hartree-Fock + 0.0800 Slater + 0.7200 B88
 Correlation:  0.1900 VWN1RPA + 0.8100 LYP
 Using SG-1 standard quadrature grid
 SCF converges when DIIS error is below 1.0E-08
 Geometry optimization detected.  Setting ReadMinima to 0
 Setting SaveMinima to 0
 ---------------------------------------
  Cycle       Energy         DIIS Error
 ---------------------------------------
    1   -1656.6632906455      1.66E-05
    2   -1656.6630827686      2.82E-06
    3   -1656.6630823976      5.53E-06
    4   -1656.6630829060      9.04E-07
    5   -1656.6630829192      2.85E-07
    6   -1656.6630829213      1.24E-07
    7   -1656.6630829191      4.85E-08
    8   -1656.6630829194      1.22E-08
    9   -1656.6630829180      3.96E-09 Convergence criterion met
 ---------------------------------------
 SCF time:  CPU 9.90 s  wall 9.05 s
 SCF   energy in the final basis set = -1656.6630829180
 Total energy in the final basis set = -1656.6630829180
 
 --------------------------------------------------------------
 
                    Orbital Energies (a.u.)
 --------------------------------------------------------------
 
 Alpha MOs
 -- Occupied --
-88.922 -88.921 -88.921 -10.241 -10.240 -10.240 -10.239 -10.226
-10.226 -10.206 -10.206 -10.206 -10.206 -10.205 -10.205  -7.981
 -7.981  -7.980  -5.945  -5.945  -5.945  -5.941  -5.941  -5.941
 -5.938  -5.938  -5.938  -0.907  -0.892  -0.876  -0.787  -0.755
 -0.745  -0.744  -0.734  -0.697  -0.617  -0.595  -0.568  -0.564
 -0.537  -0.533  -0.529  -0.499  -0.463  -0.422  -0.420  -0.418
 -0.415  -0.408  -0.402  -0.398  -0.386  -0.376  -0.370  -0.360
 -0.352  -0.344  -0.291  -0.266  -0.263  -0.261  -0.249  -0.204
 -- Virtual --
 -0.068  -0.032  -0.009  -0.005  -0.004   0.001   0.008   0.010
  0.016   0.018   0.024   0.028   0.033   0.033   0.038   0.044
  0.046   0.048   0.053   0.054   0.060   0.063   0.074   0.077
  0.081   0.089   0.091   0.095   0.097   0.105   0.108   0.111
  0.112   0.115   0.122   0.124   0.125   0.132   0.132   0.134
  0.138   0.139   0.141   0.146   0.149   0.150   0.153   0.156
  0.160   0.168   0.171   0.175   0.179   0.186   0.187   0.188
  0.195   0.200   0.204   0.206   0.210   0.211   0.218   0.220
  0.232   0.235   0.238   0.246   0.248   0.257   0.258   0.264
  0.266   0.271   0.274   0.284   0.292   0.298   0.305   0.308
  0.319   0.321   0.334   0.345   0.345   0.353   0.360   0.367
  0.371   0.378   0.392   0.402   0.448   0.454   0.457   0.488
  0.511   0.520   0.526   0.530   0.566   0.570   0.576   0.582
  0.584   0.612   0.616   0.627   0.645   0.654   0.659   0.659
  0.669   0.674   0.683   0.689   0.710   0.712   0.718   0.725
  0.727   0.730   0.741   0.752   0.759   0.772   0.781   0.791
  0.796   0.821   0.825   0.832   0.836   0.854   0.876   0.899
  0.927   0.936   0.941   0.946   0.957   0.958   0.961   0.968
  0.974   0.978   0.984   0.997   1.004   1.006   1.023   1.031
  1.043   1.053   1.068   1.080   1.086   1.100   1.102   1.110
  1.115   1.143   1.152   1.169   1.182   1.199   1.210   1.234
  1.252   1.265   1.284   1.313   1.335   1.342   1.350   1.356
  1.362   1.365   1.387   1.446   1.463   1.468   1.498   1.509
  1.535   1.549   1.567   1.613   1.684   1.687   1.723   1.735
  1.791   1.831   1.870   1.873   1.883   1.896   1.911   1.916
  1.922   1.947   1.960   1.966   2.011   2.021   2.048   2.064
  2.078   2.100   2.124   2.155   2.175   2.188   2.195   2.200
  2.226   2.242   2.254   2.267   2.286   2.327   2.364   2.366
  2.418   2.429   2.444   2.456   2.463   2.468   2.480   2.506
  2.521   2.532   2.538   2.555   2.583   2.592   2.606   2.627
  2.661   2.679   2.701   2.716   2.736   2.788   2.846   2.873
  2.897   2.913   2.942   2.964   3.128   3.177   3.218   3.270
  3.272   3.325   3.413   3.416   3.666   3.732   3.739   3.954
  3.979   3.997   4.255   4.275   4.309   4.316   4.331   4.342
  4.390   4.475   4.550   4.639   4.697   4.730
 --------------------------------------------------------------
 
          Ground-State Mulliken Net Atomic Charges

     Atom                 Charge (a.u.)
  ----------------------------------------
      1 H                     0.196096
      2 H                     0.119919
      3 C                     0.020538
      4 C                    -0.368461
      5 S                    -0.111006
      6 C                     0.471521
      7 H                     0.124010
      8 C                    -0.325813
      9 H                     0.126427
     10 C                    -0.170430
     11 C                     0.015719
     12 S                    -0.166085
     13 C                     0.074188
     14 H                     0.134359
     15 C                    -0.262628
     16 C                    -0.293114
     17 H                     0.145752
     18 C                     0.332173
     19 S                    -0.049467
     20 C                    -0.366057
     21 C                     0.034387
     22 H                     0.120097
     23 H                     0.197876
  ----------------------------------------
  Sum of atomic charges =     0.000000

 -----------------------------------------------------------------
                    Cartesian Multipole Moments
 -----------------------------------------------------------------
    Charge (ESU x 10^10)
                 0.0000
    Dipole Moment (Debye)
         X      -0.2141      Y      -0.3658      Z       0.0162
       Tot       0.4241
    Quadrupole Moments (Debye-Ang)
        XX     -89.5109     XY       1.8971     YY    -101.8274
        XZ      -1.1411     YZ      -1.1681     ZZ    -115.3411
    Octopole Moments (Debye-Ang^2)
       XXX     -20.9964    XXY      -0.6638    XYY      -9.5835
       YYY     -59.0479    XXZ      22.3673    XYZ       6.8942
       YYZ       5.7180    XZZ     -13.9112    YZZ     -22.6497
       ZZZ      36.5077
    Hexadecapole Moments (Debye-Ang^3)
      XXXX   -6213.5862   XXXY     186.0693   XXYY   -1248.5954
      XYYY     271.2105   YYYY    -905.1208   XXXZ     -69.0745
      XXYZ     -41.7861   XYYZ     -15.7504   YYYZ      37.7694
      XXZZ   -1345.3142   XYZZ      87.4534   YYZZ    -203.1524
      XZZZ     -61.7295   YZZZ      39.5754   ZZZZ    -238.0008
 -----------------------------------------------------------------
 Calculating analytic gradient of the SCF energy
 Gradient of SCF Energy
            1           2           3           4           5           6
    1  -0.0000010   0.0000004  -0.0000021   0.0000024  -0.0000036   0.0000007
    2  -0.0000028  -0.0000025  -0.0000005   0.0000016  -0.0000050   0.0000001
    3   0.0000028   0.0000020  -0.0000039  -0.0000022  -0.0000092   0.0000194
            7           8           9          10          11          12
    1   0.0000014   0.0000263  -0.0000053  -0.0000221   0.0000300  -0.0000073
    2   0.0000007  -0.0000008   0.0000186  -0.0000112  -0.0000117  -0.0000330
    3  -0.0000003  -0.0000069  -0.0000224   0.0000079   0.0000495  -0.0000378
           13          14          15          16          17          18
    1  -0.0000136  -0.0000043   0.0000438  -0.0001726  -0.0000025   0.0001606
    2   0.0001975  -0.0000094  -0.0000389  -0.0004640  -0.0000214   0.0003806
    3  -0.0009626   0.0000297   0.0019810  -0.0019076  -0.0000346   0.0008932
           19          20          21          22          23
    1  -0.0000104  -0.0000299   0.0000014   0.0000131  -0.0000055
    2  -0.0000228   0.0000028  -0.0000095   0.0000228   0.0000089
    3   0.0000291  -0.0000423  -0.0000062   0.0000191   0.0000024
 Max gradient component =       1.981E-03
 RMS gradient           =       3.762E-04
 Gradient time:  CPU 4.78 s  wall 4.67 s
 Geometry Optimization Parameters
   NAtoms,    NIC,     NZ,  NCons,   NDum,   NFix, NCnnct, MaxDiis
       23     166       0       1       0       0       0       0

 Cartesian Hessian Update
 Hessian Updated using BFGS Update


** CONSTRAINED OPTIMIZATION IN DELOCALIZED INTERNAL COORDINATES **
   Searching for a Minimum

   Optimization Cycle:   5

                       Coordinates (Angstroms)
     ATOM                X               Y               Z
      1  H         6.2340943335   -0.2658812810    0.1931967310
      2  H         5.3328817940    2.1959163376   -0.1163617337
      3  C         5.2032866542    0.0454810369    0.0945582435
      4  C         4.7068969504    1.3123863735   -0.0660131701
      5  S         3.9351736733   -1.1377846672    0.1360797924
      6  C         3.2865451617    1.3408008301   -0.1714060620
      7  H         2.7136928607    2.2488870989   -0.3233311289
      8  C         2.7027717995    0.0922352316   -0.0887396110
      9  H         1.3096013196   -2.3716481168   -0.6771705108
     10  C         1.2988303811   -0.2648413998   -0.1605374374
     11  C         0.7251421934   -1.4884933951   -0.4438350891
     12  S         0.0528434647    0.9335650585    0.1367243438
     13  C        -0.6942167903   -1.4648877104   -0.4519543231
     14  H        -1.3102412428   -2.3220238594   -0.6983134477
     15  C        -1.2285061988   -0.2266212642   -0.1624124892
     16  C        -2.6327175419    0.1432126558   -0.0915722899
     17  H        -3.5190920333   -1.5569760894    0.9124925667
     18  C        -3.6710181021   -0.5923141748    0.4420374320
     19  S        -3.2293530335    1.6702105500   -0.7182731693
     20  C        -4.9353843933    0.0578982592    0.3440576727
     21  C        -4.8550720454    1.2910579687   -0.2489606579
     22  H        -5.8621273952   -0.3653575457    0.7145094377
     23  H        -5.6505477095    1.9990078832   -0.4375657195
   Point Group: c1    Number of degrees of freedom:    63


   Energy is  -1656.663082918

              Constraints and their Current Values
                                        Value     Constraint
   Dihedral:       13  15  16  18       40.000       40.000
 Hessian Updated using BFGS Update

 62 Hessian modes will be used to form the next step
  Hessian Eigenvalues:
     0.018680    0.040629    0.045000    0.045000    0.045000    0.045000
     0.045000    0.045000    0.045000    0.045001    0.045002    0.045002
     0.045003    0.045008    0.045010    0.045014    0.045017    0.045040
     0.046027    0.151541    0.159773    0.159930    0.159952    0.159971
     0.159997    0.160056    0.160664    0.180845    0.221211    0.224032
     0.229498    0.238202    0.243205    0.249866    0.250000    0.250084
     0.283651    0.293472    0.293889    0.295446    0.295966    0.312602
     0.315048    0.354726    0.354749    0.354764    0.354898    0.355164
     0.355857    0.358379    0.359007    0.385239    0.396826    0.405852
     0.410379    0.448186    0.459644    0.463930    0.480722    0.490713
     0.497229    0.502344

 Minimum Search - Taking Simple RFO Step
 Searching for Lamda that Minimizes Along All modes
 Value Taken    Lamda =   0.00000000
 Step Taken.  Stepsize is  0.002814

                             Maximum     Tolerance    Cnvgd?
         Gradient           0.000049      0.000300     YES
         Displacement       0.001270      0.001200      NO
         Energy change     -0.000001      0.000001     YES

 Final energy is   -1656.66308291804     


 ******************************
 **  OPTIMIZATION CONVERGED  **
 ******************************

                       Coordinates (Angstroms)
     ATOM                X               Y               Z
      1  H         6.2340943335   -0.2658812810    0.1931967310
      2  H         5.3328817940    2.1959163376   -0.1163617337
      3  C         5.2032866542    0.0454810369    0.0945582435
      4  C         4.7068969504    1.3123863735   -0.0660131701
      5  S         3.9351736733   -1.1377846672    0.1360797924
      6  C         3.2865451617    1.3408008301   -0.1714060620
      7  H         2.7136928607    2.2488870989   -0.3233311289
      8  C         2.7027717995    0.0922352316   -0.0887396110
      9  H         1.3096013196   -2.3716481168   -0.6771705108
     10  C         1.2988303811   -0.2648413998   -0.1605374374
     11  C         0.7251421934   -1.4884933951   -0.4438350891
     12  S         0.0528434647    0.9335650585    0.1367243438
     13  C        -0.6942167903   -1.4648877104   -0.4519543231
     14  H        -1.3102412428   -2.3220238594   -0.6983134477
     15  C        -1.2285061988   -0.2266212642   -0.1624124892
     16  C        -2.6327175419    0.1432126558   -0.0915722899
     17  H        -3.5190920333   -1.5569760894    0.9124925667
     18  C        -3.6710181021   -0.5923141748    0.4420374320
     19  S        -3.2293530335    1.6702105500   -0.7182731693
     20  C        -4.9353843933    0.0578982592    0.3440576727
     21  C        -4.8550720454    1.2910579687   -0.2489606579
     22  H        -5.8621273952   -0.3653575457    0.7145094377
     23  H        -5.6505477095    1.9990078832   -0.4375657195

Z-matrix Print:
$molecule
0 1
S 
C  1 1.754145
C  2 1.380833 1 110.186465
H  3 1.084435 2 122.814254 1 178.903218 0
C  3 1.419578 2 113.693173 1 1.254946 0
H  5 1.083910 3 123.807044 2 177.152500 0
C  5 1.379349 3 113.641731 2 -0.594630 0
C  2 1.450417 1 120.728338 3 -179.880288 0
C  8 1.380776 2 128.968405 1 -19.841154 0
H  9 1.084372 8 122.839297 2 -0.926021 0
C  9 1.424540 8 113.520530 2 -179.691067 0
H  11 1.083982 9 123.786115 8 179.544175 0
C  11 1.370122 9 112.851562 8 0.086404 0
H  13 1.081314 11 128.485750 9 179.565228 0
C  7 1.453824 5 127.786909 3 179.825795 0
C  15 1.379785 7 127.594295 5 40.000000 0
H  16 1.083966 15 122.464686 7 2.073203 0
C  16 1.425131 15 113.441885 7 -179.590852 0
H  18 1.084081 16 123.835096 15 -179.603805 0
C  18 1.370695 16 112.844389 15 -0.695624 0
H  20 1.081456 18 128.410823 16 -179.179006 0
S  20 1.734063 18 111.637536 16 0.761092 0
S  13 1.734921 11 111.631695 9 -0.586766 0
$end

 
 --------------------------------------------------------------
 
                    Orbital Energies (a.u.)
 --------------------------------------------------------------
 
 Alpha MOs
 -- Occupied --
-88.922 -88.921 -88.921 -10.241 -10.240 -10.240 -10.239 -10.226
-10.226 -10.206 -10.206 -10.206 -10.206 -10.205 -10.205  -7.981
 -7.981  -7.980  -5.945  -5.945  -5.945  -5.941  -5.941  -5.941
 -5.938  -5.938  -5.938  -0.907  -0.892  -0.876  -0.787  -0.755
 -0.745  -0.744  -0.734  -0.697  -0.617  -0.595  -0.568  -0.564
 -0.537  -0.533  -0.529  -0.499  -0.463  -0.422  -0.420  -0.418
 -0.415  -0.408  -0.402  -0.398  -0.386  -0.376  -0.370  -0.360
 -0.352  -0.344  -0.291  -0.266  -0.263  -0.261  -0.249  -0.204
 -- Virtual --
 -0.068  -0.032  -0.009  -0.005  -0.004   0.001   0.008   0.010
  0.016   0.018   0.024   0.028   0.033   0.033   0.038   0.044
  0.046   0.048   0.053   0.054   0.060   0.063   0.074   0.077
  0.081   0.089   0.091   0.095   0.097   0.105   0.108   0.111
  0.112   0.115   0.122   0.124   0.125   0.132   0.132   0.134
  0.138   0.139   0.141   0.146   0.149   0.150   0.153   0.156
  0.160   0.168   0.171   0.175   0.179   0.186   0.187   0.188
  0.195   0.200   0.204   0.206   0.210   0.211   0.218   0.220
  0.232   0.235   0.238   0.246   0.248   0.257   0.258   0.264
  0.266   0.271   0.274   0.284   0.292   0.298   0.305   0.308
  0.319   0.321   0.334   0.345   0.345   0.353   0.360   0.367
  0.371   0.378   0.392   0.402   0.448   0.454   0.457   0.488
  0.511   0.520   0.526   0.530   0.566   0.570   0.576   0.582
  0.584   0.612   0.616   0.627   0.645   0.654   0.659   0.659
  0.669   0.674   0.683   0.689   0.710   0.712   0.718   0.725
  0.727   0.730   0.741   0.752   0.759   0.772   0.781   0.791
  0.796   0.821   0.825   0.832   0.836   0.854   0.876   0.899
  0.927   0.936   0.941   0.946   0.957   0.958   0.961   0.968
  0.974   0.978   0.984   0.997   1.004   1.006   1.023   1.031
  1.043   1.053   1.068   1.080   1.086   1.100   1.102   1.110
  1.115   1.143   1.152   1.169   1.182   1.199   1.210   1.234
  1.252   1.265   1.284   1.313   1.335   1.342   1.350   1.356
  1.362   1.365   1.387   1.446   1.463   1.468   1.498   1.509
  1.535   1.549   1.567   1.613   1.684   1.687   1.723   1.735
  1.791   1.831   1.870   1.873   1.883   1.896   1.911   1.916
  1.922   1.947   1.960   1.966   2.011   2.021   2.048   2.064
  2.078   2.100   2.124   2.155   2.175   2.188   2.195   2.200
  2.226   2.242   2.254   2.267   2.286   2.327   2.364   2.366
  2.418   2.429   2.444   2.456   2.463   2.468   2.480   2.506
  2.521   2.532   2.538   2.555   2.583   2.592   2.606   2.627
  2.661   2.679   2.701   2.716   2.736   2.788   2.846   2.873
  2.897   2.913   2.942   2.964   3.128   3.177   3.218   3.270
  3.272   3.325   3.413   3.416   3.666   3.732   3.739   3.954
  3.979   3.997   4.255   4.275   4.309   4.316   4.331   4.342
  4.390   4.475   4.550   4.639   4.697   4.730
 --------------------------------------------------------------
 
          Ground-State Mulliken Net Atomic Charges

     Atom                 Charge (a.u.)
  ----------------------------------------
      1 H                     0.196096
      2 H                     0.119919
      3 C                     0.020538
      4 C                    -0.368461
      5 S                    -0.111006
      6 C                     0.471521
      7 H                     0.124010
      8 C                    -0.325813
      9 H                     0.126427
     10 C                    -0.170430
     11 C                     0.015719
     12 S                    -0.166085
     13 C                     0.074188
     14 H                     0.134359
     15 C                    -0.262628
     16 C                    -0.293114
     17 H                     0.145752
     18 C                     0.332173
     19 S                    -0.049467
     20 C                    -0.366057
     21 C                     0.034387
     22 H                     0.120097
     23 H                     0.197876
  ----------------------------------------
  Sum of atomic charges =     0.000000

 -----------------------------------------------------------------
                    Cartesian Multipole Moments
 -----------------------------------------------------------------
    Charge (ESU x 10^10)
                 0.0000
    Dipole Moment (Debye)
         X      -0.2141      Y      -0.3658      Z       0.0162
       Tot       0.4241
    Quadrupole Moments (Debye-Ang)
        XX     -89.5109     XY       1.8971     YY    -101.8274
        XZ      -1.1411     YZ      -1.1681     ZZ    -115.3411
    Octopole Moments (Debye-Ang^2)
       XXX     -20.9964    XXY      -0.6638    XYY      -9.5835
       YYY     -59.0479    XXZ      22.3673    XYZ       6.8942
       YYZ       5.7180    XZZ     -13.9112    YZZ     -22.6497
       ZZZ      36.5077
    Hexadecapole Moments (Debye-Ang^3)
      XXXX   -6213.5862   XXXY     186.0693   XXYY   -1248.5954
      XYYY     271.2105   YYYY    -905.1208   XXXZ     -69.0745
      XXYZ     -41.7861   XYYZ     -15.7504   YYYZ      37.7694
      XXZZ   -1345.3142   XYZZ      87.4534   YYZZ    -203.1524
      XZZZ     -61.7295   YZZZ      39.5754   ZZZZ    -238.0008
 -----------------------------------------------------------------
Archival summary:
1\1\nid00506\OPT\ProcedureUnspecified\BasisUnspecified\3128\bwood\TueMay3010:54:082017TueMay3010:54:082017\0\\#,OPT,ProcedureUnspecified,BasisUnspecified,\\0,1\S\C,1,1.75415\C,2,1.38083,1,110.186\H,3,1.08444,2,122.814,1,178.903,0\C,3,1.41958,2,113.693,1,1.25495,0\H,5,1.08391,3,123.807,2,177.152,0\C,5,1.37935,3,113.642,2,-0.59463,0\C,2,1.45042,1,120.728,3,-179.88,0\C,8,1.38078,2,128.968,1,-19.8412,0\H,9,1.08437,8,122.839,2,-0.926021,0\C,9,1.42454,8,113.521,2,-179.691,0\H,11,1.08398,9,123.786,8,179.544,0\C,11,1.37012,9,112.852,8,0.0864041,0\H,13,1.08131,11,128.486,9,179.565,0\C,7,1.45382,5,127.787,3,179.826,0\C,15,1.37979,7,127.594,5,40,0\H,16,1.08397,15,122.465,7,2.0732,0\C,16,1.42513,15,113.442,7,-179.591,0\H,18,1.08408,16,123.835,15,-179.604,0\C,18,1.37069,16,112.844,15,-0.695624,0\H,20,1.08146,18,128.411,16,-179.179,0\S,20,1.73406,18,111.638,16,0.761092,0\S,13,1.73492,11,111.632,9,-0.586766,0\\\@

 Total job time:  85.74s(wall), 90.91s(cpu) 
 Tue May 30 10:54:08 2017

        *************************************************************
        *                                                           *
        *  Thank you very much for using Q-Chem.  Have a nice day.  *
        *                                                           *
        *************************************************************


0 sent ACK to 0 
now end server 0 ... 
