srun -N 1 --ntasks-per-node 22 --cpus-per-task 2 --cpu_bind=cores --nodelist nid00499 /global/project/projectdirs/jcesr/qchem/qc44/cnl_qc441/dist/exe/qcprog.cori.haswell.exe .pt_nn_neutral_30.0.in.38098.qcin.1 /dev/shm/eg_qchem/qchem38098/
Process 1 of 22 is on nid00499 - thread support 0
Process 3 of 22 is on nid00499 - thread support 0
Process 4 of 22 is on nid00499 - thread support 0
Process 6 of 22 is on nid00499 - thread support 0
Process 0 of 22 is on nid00499 - thread support 0
Process 2 of 22 is on nid00499 - thread support 0
Process 5 of 22 is on nid00499 - thread support 0
Process 21 of 22 is on nid00499 - thread support 0
initial socket setup ...start
initial socket setup ...done 
now start server 0 ... 
nid00499 10.128.1
Q-Chem Developer Version! Running on 10.128.1.*
                  Welcome to Q-Chem
     A Quantum Leap Into The Future Of Chemistry


 Q-Chem 4.4, Q-Chem, Inc., Pleasanton, CA (2016)

 Y. Shao,  Z. Gan,  E. Epifanovsky,  A. T. B. Gilbert,  M. Wormit,  
 J. Kussmann,  A. W. Lange,  A. Behn,  J. Deng,  X. Feng,  D. Ghosh,  
 M. Goldey,  P. R. Horn,  L. D. Jacobson,  I. Kaliman,  F. Rob,  
 R. Z. Khaliullin,  T. Kus,  A. Landau,  J. Liu,  E. I. Proynov,  Y. M. Rhee,  
 R. M. Richard,  M. A. Rohrdanz,  R. P. Steele,  E. J. Sundstrom,  
 H. L. Woodcock III,  P. M. Zimmerman,  D. Zuev,  B. Albrecht,  E. Alguire,  
 B. Austin,  S. A. Baeppler,  G. J. O. Beran,  Y. A. Bernard,  
 E. J. Berquist,  K. Brandhorst,  K. B. Bravaya,  S. T. Brown,  D. Casanova,  
 C.-M. Chang,  Y. Chen,  S. H. Chien,  K. D. Closser,  M. P. Coons,  
 D. L. Crittenden,  S. Dasgupta,  M. Diedenhofen,  R. A. DiStasio Jr.,  
 H. Do,  A. D. Dutoi,  R. G. Edgar,  P.-T. Fang,  S. Fatehi,  Q. Feng,  
 L. Fusti-Molnar,  A. Ghysels,  A. Golubeva-Zadorozhnaya,  J. Gomes,  
 A. Gunina,  M. W. D. Hanson-Heine,  P. H. P. Harbach,  A. W. Hauser,  
 J. E. Herr,  E. G. Hohenstein,  Z. C. Holden,  K. Hui,  T.-C. Jagau,  H. Ji,  
 B. Kaduk,  K. Khistyaev,  Jaehoon Kim,  Jihan Kim,  R. A. King,  
 P. Klunzinger,  K. Koh,  D. Kosenkov,  T. Kowalczyk,  C. M. Krauter,  
 A. Kunitsa,  K. U. Lao,  A. Laurent,  K. V. Lawler,  J. Lee,  D. Lefrancois,  
 S. Lehtola,  S. V. Levchenko,  C. Y. Lin,  Y.-S. Lin,  F. Liu,  E. Livshits,  
 R. C. Lochan,  A. Luenser,  P. Manohar,  S. F. Manzer,  S.-P. Mao,  Y. Mao,  
 N. Mardirossian,  A. V. Marenich,  L. A. Martinez-Martinez,  S. A. Maurer,  
 N. J. Mayhall,  J.-M. Mewes,  A. F. Morrison,  K. Nanda,  T. S. Nguyen-Beck,  
 C. M. Oana,  R. Olivares-Amaya,  D. P. O'Neill,  J. A. Parkhill,  
 T. M. Perrine,  R. Peverati,  P. A. Pieniazek,  F. Plasser,  A. Prociuk,  
 D. R. Rehn,  E. Rosta,  N. J. Russ,  N. Sergueev,  S. M. Sharada,  
 S. Sharma,  D. W. Small,  A. Sodt,  T. Stauch,  T. Stein,  D. Stuck,  
 Y.-C. Su,  A. J. W. Thom,  T. Tsuchimochi,  L. Vogt,  O. Vydrov,  T. Wang,  
 M. A. Watson,  J. Wenzel,  A. White,  C. F. Williams,  V. Vanovschi,  
 K. Yao,  S. Yeganeh,  S. R. Yost,  Z.-Q. You,  I. Y. Zhang,  X. Zhang,  
 Y. Zhao,  B. R. Brooks,  G. K. L. Chan,  D. M. Chipman,  C. J. Cramer,  
 W. A. Goddard III,  M. S. Gordon,  W. J. Hehre,  A. Klamt,  
 H. F. Schaefer III,  M. W. Schmidt,  C. D. Sherrill,  D. G. Truhlar,  
 A. Warshel,  X. Xu,  A. Aspuru-Guzik,  R. Baer,  A. T. Bell,  N. A. Besley,  
 J.-D. Chai,  A. Dreuw,  B. D. Dunietz,  T. R. Furlani,  S. R. Gwaltney,  
 C.-P. Hsu,  Y. Jung,  J. Kong,  D. S. Lambrecht,  W. Liang,  C. Ochsenfeld,  
 V. A. Rassolov,  L. V. Slipchenko,  J. E. Subotnik,  T. Van Voorhis,  
 J. M. Herbert,  A. I. Krylov,  P. M. W. Gill,  M. Head-Gordon

 Contributors to earlier versions of Q-Chem not listed above: 
 R. D. Adamson,  J. Baker,  E. F. C. Byrd,  A. K. Chakraborty,  C.-L. Cheng,  
 H. Dachsel,  R. J. Doerksen,  G. Hawkins,  A. Heyden,  S. Hirata,  
 G. Kedziora,  F. J. Keil,  C. Kelley,  P. P. Korambath,  W. Kurlancheek,  
 A. M. Lee,  M. S. Lee,  D. Liotard,  I. Lotan,  P. E. Maslen,  N. Nair,  
 D. Neuhauser,  R. Olson,  B. Peters,  J. Ritchie,  N. E. Schultz,  
 N. Shenvi,  A. C. Simmonett,  K. S. Thanthiriwatte,  Q. Wu,  W. Zhang

 Please cite Q-Chem as follows:
 Y. Shao et al., Mol. Phys. 113, 184-215 (2015)
 DOI: 10.1080/00268976.2014.952696

 Q-Chem 4.4.2 for Intel X86 EM64T Linux

 Parts of Q-Chem use Armadillo 5.200.1 (Boston Tea Smuggler).
 http://arma.sourceforge.net/

 Q-Chem begins on Tue May 30 10:52:45 2017  

Host: nid00478
0

     Scratch files written to /dev/shm/eg_qchem/qchem38098.0//
 Parallel job on  22  processors

Checking the input file for inconsistencies... 	...done.

--------------------------------------------------------------
User input:
--------------------------------------------------------------
$molecule
 0  1
 H           6.23254100       -0.22338900        0.17638100
 H           5.29752400        2.22850500       -0.10953100
 C           5.19733500        0.07486000        0.08356300
 C           4.68347900        1.33634400       -0.06443600
 S           3.94559900       -1.12581000        0.11905200
 C           3.26267300        1.34659400       -0.16511200
 H           2.67740100        2.24810800       -0.30841700
 C           2.69562400        0.08941900       -0.09094600
 H           1.33241900       -2.39005500       -0.68762600
 C           1.29739300       -0.28590200       -0.16150800
 C           0.73808300       -1.51455700       -0.45078400
 S           0.03601800        0.89451200        0.14982500
 C          -0.68041100       -1.51067300       -0.44936800
 H          -1.28012400       -2.38277100       -0.68510300
 C          -1.23220500       -0.27900200       -0.15852500
 C          -2.62830100        0.10383400       -0.08465000
 H          -3.64097521       -1.70356767        0.55977063
 C          -3.72205210       -0.66255877        0.26730011
 S          -3.13608126        1.73921343       -0.47299786
 C          -4.95243722        0.05451696        0.23617773
 C          -4.79600564        1.36365839       -0.13661076
 H          -5.91157899       -0.38257498        0.48923787
 H          -5.55262859        2.12963094       -0.23673587
$end


$rem
         jobtype = opt
        exchange = b3lyp
           basis = 6-31++g**
  max_scf_cycles = 150
      mem_static = 281
       mem_total = 2818
      sym_ignore = true
        symmetry = false
          thresh = 12
$end


$opt
CONSTRAINT
tors 13 15 16 18 30.0
ENDCONSTRAINT
$end

--------------------------------------------------------------
 ----------------------------------------------------------------
             Standard Nuclear Orientation (Angstroms)
    I     Atom           X                Y                Z
 ----------------------------------------------------------------
    1      H       6.2325410000    -0.2233890000     0.1763810000
    2      H       5.2975240000     2.2285050000    -0.1095310000
    3      C       5.1973350000     0.0748600000     0.0835630000
    4      C       4.6834790000     1.3363440000    -0.0644360000
    5      S       3.9455990000    -1.1258100000     0.1190520000
    6      C       3.2626730000     1.3465940000    -0.1651120000
    7      H       2.6774010000     2.2481080000    -0.3084170000
    8      C       2.6956240000     0.0894190000    -0.0909460000
    9      H       1.3324190000    -2.3900550000    -0.6876260000
   10      C       1.2973930000    -0.2859020000    -0.1615080000
   11      C       0.7380830000    -1.5145570000    -0.4507840000
   12      S       0.0360180000     0.8945120000     0.1498250000
   13      C      -0.6804110000    -1.5106730000    -0.4493680000
   14      H      -1.2801240000    -2.3827710000    -0.6851030000
   15      C      -1.2322050000    -0.2790020000    -0.1585250000
   16      C      -2.6283010000     0.1038340000    -0.0846500000
   17      H      -3.6409752100    -1.7035676700     0.5597706300
   18      C      -3.7220521000    -0.6625587700     0.2673001100
   19      S      -3.1360812600     1.7392134300    -0.4729978600
   20      C      -4.9524372200     0.0545169600     0.2361777300
   21      C      -4.7960056400     1.3636583900    -0.1366107600
   22      H      -5.9115789900    -0.3825749800     0.4892378700
   23      H      -5.5526285900     2.1296309400    -0.2367358700
 ----------------------------------------------------------------
 Nuclear Repulsion Energy =  1178.6495008969 hartrees
 There are       64 alpha and       64 beta electrons
 Requested basis set is 6-31++G(d,p)
 There are 110 shells and 345 basis functions

 Total QAlloc Memory Limit   2818 MB
 Mega-Array Size       275 MB
 MEM_STATIC part       281 MB
 A cutoff of  1.0D-12 yielded   4668 shell pairs
 There are     47551 function pairs

 Q-Chem warning in module /project/projectdirs/jcesr/qchem/qc44/cnl_qc441/compile/cori/qc_src/libqints/qchem/aobasis.C, line 68:

 Using reconstructed effective core potential

 
 -------------------------------------------------------
 OpenMP Integral Computing Module                       
 Release: version 1.0, May 2013, Q-Chem Inc. Pittsburgh 
 -------------------------------------------------------
 Integral Job Info:
 Integral job number is                      11
 Integral operator is                         1
 short-range coefficients                     0
 long-range coefficients              100000000
 Omega coefficients                           0
 if combine SR and LR in K                    0
 Integral screening is                        0
 Integral computing path is                   2
 max size of driver memory is            800000
 size of driver memory is                593474
 size of scratch memory is             15166112
 max col of scratch BK array               1296
 max len of scratch array in speh3          155
 max len of scratch index in speh4           18
 max int batch size is                      520
 min int batch size is                       52
 fixed nKL is                                52
 max L of basis functions is                  2
 order of int derivative is                   0
 number of shells is                        110
 number of basis is                         345
 number of cartesian basis is               345
 number of contracted shell pairs          4668
 number of primitive shell pairs          14607
 maxK2 (contraction) of shell pair           36
 max number of K2 of shell pair               1
 max number of CS2 of shell pair            511
 max number of PS2 of shell pair           3012
 mem total for path MDJ                  101080
 -------------------------------------------------------
 Smallest overlap matrix eigenvalue = 7.44E-08
 Linear dependence detected in AO basis
 Number of orthogonalized atomic orbitals = 342
 Maximum deviation from orthogonality = 4.776E-11

 Scale SEOQF with 1.000000e-02/1.000000e-01/1.000000e-01

 Standard Electronic Orientation quadrupole field applied
 Nucleus-field energy     =     0.0000000164 hartrees
 Guess from superposition of atomic densities
 Warning:  Energy on first SCF cycle will be non-variational
 A restricted hybrid HF-DFT SCF calculation will be
 performed using Pulay DIIS extrapolation
 Exchange:     0.2000 Hartree-Fock + 0.0800 Slater + 0.7200 B88
 Correlation:  0.1900 VWN1RPA + 0.8100 LYP
 Using SG-1 standard quadrature grid
 SCF converges when DIIS error is below 1.0E-08
 ---------------------------------------
  Cycle       Energy         DIIS Error
 ---------------------------------------
    1   -1660.3033918339      3.69E-02
    2   -1656.4300466623      3.75E-03
    3   -1656.1068670274      5.66E-03
    4   -1656.6493786819      8.78E-04
    5   -1656.6591768835      4.94E-04
    6   -1656.6624470832      1.87E-04
    7   -1656.6629650063      7.32E-05
    8   -1656.6630468461      1.42E-05
    9   -1656.6630498724      4.19E-06
   10   -1656.6630501072      1.98E-06
   11   -1656.6630501720      4.59E-07
   12   -1656.6630501762      2.35E-07
   13   -1656.6630501750      6.99E-08
   14   -1656.6630501753      2.50E-08
   15   -1656.6630501760      1.06E-08
   16   -1656.6630501742      2.53E-09 Convergence criterion met
 ---------------------------------------
 SCF time:  CPU 17.44 s  wall 16.18 s
 SCF   energy in the final basis set = -1656.6630501742
 Total energy in the final basis set = -1656.6630501742
 
 --------------------------------------------------------------
 
                    Orbital Energies (a.u.)
 --------------------------------------------------------------
 
 Alpha MOs
 -- Occupied --
-88.921 -88.921 -88.921 -10.241 -10.241 -10.240 -10.240 -10.226
-10.226 -10.207 -10.206 -10.206 -10.206 -10.205 -10.205  -7.980
 -7.980  -7.980  -5.945  -5.945  -5.944  -5.941  -5.941  -5.941
 -5.938  -5.937  -5.937  -0.907  -0.892  -0.876  -0.787  -0.756
 -0.745  -0.744  -0.733  -0.697  -0.617  -0.596  -0.569  -0.564
 -0.537  -0.533  -0.529  -0.498  -0.463  -0.422  -0.421  -0.419
 -0.415  -0.408  -0.402  -0.398  -0.386  -0.376  -0.370  -0.362
 -0.352  -0.343  -0.294  -0.267  -0.263  -0.260  -0.250  -0.202
 -- Virtual --
 -0.070  -0.032  -0.011  -0.005  -0.004   0.002   0.008   0.010
  0.017   0.018   0.024   0.028   0.033   0.034   0.039   0.043
  0.048   0.050   0.053   0.055   0.062   0.064   0.075   0.078
  0.081   0.088   0.091   0.095   0.097   0.105   0.108   0.110
  0.112   0.115   0.122   0.125   0.126   0.131   0.132   0.134
  0.138   0.139   0.142   0.144   0.148   0.151   0.154   0.159
  0.162   0.169   0.171   0.175   0.180   0.186   0.190   0.190
  0.195   0.199   0.203   0.205   0.210   0.215   0.216   0.222
  0.231   0.236   0.239   0.246   0.248   0.258   0.260   0.267
  0.267   0.271   0.274   0.287   0.294   0.296   0.307   0.309
  0.318   0.322   0.334   0.344   0.346   0.353   0.362   0.367
  0.373   0.379   0.389   0.404   0.447   0.453   0.456   0.490
  0.509   0.520   0.528   0.531   0.563   0.573   0.575   0.581
  0.587   0.610   0.617   0.630   0.640   0.654   0.659   0.661
  0.668   0.675   0.681   0.689   0.705   0.714   0.717   0.722
  0.725   0.727   0.743   0.751   0.752   0.772   0.782   0.790
  0.801   0.820   0.825   0.832   0.837   0.854   0.876   0.899
  0.928   0.938   0.940   0.945   0.957   0.958   0.961   0.968
  0.974   0.979   0.983   0.997   1.001   1.005   1.024   1.036
  1.042   1.055   1.074   1.078   1.090   1.094   1.105   1.110
  1.133   1.151   1.154   1.172   1.182   1.196   1.211   1.238
  1.250   1.267   1.280   1.313   1.336   1.341   1.350   1.355
  1.362   1.364   1.382   1.447   1.468   1.471   1.504   1.511
  1.538   1.554   1.569   1.618   1.677   1.686   1.713   1.727
  1.791   1.829   1.863   1.873   1.883   1.897   1.911   1.916
  1.925   1.952   1.966   1.970   2.007   2.022   2.048   2.068
  2.080   2.093   2.123   2.154   2.175   2.182   2.189   2.201
  2.226   2.241   2.257   2.271   2.286   2.327   2.363   2.365
  2.419   2.425   2.449   2.455   2.464   2.470   2.482   2.506
  2.524   2.531   2.539   2.555   2.581   2.587   2.605   2.630
  2.664   2.684   2.703   2.717   2.733   2.783   2.848   2.869
  2.900   2.928   2.948   2.977   3.126   3.179   3.223   3.270
  3.272   3.324   3.412   3.416   3.665   3.732   3.740   3.948
  3.979   4.008   4.256   4.263   4.307   4.317   4.332   4.341
  4.388   4.475   4.554   4.638   4.700   4.737
 --------------------------------------------------------------
 
          Ground-State Mulliken Net Atomic Charges

     Atom                 Charge (a.u.)
  ----------------------------------------
      1 H                     0.195572
      2 H                     0.119833
      3 C                     0.017017
      4 C                    -0.367279
      5 S                    -0.098274
      6 C                     0.440313
      7 H                     0.124517
      8 C                    -0.295778
      9 H                     0.125730
     10 C                    -0.165615
     11 C                     0.027649
     12 S                    -0.230845
     13 C                     0.116638
     14 H                     0.124553
     15 C                    -0.267309
     16 C                    -0.243330
     17 H                     0.132057
     18 C                     0.329778
     19 S                    -0.108849
     20 C                    -0.335546
     21 C                     0.039791
     22 H                     0.120255
     23 H                     0.199121
  ----------------------------------------
  Sum of atomic charges =     0.000000

 -----------------------------------------------------------------
                    Cartesian Multipole Moments
 -----------------------------------------------------------------
    Charge (ESU x 10^10)
                 0.0000
    Dipole Moment (Debye)
         X      -0.2468      Y      -0.3819      Z      -0.0673
       Tot       0.4596
    Quadrupole Moments (Debye-Ang)
        XX     -89.4432     XY       2.1229     YY    -101.0092
        XZ      -0.8957     YZ      -0.4326     ZZ    -116.0371
    Octopole Moments (Debye-Ang^2)
       XXX     -24.1654    XXY      -1.8788    XYY     -13.7916
       YYY     -57.7881    XXZ      19.6472    XYZ       3.8660
       YYZ       4.1705    XZZ     -11.6733    YZZ     -22.3084
       ZZZ      30.2620
    Hexadecapole Moments (Debye-Ang^3)
      XXXX   -6162.7020   XXXY     196.6218   XXYY   -1230.6942
      XYYY     261.5717   YYYY    -930.2885   XXXZ     -46.1375
      XXYZ     -30.8044   XYYZ     -11.2979   YYYZ      18.2108
      XXZZ   -1345.3332   XYZZ      85.4245   YYZZ    -206.9538
      XZZZ     -35.6759   YZZZ      17.9503   ZZZZ    -203.1666
 -----------------------------------------------------------------
 Calculating analytic gradient of the SCF energy
 Gradient of SCF Energy
            1           2           3           4           5           6
    1  -0.0000075   0.0000105  -0.0000318  -0.0000146  -0.0000062   0.0000697
    2  -0.0000041  -0.0000013   0.0000030   0.0000333  -0.0000180   0.0000949
    3   0.0000106  -0.0000082  -0.0000073   0.0000056  -0.0000331   0.0000011
            7           8           9          10          11          12
    1   0.0000149  -0.0002597  -0.0000057   0.0000803   0.0000779  -0.0015313
    2  -0.0000094  -0.0000499   0.0000401  -0.0007384  -0.0000199   0.0009493
    3  -0.0000224   0.0000669   0.0000507  -0.0000778  -0.0006470   0.0002469
           13          14          15          16          17          18
    1   0.0015001   0.0002112  -0.0018511   0.0017658  -0.0004946  -0.0008624
    2   0.0006047  -0.0005241   0.0001302  -0.0006333  -0.0003364   0.0012324
    3  -0.0003145   0.0004658   0.0003208  -0.0001301  -0.0004250   0.0000783
           19          20          21          22          23
    1   0.0016809  -0.0003039  -0.0001559   0.0000241   0.0000891
    2  -0.0002329   0.0003273  -0.0008660   0.0000392  -0.0000209
    3  -0.0003539   0.0007373   0.0001489  -0.0000190  -0.0000948
 Max gradient component =       1.851E-03
 RMS gradient           =       5.658E-04
 Gradient time:  CPU 4.61 s  wall 4.62 s
 Geometry Optimization Parameters
   NAtoms,    NIC,     NZ,  NCons,   NDum,   NFix, NCnnct, MaxDiis
       23     166       0       1       0       0       0       0


** CONSTRAINED OPTIMIZATION IN DELOCALIZED INTERNAL COORDINATES **
   Searching for a Minimum

   Optimization Cycle:   1

                       Coordinates (Angstroms)
     ATOM                X               Y               Z
      1  H         6.2325410000   -0.2233890000    0.1763810000
      2  H         5.2975240000    2.2285050000   -0.1095310000
      3  C         5.1973350000    0.0748600000    0.0835630000
      4  C         4.6834790000    1.3363440000   -0.0644360000
      5  S         3.9455990000   -1.1258100000    0.1190520000
      6  C         3.2626730000    1.3465940000   -0.1651120000
      7  H         2.6774010000    2.2481080000   -0.3084170000
      8  C         2.6956240000    0.0894190000   -0.0909460000
      9  H         1.3324190000   -2.3900550000   -0.6876260000
     10  C         1.2973930000   -0.2859020000   -0.1615080000
     11  C         0.7380830000   -1.5145570000   -0.4507840000
     12  S         0.0360180000    0.8945120000    0.1498250000
     13  C        -0.6804110000   -1.5106730000   -0.4493680000
     14  H        -1.2801240000   -2.3827710000   -0.6851030000
     15  C        -1.2322050000   -0.2790020000   -0.1585250000
     16  C        -2.6283010000    0.1038340000   -0.0846500000
     17  H        -3.6409752100   -1.7035676700    0.5597706300
     18  C        -3.7220521000   -0.6625587700    0.2673001100
     19  S        -3.1360812600    1.7392134300   -0.4729978600
     20  C        -4.9524372200    0.0545169600    0.2361777300
     21  C        -4.7960056400    1.3636583900   -0.1366107600
     22  H        -5.9115789900   -0.3825749800    0.4892378700
     23  H        -5.5526285900    2.1296309400   -0.2367358700
   Point Group: c1    Number of degrees of freedom:    63


   Energy is  -1656.663050174

              Constraints and their Current Values
                                        Value     Constraint
   Dihedral:       13  15  16  18       30.000       30.000

 Attempting to Generate Delocalized Internal Coordinates

 62 Hessian modes will be used to form the next step
  Hessian Eigenvalues:
     0.045000    0.045000    0.045000    0.045000    0.045000    0.045000
     0.045000    0.045000    0.045000    0.045001    0.045002    0.045002
     0.045003    0.045003    0.045009    0.045010    0.045011    0.045018
     0.045019    0.159886    0.159939    0.159955    0.159957    0.159992
     0.159993    0.160000    0.160000    0.221281    0.221281    0.226855
     0.237826    0.237826    0.245311    0.249998    0.249998    0.250000
     0.250000    0.293636    0.293684    0.294746    0.294936    0.312571
     0.312615    0.354732    0.354740    0.354742    0.354756    0.355161
     0.355164    0.358372    0.358373    0.383080    0.383176    0.405793
     0.405832    0.413732    0.458107    0.461989    0.461995    0.485493
     0.497291    0.497294

 Minimum Search - Taking Simple RFO Step
 Searching for Lamda that Minimizes Along All modes
 Value Taken    Lamda =  -0.00028890
 Step Taken.  Stepsize is  0.042400

                             Maximum     Tolerance    Cnvgd?
         Gradient           0.004992      0.000300      NO
         Displacement       0.021182      0.001200      NO
         Energy change     *********      0.000001      NO


 New Cartesian Coordinates Obtained by Inverse Iteration

 Displacement from previous Coordinates is:  0.289339
 ----------------------------------------------------------------
             Standard Nuclear Orientation (Angstroms)
    I     Atom           X                Y                Z
 ----------------------------------------------------------------
    1      H       6.2358359214    -0.2521717123     0.1811488275
    2      H       5.3224747593     2.2068172679    -0.1139323634
    3      C       5.2033220929     0.0548326874     0.0868254349
    4      C       4.7006301191     1.3202354250    -0.0659224957
    5      S       3.9408997137    -1.1345124666     0.1259564513
    6      C       3.2799891239     1.3427187589    -0.1672490951
    7      H       2.7027420178     2.2488642721    -0.3140132688
    8      C       2.7018380351     0.0909888217    -0.0892078414
    9      H       1.3159811125    -2.3773145855    -0.6818525426
   10      C       1.3000159066    -0.2718299885    -0.1596700787
   11      C       0.7292917561    -1.4962108110    -0.4464226104
   12      S       0.0488358825     0.9192708012     0.1471241887
   13      C      -0.6894542722    -1.4794965557    -0.4503709608
   14      H      -1.2983280113    -2.3438579432    -0.6896916873
   15      C      -1.2306494415    -0.2439580659    -0.1598728068
   16      C      -2.6317251087     0.1300872026    -0.0861235691
   17      H      -3.5987574697    -1.6951636236     0.5694399119
   18      C      -3.7067442769    -0.6587313463     0.2704369572
   19      S      -3.1770729652     1.7545611240    -0.4758393059
   20      C      -4.9534257187     0.0296007924     0.2332747759
   21      C      -4.8278870768     1.3422772603    -0.1408462873
   22      H      -5.9022228668    -0.4289625465     0.4875908355
   23      H      -5.6023002428     2.0902905316    -0.2418256196
 ----------------------------------------------------------------
 Nuclear Repulsion Energy =  1177.2884439255 hartrees
 There are       64 alpha and       64 beta electrons
 Applying Cartesian multipole field
    Component          Value
    ---------          -----
     (2,0,0)        1.00000E-12
     (0,2,0)        2.00000E-11
     (0,0,2)       -3.00000E-11
 Nucleus-field energy     =     0.0000000164 hartrees
 Requested basis set is 6-31++G(d,p)
 There are 110 shells and 345 basis functions
 A cutoff of  1.0D-12 yielded   4667 shell pairs
 There are     47547 function pairs

 Q-Chem warning in module /project/projectdirs/jcesr/qchem/qc44/cnl_qc441/compile/cori/qc_src/libqints/qchem/aobasis.C, line 68:

 Using reconstructed effective core potential

 Smallest overlap matrix eigenvalue = 7.29E-08
 Linear dependence detected in AO basis
 Number of orthogonalized atomic orbitals = 342
 Maximum deviation from orthogonality = 7.093E-11
 Guess MOs from SCF MO coefficient file
 Reading MOs from coefficient file
 Reading MOs from coefficient file
 A restricted hybrid HF-DFT SCF calculation will be
 performed using Pulay DIIS extrapolation
 Exchange:     0.2000 Hartree-Fock + 0.0800 Slater + 0.7200 B88
 Correlation:  0.1900 VWN1RPA + 0.8100 LYP
 Using SG-1 standard quadrature grid
 SCF converges when DIIS error is below 1.0E-08
 Geometry optimization detected.  Setting ReadMinima to 0
 Setting SaveMinima to 0
 ---------------------------------------
  Cycle       Energy         DIIS Error
 ---------------------------------------
    1   -1656.6622275069      7.93E-04
    2   -1656.6627545538      1.67E-04
    3   -1656.6610735522      3.63E-04
    4   -1656.6632147823      3.45E-05
    5   -1656.6632321762      1.34E-05
    6   -1656.6632348725      3.52E-06
    7   -1656.6632350410      1.40E-06
    8   -1656.6632350687      6.08E-07
    9   -1656.6632350750      1.66E-07
   10   -1656.6632350758      3.75E-08
   11   -1656.6632350741      1.90E-08
   12   -1656.6632350740      6.13E-09 Convergence criterion met
 ---------------------------------------
 SCF time:  CPU 13.45 s  wall 12.34 s
 SCF   energy in the final basis set = -1656.6632350740
 Total energy in the final basis set = -1656.6632350740
 
 --------------------------------------------------------------
 
                    Orbital Energies (a.u.)
 --------------------------------------------------------------
 
 Alpha MOs
 -- Occupied --
-88.921 -88.921 -88.921 -10.241 -10.241 -10.240 -10.240 -10.226
-10.226 -10.207 -10.206 -10.206 -10.206 -10.205 -10.205  -7.981
 -7.981  -7.980  -5.945  -5.945  -5.945  -5.941  -5.941  -5.941
 -5.938  -5.938  -5.938  -0.907  -0.892  -0.876  -0.787  -0.756
 -0.745  -0.744  -0.733  -0.697  -0.617  -0.596  -0.569  -0.564
 -0.537  -0.533  -0.529  -0.499  -0.463  -0.422  -0.421  -0.419
 -0.415  -0.409  -0.402  -0.398  -0.386  -0.376  -0.370  -0.361
 -0.352  -0.343  -0.294  -0.267  -0.263  -0.260  -0.250  -0.202
 -- Virtual --
 -0.070  -0.031  -0.011  -0.005  -0.004   0.002   0.008   0.010
  0.017   0.018   0.024   0.028   0.032   0.034   0.039   0.043
  0.048   0.050   0.053   0.055   0.062   0.064   0.075   0.078
  0.081   0.088   0.091   0.095   0.097   0.105   0.108   0.110
  0.112   0.115   0.122   0.125   0.125   0.131   0.132   0.134
  0.138   0.139   0.142   0.144   0.148   0.151   0.154   0.158
  0.162   0.169   0.171   0.175   0.179   0.186   0.189   0.190
  0.195   0.199   0.203   0.204   0.209   0.215   0.216   0.222
  0.231   0.236   0.239   0.246   0.248   0.258   0.260   0.267
  0.267   0.271   0.274   0.287   0.294   0.295   0.307   0.309
  0.318   0.322   0.334   0.345   0.346   0.353   0.362   0.368
  0.373   0.379   0.389   0.404   0.446   0.453   0.456   0.490
  0.509   0.519   0.527   0.531   0.563   0.573   0.575   0.581
  0.586   0.611   0.617   0.631   0.641   0.654   0.659   0.662
  0.668   0.675   0.680   0.689   0.704   0.713   0.717   0.721
  0.725   0.728   0.741   0.751   0.752   0.772   0.782   0.790
  0.799   0.820   0.825   0.832   0.837   0.854   0.876   0.899
  0.927   0.938   0.941   0.945   0.957   0.958   0.961   0.969
  0.974   0.979   0.983   0.997   1.002   1.005   1.025   1.035
  1.041   1.055   1.073   1.078   1.091   1.095   1.105   1.109
  1.131   1.150   1.153   1.171   1.181   1.197   1.210   1.237
  1.250   1.268   1.280   1.314   1.336   1.341   1.350   1.355
  1.362   1.364   1.383   1.446   1.467   1.471   1.503   1.510
  1.536   1.552   1.568   1.617   1.677   1.686   1.713   1.726
  1.790   1.829   1.864   1.872   1.883   1.897   1.911   1.916
  1.925   1.951   1.966   1.970   2.007   2.021   2.047   2.067
  2.080   2.094   2.124   2.155   2.175   2.181   2.189   2.201
  2.226   2.241   2.256   2.271   2.287   2.327   2.363   2.365
  2.419   2.425   2.449   2.455   2.464   2.469   2.482   2.507
  2.524   2.531   2.538   2.555   2.580   2.587   2.605   2.630
  2.664   2.683   2.703   2.717   2.733   2.786   2.848   2.870
  2.900   2.925   2.946   2.975   3.126   3.179   3.222   3.270
  3.272   3.324   3.412   3.416   3.665   3.732   3.740   3.949
  3.979   4.005   4.256   4.265   4.307   4.317   4.332   4.341
  4.387   4.474   4.553   4.637   4.699   4.735
 --------------------------------------------------------------
 
          Ground-State Mulliken Net Atomic Charges

     Atom                 Charge (a.u.)
  ----------------------------------------
      1 H                     0.195718
      2 H                     0.119905
      3 C                     0.018267
      4 C                    -0.367912
      5 S                    -0.098992
      6 C                     0.438996
      7 H                     0.124275
      8 C                    -0.294220
      9 H                     0.125149
     10 C                    -0.163788
     11 C                     0.019378
     12 S                    -0.211357
     13 C                     0.095082
     14 H                     0.124975
     15 C                    -0.246987
     16 C                    -0.255273
     17 H                     0.133374
     18 C                     0.317299
     19 S                    -0.089889
     20 C                    -0.339836
     21 C                     0.036868
     22 H                     0.120052
     23 H                     0.198916
  ----------------------------------------
  Sum of atomic charges =     0.000000

 -----------------------------------------------------------------
                    Cartesian Multipole Moments
 -----------------------------------------------------------------
    Charge (ESU x 10^10)
                 0.0000
    Dipole Moment (Debye)
         X      -0.2365      Y      -0.4017      Z      -0.0667
       Tot       0.4709
    Quadrupole Moments (Debye-Ang)
        XX     -89.3542     XY       2.1526     YY    -101.1607
        XZ      -0.8644     YZ      -0.4824     ZZ    -116.0326
    Octopole Moments (Debye-Ang^2)
       XXX     -23.2521    XXY      -2.6286    XYY     -13.0926
       YYY     -59.7491    XXZ      19.3265    XYZ       3.8184
       YYZ       4.2698    XZZ     -11.3175    YZZ     -22.9276
       ZZZ      30.2297
    Hexadecapole Moments (Debye-Ang^3)
      XXXX   -6191.0367   XXXY     199.1646   XXYY   -1237.0494
      XYYY     268.3780   YYYY    -931.1303   XXXZ     -46.7840
      XXYZ     -31.6004   XYYZ     -12.5296   YYYZ      19.7546
      XXZZ   -1352.2815   XYZZ      87.6224   YYZZ    -206.5100
      XZZZ     -39.1158   YZZZ      19.8872   ZZZZ    -203.5280
 -----------------------------------------------------------------
 Calculating analytic gradient of the SCF energy
 Gradient of SCF Energy
            1           2           3           4           5           6
    1   0.0000002   0.0000049  -0.0000024  -0.0000102   0.0000611   0.0000589
    2   0.0000059  -0.0000038  -0.0000163  -0.0000001   0.0000165   0.0000151
    3   0.0000116  -0.0000115  -0.0000104  -0.0000007  -0.0000167   0.0000388
            7           8           9          10          11          12
    1   0.0000072  -0.0001166  -0.0000300   0.0004075  -0.0000604   0.0000976
    2   0.0000002  -0.0000213   0.0000118   0.0000402   0.0001607   0.0003417
    3  -0.0000228   0.0000150   0.0000211  -0.0000574  -0.0001458   0.0001262
           13          14          15          16          17          18
    1   0.0003011   0.0000025  -0.0005764  -0.0000485  -0.0001084   0.0001205
    2   0.0006662  -0.0002071  -0.0010619  -0.0011760  -0.0001759   0.0006815
    3  -0.0004470   0.0004093   0.0006423  -0.0005394  -0.0003580   0.0004197
           19          20          21          22          23
    1  -0.0000183   0.0001101  -0.0002223   0.0000472  -0.0000252
    2   0.0003407   0.0001541   0.0001984  -0.0000021   0.0000315
    3  -0.0001925   0.0001421   0.0000144   0.0000225  -0.0000610
 Max gradient component =       1.176E-03
 RMS gradient           =       2.953E-04
 Gradient time:  CPU 4.61 s  wall 4.61 s
 Geometry Optimization Parameters
   NAtoms,    NIC,     NZ,  NCons,   NDum,   NFix, NCnnct, MaxDiis
       23     166       0       1       0       0       0       0

 Cartesian Hessian Update
 Hessian Updated using BFGS Update


** CONSTRAINED OPTIMIZATION IN DELOCALIZED INTERNAL COORDINATES **
   Searching for a Minimum

   Optimization Cycle:   2

                       Coordinates (Angstroms)
     ATOM                X               Y               Z
      1  H         6.2358359214   -0.2521717123    0.1811488275
      2  H         5.3224747593    2.2068172679   -0.1139323634
      3  C         5.2033220929    0.0548326874    0.0868254349
      4  C         4.7006301191    1.3202354250   -0.0659224957
      5  S         3.9408997137   -1.1345124666    0.1259564513
      6  C         3.2799891239    1.3427187589   -0.1672490951
      7  H         2.7027420178    2.2488642721   -0.3140132688
      8  C         2.7018380351    0.0909888217   -0.0892078414
      9  H         1.3159811125   -2.3773145855   -0.6818525426
     10  C         1.3000159066   -0.2718299885   -0.1596700787
     11  C         0.7292917561   -1.4962108110   -0.4464226104
     12  S         0.0488358825    0.9192708012    0.1471241887
     13  C        -0.6894542722   -1.4794965557   -0.4503709608
     14  H        -1.2983280113   -2.3438579432   -0.6896916873
     15  C        -1.2306494415   -0.2439580659   -0.1598728068
     16  C        -2.6317251087    0.1300872026   -0.0861235691
     17  H        -3.5987574697   -1.6951636236    0.5694399119
     18  C        -3.7067442769   -0.6587313463    0.2704369572
     19  S        -3.1770729652    1.7545611240   -0.4758393059
     20  C        -4.9534257187    0.0296007924    0.2332747759
     21  C        -4.8278870768    1.3422772603   -0.1408462873
     22  H        -5.9022228668   -0.4289625465    0.4875908355
     23  H        -5.6023002428    2.0902905316   -0.2418256196
   Point Group: c1    Number of degrees of freedom:    63


   Energy is  -1656.663235074

              Constraints and their Current Values
                                        Value     Constraint
   Dihedral:       13  15  16  18       30.000       30.000
 Hessian Updated using BFGS Update

 56 Hessian modes will be used to form the next step
  Hessian Eigenvalues:
     0.037900    0.045000    0.045000    0.045000    0.045001    0.045001
     0.045002    0.045003    0.045005    0.045009    0.045010    0.045015
     0.045018    0.045272    0.158857    0.159905    0.159951    0.159959
     0.159992    0.159999    0.159999    0.160086    0.184363    0.221281
     0.223130    0.227305    0.237826    0.239404    0.249844    0.249999
     0.252760    0.293635    0.294365    0.294688    0.306952    0.312568
     0.313616    0.354680    0.354735    0.354743    0.354748    0.355160
     0.355164    0.358372    0.358420    0.383174    0.390361    0.405831
     0.406463    0.414743    0.459300    0.461971    0.470384    0.487433
     0.497278    0.497364

 Minimum Search - Taking Simple RFO Step
 Searching for Lamda that Minimizes Along All modes
 Value Taken    Lamda =  -0.00006258
 Step Taken.  Stepsize is  0.031514

                             Maximum     Tolerance    Cnvgd?
         Gradient           0.001455      0.000300      NO
         Displacement       0.014002      0.001200      NO
         Energy change     -0.000185      0.000001      NO


 New Cartesian Coordinates Obtained by Inverse Iteration

 Displacement from previous Coordinates is:  0.156440
 ----------------------------------------------------------------
             Standard Nuclear Orientation (Angstroms)
    I     Atom           X                Y                Z
 ----------------------------------------------------------------
    1      H       6.2347237225    -0.2672976692     0.1858366200
    2      H       5.3327199560     2.1951676019    -0.1158987268
    3      C       5.2036758624     0.0441827402     0.0901546917
    4      C       4.7068732393     1.3115052302    -0.0660883862
    5      S       3.9358359155    -1.1394229724     0.1312686594
    6      C       3.2864189620     1.3401709596    -0.1684241038
    7      H       2.7132522450     2.2484844824    -0.3177958587
    8      C       2.7027740186     0.0912584604    -0.0878525010
    9      H       1.3066823676    -2.3708822442    -0.6811596269
   10      C       1.2992929287    -0.2650680188    -0.1588790229
   11      C       0.7237763838    -1.4871958819    -0.4456896675
   12      S       0.0546816784     0.9333928876     0.1448765961
   13      C      -0.6946034344    -1.4622246993    -0.4535737829
   14      H      -1.3086327866    -2.3211200970    -0.6984977442
   15      C      -1.2288955658    -0.2235726618    -0.1619941377
   16      C      -2.6311752294     0.1455478911    -0.0861578627
   17      H      -3.5729744593    -1.6883304293     0.5811524698
   18      C      -3.6958180730    -0.6559147962     0.2746294720
   19      S      -3.1949381027     1.7618319225    -0.4784560107
   20      C      -4.9511533463     0.0156294967     0.2333297335
   21      C      -4.8406114933     1.3286795526    -0.1442403331
   22      H      -5.8945114608    -0.4533167091     0.4892698860
   23      H      -5.6241043382     2.0668302540    -0.2468535134
 ----------------------------------------------------------------
 Nuclear Repulsion Energy =  1177.0213293599 hartrees
 There are       64 alpha and       64 beta electrons
 Applying Cartesian multipole field
    Component          Value
    ---------          -----
     (2,0,0)        1.00000E-12
     (0,2,0)        2.00000E-11
     (0,0,2)       -3.00000E-11
 Nucleus-field energy     =     0.0000000164 hartrees
 Requested basis set is 6-31++G(d,p)
 There are 110 shells and 345 basis functions
 A cutoff of  1.0D-12 yielded   4669 shell pairs
 There are     47553 function pairs

 Q-Chem warning in module /project/projectdirs/jcesr/qchem/qc44/cnl_qc441/compile/cori/qc_src/libqints/qchem/aobasis.C, line 68:

 Using reconstructed effective core potential

 Smallest overlap matrix eigenvalue = 7.22E-08
 Linear dependence detected in AO basis
 Number of orthogonalized atomic orbitals = 342
 Maximum deviation from orthogonality = 8.500E-11
 Guess MOs from SCF MO coefficient file
 Reading MOs from coefficient file
 Reading MOs from coefficient file
 A restricted hybrid HF-DFT SCF calculation will be
 performed using Pulay DIIS extrapolation
 Exchange:     0.2000 Hartree-Fock + 0.0800 Slater + 0.7200 B88
 Correlation:  0.1900 VWN1RPA + 0.8100 LYP
 Using SG-1 standard quadrature grid
 SCF converges when DIIS error is below 1.0E-08
 Geometry optimization detected.  Setting ReadMinima to 0
 Setting SaveMinima to 0
 ---------------------------------------
  Cycle       Energy         DIIS Error
 ---------------------------------------
    1   -1656.6650669722      4.38E-04
    2   -1656.6631033745      9.79E-05
    3   -1656.6625602542      2.08E-04
    4   -1656.6632615058      2.20E-05
    5   -1656.6632688548      7.57E-06
    6   -1656.6632696950      2.30E-06
    7   -1656.6632697697      7.96E-07
    8   -1656.6632697782      3.58E-07
    9   -1656.6632697812      1.08E-07
   10   -1656.6632697828      2.34E-08
   11   -1656.6632697820      1.15E-08
   12   -1656.6632697810      4.05E-09 Convergence criterion met
 ---------------------------------------
 SCF time:  CPU 13.33 s  wall 12.16 s
 SCF   energy in the final basis set = -1656.6632697810
 Total energy in the final basis set = -1656.6632697810
 
 --------------------------------------------------------------
 
                    Orbital Energies (a.u.)
 --------------------------------------------------------------
 
 Alpha MOs
 -- Occupied --
-88.922 -88.921 -88.921 -10.241 -10.241 -10.240 -10.240 -10.226
-10.226 -10.206 -10.206 -10.206 -10.206 -10.205 -10.205  -7.981
 -7.981  -7.980  -5.945  -5.945  -5.945  -5.942  -5.941  -5.941
 -5.938  -5.938  -5.937  -0.907  -0.892  -0.876  -0.787  -0.756
 -0.745  -0.745  -0.734  -0.697  -0.617  -0.596  -0.569  -0.564
 -0.537  -0.533  -0.529  -0.499  -0.463  -0.422  -0.420  -0.418
 -0.415  -0.408  -0.402  -0.398  -0.386  -0.376  -0.370  -0.361
 -0.352  -0.343  -0.294  -0.267  -0.263  -0.260  -0.250  -0.202
 -- Virtual --
 -0.070  -0.031  -0.011  -0.005  -0.004   0.002   0.008   0.010
  0.016   0.018   0.024   0.028   0.032   0.034   0.039   0.043
  0.047   0.050   0.053   0.055   0.062   0.064   0.075   0.077
  0.081   0.088   0.091   0.095   0.097   0.105   0.109   0.110
  0.112   0.115   0.122   0.125   0.125   0.131   0.132   0.134
  0.138   0.139   0.142   0.145   0.147   0.151   0.154   0.158
  0.161   0.169   0.171   0.175   0.180   0.186   0.189   0.190
  0.194   0.199   0.203   0.205   0.209   0.215   0.216   0.222
  0.231   0.235   0.239   0.246   0.248   0.258   0.260   0.266
  0.267   0.271   0.274   0.286   0.294   0.295   0.307   0.309
  0.318   0.322   0.334   0.345   0.346   0.353   0.361   0.368
  0.372   0.379   0.389   0.403   0.446   0.453   0.456   0.490
  0.510   0.519   0.527   0.530   0.564   0.573   0.575   0.581
  0.586   0.611   0.617   0.631   0.642   0.654   0.659   0.662
  0.668   0.675   0.679   0.689   0.704   0.713   0.717   0.721
  0.725   0.729   0.740   0.751   0.752   0.773   0.782   0.790
  0.798   0.820   0.825   0.832   0.837   0.854   0.876   0.898
  0.928   0.938   0.941   0.945   0.957   0.958   0.961   0.970
  0.974   0.979   0.984   0.997   1.002   1.006   1.025   1.035
  1.040   1.056   1.073   1.079   1.092   1.095   1.105   1.109
  1.131   1.149   1.153   1.171   1.181   1.197   1.210   1.237
  1.251   1.268   1.280   1.314   1.336   1.340   1.350   1.356
  1.362   1.365   1.384   1.445   1.468   1.472   1.502   1.509
  1.536   1.551   1.568   1.616   1.678   1.686   1.714   1.726
  1.790   1.830   1.865   1.873   1.884   1.897   1.910   1.916
  1.925   1.951   1.966   1.970   2.008   2.021   2.048   2.067
  2.080   2.094   2.124   2.155   2.175   2.183   2.190   2.201
  2.226   2.242   2.256   2.270   2.288   2.327   2.364   2.365
  2.419   2.425   2.448   2.455   2.464   2.469   2.482   2.507
  2.523   2.531   2.537   2.555   2.580   2.587   2.605   2.629
  2.664   2.682   2.703   2.717   2.733   2.788   2.847   2.871
  2.900   2.924   2.945   2.973   3.126   3.179   3.222   3.270
  3.272   3.324   3.412   3.416   3.665   3.732   3.741   3.950
  3.979   4.004   4.256   4.266   4.307   4.317   4.332   4.340
  4.387   4.474   4.553   4.637   4.699   4.734
 --------------------------------------------------------------
 
          Ground-State Mulliken Net Atomic Charges

     Atom                 Charge (a.u.)
  ----------------------------------------
      1 H                     0.195719
      2 H                     0.119920
      3 C                     0.018639
      4 C                    -0.368133
      5 S                    -0.099533
      6 C                     0.438699
      7 H                     0.123967
      8 C                    -0.294469
      9 H                     0.125139
     10 C                    -0.163074
     11 C                     0.016370
     12 S                    -0.200256
     13 C                     0.083280
     14 H                     0.125520
     15 C                    -0.239398
     16 C                    -0.262453
     17 H                     0.134519
     18 C                     0.315302
     19 S                    -0.079718
     20 C                    -0.342066
     21 C                     0.033507
     22 H                     0.120091
     23 H                     0.198430
  ----------------------------------------
  Sum of atomic charges =     0.000000

 -----------------------------------------------------------------
                    Cartesian Multipole Moments
 -----------------------------------------------------------------
    Charge (ESU x 10^10)
                 0.0000
    Dipole Moment (Debye)
         X      -0.2363      Y      -0.4070      Z      -0.0676
       Tot       0.4755
    Quadrupole Moments (Debye-Ang)
        XX     -89.3881     XY       2.1648     YY    -101.2386
        XZ      -0.8530     YZ      -0.5109     ZZ    -116.0048
    Octopole Moments (Debye-Ang^2)
       XXX     -22.9137    XXY      -3.2036    XYY     -12.6447
       YYY     -60.7378    XXZ      19.2262    XYZ       3.8262
       YYZ       4.2869    XZZ     -11.1876    YZZ     -23.2700
       ZZZ      30.2058
    Hexadecapole Moments (Debye-Ang^3)
      XXXX   -6199.2822   XXXY     201.2540   XXYY   -1239.4248
      XYYY     271.5992   YYYY    -931.3423   XXXZ     -47.5253
      XXYZ     -32.1914   XYYZ     -13.2834   YYYZ      20.6815
      XXZZ   -1353.9422   XYZZ      88.6828   YYZZ    -206.1922
      XZZZ     -41.3259   YZZZ      21.0020   ZZZZ    -204.1280
 -----------------------------------------------------------------
 Calculating analytic gradient of the SCF energy
 Gradient of SCF Energy
            1           2           3           4           5           6
    1  -0.0000017  -0.0000055  -0.0000500  -0.0000224   0.0000380  -0.0000038
    2   0.0000030   0.0000030  -0.0000285   0.0000190  -0.0000347  -0.0000027
    3   0.0000083  -0.0000154  -0.0000056  -0.0000122  -0.0000101   0.0000415
            7           8           9          10          11          12
    1  -0.0000015  -0.0000486  -0.0000206  -0.0000919  -0.0000092   0.0002603
    2   0.0000016  -0.0000277  -0.0000558   0.0000877  -0.0000540   0.0003412
    3  -0.0000176   0.0000040  -0.0000222  -0.0000732   0.0001048  -0.0000037
           13          14          15          16          17          18
    1   0.0000046   0.0000051  -0.0000150  -0.0002597  -0.0000385   0.0001349
    2   0.0003192  -0.0000800  -0.0004993  -0.0004986  -0.0000609   0.0003297
    3  -0.0005233   0.0002357   0.0009192  -0.0009252  -0.0001947   0.0005424
           19          20          21          22          23
    1  -0.0000298  -0.0000101   0.0001629  -0.0000059   0.0000085
    2   0.0004646  -0.0000820  -0.0000553  -0.0000468  -0.0000429
    3  -0.0000406  -0.0000689   0.0000226   0.0000678  -0.0000336
 Max gradient component =       9.252E-04
 RMS gradient           =       2.308E-04
 Gradient time:  CPU 4.66 s  wall 4.62 s
 Geometry Optimization Parameters
   NAtoms,    NIC,     NZ,  NCons,   NDum,   NFix, NCnnct, MaxDiis
       23     166       0       1       0       0       0       0

 Cartesian Hessian Update
 Hessian Updated using BFGS Update


** CONSTRAINED OPTIMIZATION IN DELOCALIZED INTERNAL COORDINATES **
   Searching for a Minimum

   Optimization Cycle:   3

                       Coordinates (Angstroms)
     ATOM                X               Y               Z
      1  H         6.2347237225   -0.2672976692    0.1858366200
      2  H         5.3327199560    2.1951676019   -0.1158987268
      3  C         5.2036758624    0.0441827402    0.0901546917
      4  C         4.7068732393    1.3115052302   -0.0660883862
      5  S         3.9358359155   -1.1394229724    0.1312686594
      6  C         3.2864189620    1.3401709596   -0.1684241038
      7  H         2.7132522450    2.2484844824   -0.3177958587
      8  C         2.7027740186    0.0912584604   -0.0878525010
      9  H         1.3066823676   -2.3708822442   -0.6811596269
     10  C         1.2992929287   -0.2650680188   -0.1588790229
     11  C         0.7237763838   -1.4871958819   -0.4456896675
     12  S         0.0546816784    0.9333928876    0.1448765961
     13  C        -0.6946034344   -1.4622246993   -0.4535737829
     14  H        -1.3086327866   -2.3211200970   -0.6984977442
     15  C        -1.2288955658   -0.2235726618   -0.1619941377
     16  C        -2.6311752294    0.1455478911   -0.0861578627
     17  H        -3.5729744593   -1.6883304293    0.5811524698
     18  C        -3.6958180730   -0.6559147962    0.2746294720
     19  S        -3.1949381027    1.7618319225   -0.4784560107
     20  C        -4.9511533463    0.0156294967    0.2333297335
     21  C        -4.8406114933    1.3286795526   -0.1442403331
     22  H        -5.8945114608   -0.4533167091    0.4892698860
     23  H        -5.6241043382    2.0668302540   -0.2468535134
   Point Group: c1    Number of degrees of freedom:    63


   Energy is  -1656.663269781

              Constraints and their Current Values
                                        Value     Constraint
   Dihedral:       13  15  16  18       30.000       30.000
 Hessian Updated using BFGS Update

 56 Hessian modes will be used to form the next step
  Hessian Eigenvalues:
     0.028776    0.045000    0.045000    0.045001    0.045001    0.045003
     0.045005    0.045008    0.045009    0.045015    0.045018    0.045092
     0.046038    0.158410    0.159913    0.159958    0.159959    0.159993
     0.159999    0.160010    0.160284    0.202358    0.221296    0.223695
     0.227408    0.237852    0.240451    0.249984    0.249999    0.250126
     0.261011    0.293634    0.294365    0.294845    0.307304    0.312579
     0.313591    0.354683    0.354743    0.354747    0.354798    0.355164
     0.355271    0.358372    0.358498    0.383469    0.390283    0.405836
     0.407959    0.417222    0.459244    0.462088    0.469055    0.486776
     0.497223    0.497315

 Minimum Search - Taking Simple RFO Step
 Searching for Lamda that Minimizes Along All modes
 Value Taken    Lamda =  -0.00000693
 Step Taken.  Stepsize is  0.013403

                             Maximum     Tolerance    Cnvgd?
         Gradient           0.000276      0.000300     YES
         Displacement       0.008005      0.001200      NO
         Energy change     -0.000035      0.000001      NO


 New Cartesian Coordinates Obtained by Inverse Iteration

 Displacement from previous Coordinates is:  0.029896
 ----------------------------------------------------------------
             Standard Nuclear Orientation (Angstroms)
    I     Atom           X                Y                Z
 ----------------------------------------------------------------
    1      H       6.2352270287    -0.2690076937     0.1873535562
    2      H       5.3344275287     2.1937277917    -0.1157075958
    3      C       5.2043526411     0.0429542480     0.0913416587
    4      C       4.7081384775     1.3103937467    -0.0656189838
    5      S       3.9357860612    -1.1399502477     0.1326453480
    6      C       3.2876628731     1.3396723061    -0.1683349032
    7      H       2.7149818636     2.2481904016    -0.3182835195
    8      C       2.7033186874     0.0910917307    -0.0873340259
    9      H       1.3057694998    -2.3696451459    -0.6832289191
   10      C       1.2995405470    -0.2647149538    -0.1586908512
   11      C       0.7231430591    -1.4860822092    -0.4468691788
   12      S       0.0552287477     0.9340119756     0.1451002049
   13      C      -0.6953884497    -1.4600095826    -0.4555317419
   14      H      -1.3101442003    -2.3173316505    -0.7039470164
   15      C      -1.2288673080    -0.2209049414    -0.1631824460
   16      C      -2.6312654958     0.1475724019    -0.0855308109
   17      H      -3.5693461102    -1.6861447449     0.5876539947
   18      C      -3.6945964004    -0.6552995152     0.2769261330
   19      S      -3.1982744006     1.7611776102    -0.4808748920
   20      C      -4.9512711544     0.0141274341     0.2345276937
   21      C      -4.8433338806     1.3265782262    -0.1457452618
   22      H      -5.8938657784    -0.4555488198     0.4916780037
   23      H      -5.6279348468     2.0634769320    -0.2493895964
 ----------------------------------------------------------------
 Nuclear Repulsion Energy =  1176.9407050126 hartrees
 There are       64 alpha and       64 beta electrons
 Applying Cartesian multipole field
    Component          Value
    ---------          -----
     (2,0,0)        1.00000E-12
     (0,2,0)        2.00000E-11
     (0,0,2)       -3.00000E-11
 Nucleus-field energy     =     0.0000000164 hartrees
 Requested basis set is 6-31++G(d,p)
 There are 110 shells and 345 basis functions
 A cutoff of  1.0D-12 yielded   4670 shell pairs
 There are     47557 function pairs

 Q-Chem warning in module /project/projectdirs/jcesr/qchem/qc44/cnl_qc441/compile/cori/qc_src/libqints/qchem/aobasis.C, line 68:

 Using reconstructed effective core potential

 Smallest overlap matrix eigenvalue = 7.26E-08
 Linear dependence detected in AO basis
 Number of orthogonalized atomic orbitals = 342
 Maximum deviation from orthogonality = 5.025E-11
 Guess MOs from SCF MO coefficient file
 Reading MOs from coefficient file
 Reading MOs from coefficient file
 A restricted hybrid HF-DFT SCF calculation will be
 performed using Pulay DIIS extrapolation
 Exchange:     0.2000 Hartree-Fock + 0.0800 Slater + 0.7200 B88
 Correlation:  0.1900 VWN1RPA + 0.8100 LYP
 Using SG-1 standard quadrature grid
 SCF converges when DIIS error is below 1.0E-08
 Geometry optimization detected.  Setting ReadMinima to 0
 Setting SaveMinima to 0
 ---------------------------------------
  Cycle       Energy         DIIS Error
 ---------------------------------------
    1   -1656.6637225178      7.70E-05
    2   -1656.6632687171      1.80E-05
    3   -1656.6632512162      3.73E-05
    4   -1656.6632742450      4.20E-06
    5   -1656.6632745087      1.47E-06
    6   -1656.6632745382      4.99E-07
    7   -1656.6632745432      1.79E-07
    8   -1656.6632745413      6.79E-08
    9   -1656.6632745437      2.29E-08
   10   -1656.6632745428      4.95E-09 Convergence criterion met
 ---------------------------------------
 SCF time:  CPU 11.06 s  wall 10.21 s
 SCF   energy in the final basis set = -1656.6632745428
 Total energy in the final basis set = -1656.6632745428
 
 --------------------------------------------------------------
 
                    Orbital Energies (a.u.)
 --------------------------------------------------------------
 
 Alpha MOs
 -- Occupied --
-88.922 -88.921 -88.921 -10.241 -10.241 -10.240 -10.240 -10.226
-10.226 -10.206 -10.206 -10.206 -10.206 -10.205 -10.205  -7.981
 -7.981  -7.980  -5.945  -5.945  -5.945  -5.942  -5.941  -5.941
 -5.938  -5.938  -5.938  -0.907  -0.892  -0.876  -0.787  -0.756
 -0.745  -0.744  -0.734  -0.697  -0.617  -0.596  -0.569  -0.564
 -0.537  -0.533  -0.529  -0.499  -0.463  -0.422  -0.421  -0.418
 -0.415  -0.408  -0.402  -0.398  -0.386  -0.376  -0.370  -0.361
 -0.352  -0.343  -0.293  -0.267  -0.263  -0.260  -0.250  -0.202
 -- Virtual --
 -0.070  -0.031  -0.011  -0.005  -0.004   0.002   0.008   0.010
  0.016   0.018   0.024   0.028   0.032   0.034   0.039   0.044
  0.047   0.050   0.053   0.054   0.062   0.064   0.075   0.077
  0.081   0.088   0.091   0.095   0.097   0.105   0.109   0.110
  0.112   0.115   0.122   0.125   0.125   0.131   0.132   0.134
  0.138   0.139   0.142   0.145   0.147   0.151   0.154   0.158
  0.161   0.169   0.171   0.175   0.180   0.186   0.189   0.190
  0.194   0.199   0.203   0.205   0.209   0.215   0.217   0.222
  0.231   0.235   0.239   0.246   0.248   0.258   0.259   0.266
  0.267   0.271   0.273   0.286   0.294   0.295   0.307   0.309
  0.318   0.322   0.334   0.345   0.346   0.353   0.361   0.368
  0.372   0.379   0.389   0.403   0.446   0.454   0.456   0.490
  0.510   0.519   0.527   0.530   0.564   0.573   0.575   0.581
  0.586   0.612   0.617   0.630   0.642   0.654   0.659   0.662
  0.668   0.675   0.679   0.689   0.704   0.713   0.717   0.721
  0.725   0.729   0.740   0.751   0.752   0.773   0.782   0.790
  0.798   0.820   0.825   0.831   0.837   0.854   0.876   0.898
  0.928   0.938   0.941   0.945   0.957   0.958   0.961   0.970
  0.974   0.979   0.984   0.997   1.003   1.006   1.025   1.035
  1.040   1.056   1.073   1.079   1.092   1.095   1.105   1.109
  1.131   1.149   1.153   1.171   1.181   1.197   1.210   1.236
  1.250   1.267   1.280   1.314   1.336   1.340   1.350   1.356
  1.361   1.365   1.385   1.445   1.468   1.473   1.502   1.509
  1.536   1.551   1.568   1.615   1.678   1.686   1.715   1.727
  1.790   1.830   1.865   1.873   1.884   1.897   1.910   1.916
  1.925   1.951   1.965   1.970   2.008   2.021   2.048   2.067
  2.080   2.095   2.124   2.155   2.175   2.183   2.190   2.201
  2.226   2.242   2.256   2.270   2.289   2.327   2.364   2.365
  2.419   2.425   2.447   2.455   2.464   2.469   2.482   2.507
  2.523   2.531   2.537   2.555   2.580   2.588   2.605   2.629
  2.663   2.682   2.703   2.717   2.733   2.788   2.847   2.871
  2.900   2.923   2.945   2.973   3.126   3.179   3.222   3.270
  3.272   3.324   3.412   3.416   3.665   3.732   3.740   3.950
  3.979   4.004   4.255   4.266   4.307   4.317   4.332   4.340
  4.387   4.474   4.552   4.637   4.699   4.734
 --------------------------------------------------------------
 
          Ground-State Mulliken Net Atomic Charges

     Atom                 Charge (a.u.)
  ----------------------------------------
      1 H                     0.195735
      2 H                     0.119931
      3 C                     0.018986
      4 C                    -0.368568
      5 S                    -0.099613
      6 C                     0.438946
      7 H                     0.123979
      8 C                    -0.294839
      9 H                     0.125210
     10 C                    -0.163272
     11 C                     0.016199
     12 S                    -0.197860
     13 C                     0.081192
     14 H                     0.125845
     15 C                    -0.239541
     16 C                    -0.265342
     17 H                     0.135037
     18 C                     0.317867
     19 S                    -0.078535
     20 C                    -0.343722
     21 C                     0.033840
     22 H                     0.120103
     23 H                     0.198421
  ----------------------------------------
  Sum of atomic charges =     0.000000

 -----------------------------------------------------------------
                    Cartesian Multipole Moments
 -----------------------------------------------------------------
    Charge (ESU x 10^10)
                 0.0000
    Dipole Moment (Debye)
         X      -0.2350      Y      -0.4055      Z      -0.0684
       Tot       0.4736
    Quadrupole Moments (Debye-Ang)
        XX     -89.3735     XY       2.1566     YY    -101.2683
        XZ      -0.8540     YZ      -0.5156     ZZ    -115.9894
    Octopole Moments (Debye-Ang^2)
       XXX     -22.8431    XXY      -3.1532    XYY     -12.5515
       YYY     -60.7443    XXZ      19.2455    XYZ       3.8597
       YYZ       4.2789    XZZ     -11.1939    YZZ     -23.2941
       ZZZ      30.2221
    Hexadecapole Moments (Debye-Ang^3)
      XXXX   -6201.3147   XXXY     201.0279   XXYY   -1240.0517
      XYYY     271.9544   YYYY    -930.8815   XXXZ     -47.9264
      XXYZ     -32.4306   XYYZ     -13.4782   YYYZ      20.8900
      XXZZ   -1354.4333   XYZZ      88.8140   YYZZ    -206.0315
      XZZZ     -42.0114   YZZZ      21.2217   ZZZZ    -204.6201
 -----------------------------------------------------------------
 Calculating analytic gradient of the SCF energy
 Gradient of SCF Energy
            1           2           3           4           5           6
    1   0.0000038   0.0000022   0.0000060   0.0000166   0.0000173  -0.0000014
    2   0.0000056  -0.0000026  -0.0000029   0.0000025   0.0000168  -0.0000063
    3   0.0000058  -0.0000150   0.0000006  -0.0000080  -0.0000197   0.0000369
            7           8           9          10          11          12
    1  -0.0000008  -0.0000104  -0.0000042  -0.0000376   0.0000816   0.0000920
    2  -0.0000037  -0.0000310   0.0000052   0.0000252  -0.0000384  -0.0000015
    3  -0.0000166   0.0000082  -0.0000116  -0.0000552   0.0001327  -0.0001253
           13          14          15          16          17          18
    1  -0.0000757  -0.0000034  -0.0000150  -0.0000402  -0.0000008   0.0001454
    2   0.0001367  -0.0000214  -0.0000984  -0.0001652  -0.0000207   0.0001229
    3  -0.0004028   0.0001303   0.0008560  -0.0008579  -0.0000998   0.0004177
           19          20          21          22          23
    1  -0.0000850  -0.0000876   0.0000119   0.0000089  -0.0000236
    2   0.0000419   0.0000317  -0.0000079   0.0000205  -0.0000090
    3   0.0000944  -0.0000959   0.0000187   0.0000407  -0.0000343
 Max gradient component =       8.579E-04
 RMS gradient           =       1.716E-04
 Gradient time:  CPU 4.60 s  wall 4.60 s
 Geometry Optimization Parameters
   NAtoms,    NIC,     NZ,  NCons,   NDum,   NFix, NCnnct, MaxDiis
       23     166       0       1       0       0       0       0

 Cartesian Hessian Update
 Hessian Updated using BFGS Update


** CONSTRAINED OPTIMIZATION IN DELOCALIZED INTERNAL COORDINATES **
   Searching for a Minimum

   Optimization Cycle:   4

                       Coordinates (Angstroms)
     ATOM                X               Y               Z
      1  H         6.2352270287   -0.2690076937    0.1873535562
      2  H         5.3344275287    2.1937277917   -0.1157075958
      3  C         5.2043526411    0.0429542480    0.0913416587
      4  C         4.7081384775    1.3103937467   -0.0656189838
      5  S         3.9357860612   -1.1399502477    0.1326453480
      6  C         3.2876628731    1.3396723061   -0.1683349032
      7  H         2.7149818636    2.2481904016   -0.3182835195
      8  C         2.7033186874    0.0910917307   -0.0873340259
      9  H         1.3057694998   -2.3696451459   -0.6832289191
     10  C         1.2995405470   -0.2647149538   -0.1586908512
     11  C         0.7231430591   -1.4860822092   -0.4468691788
     12  S         0.0552287477    0.9340119756    0.1451002049
     13  C        -0.6953884497   -1.4600095826   -0.4555317419
     14  H        -1.3101442003   -2.3173316505   -0.7039470164
     15  C        -1.2288673080   -0.2209049414   -0.1631824460
     16  C        -2.6312654958    0.1475724019   -0.0855308109
     17  H        -3.5693461102   -1.6861447449    0.5876539947
     18  C        -3.6945964004   -0.6552995152    0.2769261330
     19  S        -3.1982744006    1.7611776102   -0.4808748920
     20  C        -4.9512711544    0.0141274341    0.2345276937
     21  C        -4.8433338806    1.3265782262   -0.1457452618
     22  H        -5.8938657784   -0.4555488198    0.4916780037
     23  H        -5.6279348468    2.0634769320   -0.2493895964
   Point Group: c1    Number of degrees of freedom:    63


   Energy is  -1656.663274543

              Constraints and their Current Values
                                        Value     Constraint
   Dihedral:       13  15  16  18       30.000       30.000
 Hessian Updated using BFGS Update

 60 Hessian modes will be used to form the next step
  Hessian Eigenvalues:
     0.015036    0.044283    0.045000    0.045000    0.045000    0.045000
     0.045001    0.045001    0.045002    0.045002    0.045003    0.045008
     0.045009    0.045014    0.045016    0.045039    0.045793    0.159770
     0.159864    0.159938    0.159961    0.159966    0.159997    0.160029
     0.160696    0.208231    0.221273    0.222991    0.226894    0.237873
     0.241830    0.249851    0.249999    0.250062    0.284986    0.293572
     0.294293    0.296025    0.301596    0.312555    0.315733    0.354699
     0.354743    0.354747    0.354865    0.355164    0.355605    0.358372
     0.358893    0.384586    0.390267    0.405852    0.410242    0.443548
     0.459541    0.462830    0.474267    0.485504    0.497250    0.498959

 Minimum Search - Taking Simple RFO Step
 Searching for Lamda that Minimizes Along All modes
 Value Taken    Lamda =  -0.00000452
 Step Taken.  Stepsize is  0.015817

                             Maximum     Tolerance    Cnvgd?
         Gradient           0.000215      0.000300     YES
         Displacement       0.009818      0.001200      NO
         Energy change     -0.000005      0.000001      NO


 New Cartesian Coordinates Obtained by Inverse Iteration

 Displacement from previous Coordinates is:  0.027500
 ----------------------------------------------------------------
             Standard Nuclear Orientation (Angstroms)
    I     Atom           X                Y                Z
 ----------------------------------------------------------------
    1      H       6.2348021786    -0.2694638030     0.1891135544
    2      H       5.3343869567     2.1933021925    -0.1152080696
    3      C       5.2040083725     0.0426245524     0.0927071059
    4      C       4.7079846832     1.3100569880    -0.0649396735
    5      S       3.9352874368    -1.1401496296     0.1341038780
    6      C       3.2875604187     1.3394811395    -0.1681460372
    7      H       2.7150188403     2.2479931225    -0.3186639010
    8      C       2.7031390170     0.0909679118    -0.0867930563
    9      H       1.3055408971    -2.3688075725    -0.6866649607
   10      C       1.2993714231    -0.2648885541    -0.1585499766
   11      C       0.7228068337    -1.4856778817    -0.4490143350
   12      S       0.0550581446     0.9334703083     0.1465298556
   13      C      -0.6956728858    -1.4594475797    -0.4580748410
   14      H      -1.3106110423    -2.3154704516    -0.7104747240
   15      C      -1.2287419941    -0.2202263023    -0.1647357238
   16      C      -2.6310123337     0.1481275115    -0.0846054296
   17      H      -3.5674140793    -1.6841914560     0.5953057427
   18      C      -3.6937495748    -0.6549419365     0.2797683322
   19      S      -3.1989182632     1.7596902605    -0.4847047523
   20      C      -4.9506296576     0.0139040541     0.2364916291
   21      C      -4.8435930751     1.3254340647    -0.1474309973
   22      H      -5.8929622928    -0.4554112164     0.4952139667
   23      H      -5.6283710137     2.0619595775    -0.2522707365
 ----------------------------------------------------------------
 Nuclear Repulsion Energy =  1176.9785006236 hartrees
 There are       64 alpha and       64 beta electrons
 Applying Cartesian multipole field
    Component          Value
    ---------          -----
     (2,0,0)        1.00000E-12
     (0,2,0)        2.00000E-11
     (0,0,2)       -3.00000E-11
 Nucleus-field energy     =     0.0000000163 hartrees
 Requested basis set is 6-31++G(d,p)
 There are 110 shells and 345 basis functions
 A cutoff of  1.0D-12 yielded   4670 shell pairs
 There are     47557 function pairs

 Q-Chem warning in module /project/projectdirs/jcesr/qchem/qc44/cnl_qc441/compile/cori/qc_src/libqints/qchem/aobasis.C, line 68:

 Using reconstructed effective core potential

 Smallest overlap matrix eigenvalue = 7.34E-08
 Linear dependence detected in AO basis
 Number of orthogonalized atomic orbitals = 342
 Maximum deviation from orthogonality = 3.005E-11
 Guess MOs from SCF MO coefficient file
 Reading MOs from coefficient file
 Reading MOs from coefficient file
 A restricted hybrid HF-DFT SCF calculation will be
 performed using Pulay DIIS extrapolation
 Exchange:     0.2000 Hartree-Fock + 0.0800 Slater + 0.7200 B88
 Correlation:  0.1900 VWN1RPA + 0.8100 LYP
 Using SG-1 standard quadrature grid
 SCF converges when DIIS error is below 1.0E-08
 Geometry optimization detected.  Setting ReadMinima to 0
 Setting SaveMinima to 0
 ---------------------------------------
  Cycle       Energy         DIIS Error
 ---------------------------------------
    1   -1656.6642710152      7.31E-05
    2   -1656.6632745330      1.21E-05
    3   -1656.6632666500      2.50E-05
    4   -1656.6632772544      3.41E-06
    5   -1656.6632774321      1.13E-06
    6   -1656.6632774464      5.80E-07
    7   -1656.6632774520      1.62E-07
    8   -1656.6632774510      5.45E-08
    9   -1656.6632774536      1.99E-08
   10   -1656.6632774543      5.74E-09 Convergence criterion met
 ---------------------------------------
 SCF time:  CPU 11.11 s  wall 10.14 s
 SCF   energy in the final basis set = -1656.6632774543
 Total energy in the final basis set = -1656.6632774543
 
 --------------------------------------------------------------
 
                    Orbital Energies (a.u.)
 --------------------------------------------------------------
 
 Alpha MOs
 -- Occupied --
-88.922 -88.921 -88.921 -10.241 -10.241 -10.240 -10.240 -10.226
-10.226 -10.206 -10.206 -10.206 -10.206 -10.205 -10.205  -7.981
 -7.981  -7.980  -5.945  -5.945  -5.945  -5.942  -5.941  -5.941
 -5.938  -5.938  -5.937  -0.907  -0.892  -0.876  -0.787  -0.756
 -0.745  -0.744  -0.734  -0.697  -0.617  -0.596  -0.569  -0.564
 -0.537  -0.533  -0.529  -0.499  -0.463  -0.422  -0.421  -0.418
 -0.415  -0.408  -0.402  -0.397  -0.386  -0.376  -0.370  -0.361
 -0.352  -0.343  -0.293  -0.267  -0.263  -0.260  -0.250  -0.202
 -- Virtual --
 -0.070  -0.031  -0.011  -0.005  -0.004   0.002   0.008   0.010
  0.016   0.018   0.024   0.028   0.032   0.034   0.039   0.043
  0.047   0.050   0.053   0.054   0.061   0.064   0.075   0.077
  0.081   0.088   0.091   0.095   0.097   0.105   0.109   0.110
  0.112   0.115   0.122   0.125   0.125   0.131   0.132   0.134
  0.138   0.139   0.142   0.145   0.148   0.151   0.154   0.158
  0.161   0.169   0.171   0.175   0.180   0.186   0.189   0.189
  0.194   0.199   0.203   0.205   0.209   0.215   0.217   0.222
  0.231   0.235   0.239   0.246   0.248   0.258   0.259   0.266
  0.267   0.271   0.273   0.286   0.294   0.295   0.307   0.308
  0.318   0.322   0.334   0.345   0.346   0.353   0.361   0.368
  0.372   0.379   0.389   0.403   0.446   0.454   0.456   0.490
  0.510   0.519   0.527   0.530   0.564   0.573   0.575   0.581
  0.586   0.612   0.617   0.630   0.642   0.654   0.659   0.662
  0.668   0.675   0.679   0.689   0.704   0.713   0.717   0.721
  0.725   0.729   0.740   0.752   0.752   0.773   0.782   0.790
  0.798   0.820   0.825   0.831   0.837   0.854   0.876   0.898
  0.928   0.938   0.941   0.945   0.957   0.958   0.961   0.970
  0.974   0.978   0.984   0.997   1.003   1.006   1.025   1.035
  1.040   1.056   1.073   1.079   1.092   1.095   1.105   1.109
  1.131   1.149   1.153   1.171   1.181   1.197   1.209   1.236
  1.250   1.267   1.280   1.313   1.336   1.339   1.350   1.356
  1.362   1.365   1.385   1.445   1.468   1.474   1.502   1.509
  1.535   1.551   1.567   1.615   1.679   1.687   1.716   1.727
  1.790   1.830   1.865   1.873   1.883   1.897   1.910   1.916
  1.925   1.951   1.965   1.970   2.008   2.021   2.048   2.067
  2.079   2.095   2.124   2.155   2.175   2.184   2.190   2.200
  2.226   2.242   2.256   2.270   2.289   2.327   2.364   2.365
  2.419   2.425   2.447   2.455   2.464   2.468   2.482   2.507
  2.523   2.531   2.537   2.555   2.580   2.588   2.605   2.629
  2.663   2.683   2.703   2.717   2.733   2.788   2.847   2.871
  2.900   2.923   2.945   2.973   3.126   3.179   3.222   3.270
  3.272   3.324   3.412   3.416   3.665   3.732   3.740   3.950
  3.979   4.004   4.255   4.266   4.307   4.317   4.332   4.340
  4.387   4.474   4.552   4.637   4.699   4.734
 --------------------------------------------------------------
 
          Ground-State Mulliken Net Atomic Charges

     Atom                 Charge (a.u.)
  ----------------------------------------
      1 H                     0.195715
      2 H                     0.119912
      3 C                     0.019287
      4 C                    -0.369442
      5 S                    -0.099723
      6 C                     0.440070
      7 H                     0.124037
      8 C                    -0.295704
      9 H                     0.125335
     10 C                    -0.163830
     11 C                     0.016930
     12 S                    -0.196018
     13 C                     0.080361
     14 H                     0.126225
     15 C                    -0.241695
     16 C                    -0.268465
     17 H                     0.135613
     18 C                     0.322045
     19 S                    -0.078128
     20 C                    -0.344815
     21 C                     0.033834
     22 H                     0.120111
     23 H                     0.198345
  ----------------------------------------
  Sum of atomic charges =     0.000000

 -----------------------------------------------------------------
                    Cartesian Multipole Moments
 -----------------------------------------------------------------
    Charge (ESU x 10^10)
                 0.0000
    Dipole Moment (Debye)
         X      -0.2346      Y      -0.4033      Z      -0.0692
       Tot       0.4716
    Quadrupole Moments (Debye-Ang)
        XX     -89.3862     XY       2.1490     YY    -101.2847
        XZ      -0.8565     YZ      -0.5205     ZZ    -115.9678
    Octopole Moments (Debye-Ang^2)
       XXX     -22.7722    XXY      -3.1083    XYY     -12.4902
       YYY     -60.6420    XXZ      19.2973    XYZ       3.9126
       YYZ       4.2552    XZZ     -11.2279    YZZ     -23.2895
       ZZZ      30.2409
    Hexadecapole Moments (Debye-Ang^3)
      XXXX   -6201.2842   XXXY     200.7441   XXYY   -1240.0323
      XYYY     271.8823   YYYY    -930.3147   XXXZ     -48.5218
      XXYZ     -32.7010   XYYZ     -13.6540   YYYZ      21.0656
      XXZZ   -1354.1580   XYZZ      88.8091   YYZZ    -205.8847
      XZZZ     -42.7532   YZZZ      21.4021   ZZZZ    -205.3484
 -----------------------------------------------------------------
 Calculating analytic gradient of the SCF energy
 Gradient of SCF Energy
            1           2           3           4           5           6
    1  -0.0000018  -0.0000003   0.0000046  -0.0000016  -0.0000079   0.0000028
    2  -0.0000002  -0.0000009   0.0000108   0.0000015  -0.0000046   0.0000055
    3   0.0000037  -0.0000149   0.0000033  -0.0000095  -0.0000200   0.0000244
            7           8           9          10          11          12
    1   0.0000013   0.0000277   0.0000010   0.0000044  -0.0000040  -0.0000649
    2   0.0000013   0.0000006   0.0000199  -0.0000017  -0.0000231  -0.0001137
    3  -0.0000141   0.0000111   0.0000031  -0.0000281   0.0000950  -0.0001426
           13          14          15          16          17          18
    1  -0.0000302  -0.0000010   0.0000770   0.0000008   0.0000021   0.0000047
    2  -0.0000653   0.0000032   0.0001694   0.0001386   0.0000041  -0.0000572
    3  -0.0002066   0.0000146   0.0006147  -0.0006087   0.0000080   0.0002247
           19          20          21          22          23
    1  -0.0000053  -0.0000032  -0.0000150   0.0000101  -0.0000013
    2  -0.0001401  -0.0000054   0.0000202   0.0000290   0.0000082
    3   0.0000909  -0.0000444   0.0000144   0.0000153  -0.0000343
 Max gradient component =       6.147E-04
 RMS gradient           =       1.197E-04
 Gradient time:  CPU 4.66 s  wall 4.60 s
 Geometry Optimization Parameters
   NAtoms,    NIC,     NZ,  NCons,   NDum,   NFix, NCnnct, MaxDiis
       23     166       0       1       0       0       0       0

 Cartesian Hessian Update
 Hessian Updated using BFGS Update


** CONSTRAINED OPTIMIZATION IN DELOCALIZED INTERNAL COORDINATES **
   Searching for a Minimum

   Optimization Cycle:   5

                       Coordinates (Angstroms)
     ATOM                X               Y               Z
      1  H         6.2348021786   -0.2694638030    0.1891135544
      2  H         5.3343869567    2.1933021925   -0.1152080696
      3  C         5.2040083725    0.0426245524    0.0927071059
      4  C         4.7079846832    1.3100569880   -0.0649396735
      5  S         3.9352874368   -1.1401496296    0.1341038780
      6  C         3.2875604187    1.3394811395   -0.1681460372
      7  H         2.7150188403    2.2479931225   -0.3186639010
      8  C         2.7031390170    0.0909679118   -0.0867930563
      9  H         1.3055408971   -2.3688075725   -0.6866649607
     10  C         1.2993714231   -0.2648885541   -0.1585499766
     11  C         0.7228068337   -1.4856778817   -0.4490143350
     12  S         0.0550581446    0.9334703083    0.1465298556
     13  C        -0.6956728858   -1.4594475797   -0.4580748410
     14  H        -1.3106110423   -2.3154704516   -0.7104747240
     15  C        -1.2287419941   -0.2202263023   -0.1647357238
     16  C        -2.6310123337    0.1481275115   -0.0846054296
     17  H        -3.5674140793   -1.6841914560    0.5953057427
     18  C        -3.6937495748   -0.6549419365    0.2797683322
     19  S        -3.1989182632    1.7596902605   -0.4847047523
     20  C        -4.9506296576    0.0139040541    0.2364916291
     21  C        -4.8435930751    1.3254340647   -0.1474309973
     22  H        -5.8929622928   -0.4554112164    0.4952139667
     23  H        -5.6283710137    2.0619595775   -0.2522707365
   Point Group: c1    Number of degrees of freedom:    63


   Energy is  -1656.663277454

              Constraints and their Current Values
                                        Value     Constraint
   Dihedral:       13  15  16  18       30.000       30.000
 Hessian Updated using BFGS Update

 59 Hessian modes will be used to form the next step
  Hessian Eigenvalues:
     0.010823    0.042769    0.045000    0.045000    0.045000    0.045001
     0.045001    0.045002    0.045003    0.045003    0.045009    0.045010
     0.045014    0.045018    0.045132    0.046805    0.159545    0.159926
     0.159953    0.159961    0.159997    0.160015    0.160273    0.160760
     0.191762    0.221267    0.224072    0.228848    0.238025    0.242300
     0.249998    0.250031    0.250318    0.283827    0.293637    0.294393
     0.295733    0.312410    0.313366    0.319934    0.354723    0.354747
     0.354756    0.354882    0.355164    0.355791    0.358376    0.358874
     0.384822    0.390725    0.405896    0.410190    0.441444    0.459536
     0.462871    0.476880    0.490833    0.497280    0.500553

 Minimum Search - Taking Simple RFO Step
 Searching for Lamda that Minimizes Along All modes
 Value Taken    Lamda =  -0.00000148
 Step Taken.  Stepsize is  0.009172

                             Maximum     Tolerance    Cnvgd?
         Gradient           0.000125      0.000300     YES
         Displacement       0.005871      0.001200      NO
         Energy change     -0.000003      0.000001      NO


 New Cartesian Coordinates Obtained by Inverse Iteration

 Displacement from previous Coordinates is:  0.015987
 ----------------------------------------------------------------
             Standard Nuclear Orientation (Angstroms)
    I     Atom           X                Y                Z
 ----------------------------------------------------------------
    1      H       6.2346257597    -0.2691593232     0.1907055082
    2      H       5.3341333716     2.1933781028    -0.1151478737
    3      C       5.2038386268     0.0428093278     0.0938230298
    4      C       4.7077663139     1.3101204154    -0.0646275440
    5      S       3.9351557312    -1.1399945216     0.1354320820
    6      C       3.2873592311     1.3394120698    -0.1683280102
[...]
    6   -1656.6632784499      3.74E-07
    7   -1656.6632784490      9.64E-08
    8   -1656.6632784496      3.25E-08
    9   -1656.6632784502      1.12E-08
   10   -1656.6632784513      3.65E-09 Convergence criterion met
 ---------------------------------------
 SCF time:  CPU 10.94 s  wall 9.97 s
 SCF   energy in the final basis set = -1656.6632784513
 Total energy in the final basis set = -1656.6632784513
 
 --------------------------------------------------------------
 
                    Orbital Energies (a.u.)
 --------------------------------------------------------------
 
 Alpha MOs
 -- Occupied --
-88.922 -88.921 -88.921 -10.241 -10.241 -10.240 -10.240 -10.226
-10.226 -10.206 -10.206 -10.206 -10.206 -10.205 -10.205  -7.981
 -7.981  -7.980  -5.945  -5.945  -5.945  -5.942  -5.941  -5.941
 -5.938  -5.938  -5.937  -0.907  -0.892  -0.876  -0.787  -0.756
 -0.745  -0.744  -0.734  -0.697  -0.617  -0.596  -0.569  -0.564
 -0.537  -0.533  -0.529  -0.499  -0.463  -0.422  -0.421  -0.418
 -0.415  -0.408  -0.402  -0.397  -0.386  -0.376  -0.370  -0.361
 -0.352  -0.343  -0.293  -0.267  -0.263  -0.260  -0.250  -0.202
 -- Virtual --
 -0.070  -0.031  -0.011  -0.005  -0.004   0.002   0.008   0.010
  0.016   0.018   0.024   0.028   0.033   0.034   0.039   0.043
  0.047   0.050   0.053   0.054   0.061   0.064   0.074   0.077
  0.081   0.088   0.091   0.095   0.097   0.105   0.109   0.110
  0.112   0.115   0.122   0.125   0.125   0.131   0.132   0.134
  0.138   0.139   0.142   0.145   0.148   0.151   0.154   0.158
  0.161   0.169   0.171   0.175   0.180   0.186   0.189   0.189
  0.194   0.199   0.203   0.205   0.209   0.215   0.217   0.222
  0.231   0.235   0.239   0.246   0.248   0.258   0.259   0.266
  0.267   0.271   0.273   0.286   0.294   0.295   0.307   0.308
  0.318   0.322   0.334   0.345   0.346   0.353   0.361   0.368
  0.372   0.379   0.389   0.403   0.446   0.454   0.456   0.490
  0.510   0.519   0.527   0.530   0.564   0.573   0.575   0.581
  0.586   0.612   0.617   0.630   0.642   0.654   0.660   0.662
  0.668   0.675   0.680   0.689   0.704   0.713   0.717   0.721
  0.725   0.729   0.740   0.752   0.752   0.773   0.782   0.790
  0.798   0.820   0.825   0.831   0.837   0.854   0.876   0.898
  0.928   0.938   0.940   0.945   0.957   0.958   0.961   0.970
  0.974   0.978   0.984   0.997   1.003   1.006   1.025   1.035
  1.040   1.056   1.073   1.079   1.092   1.095   1.104   1.109
  1.131   1.149   1.153   1.171   1.181   1.197   1.209   1.236
  1.250   1.267   1.280   1.313   1.336   1.339   1.350   1.356
  1.362   1.365   1.386   1.444   1.468   1.474   1.503   1.509
  1.535   1.551   1.567   1.615   1.679   1.687   1.716   1.727
  1.790   1.830   1.865   1.873   1.883   1.897   1.910   1.916
  1.925   1.951   1.965   1.970   2.008   2.021   2.047   2.067
  2.079   2.095   2.124   2.155   2.175   2.184   2.190   2.200
  2.226   2.242   2.256   2.269   2.289   2.327   2.364   2.365
  2.419   2.425   2.447   2.455   2.464   2.468   2.482   2.507
  2.523   2.531   2.537   2.555   2.580   2.588   2.605   2.629
  2.663   2.683   2.703   2.717   2.733   2.788   2.847   2.871
  2.899   2.923   2.945   2.973   3.126   3.179   3.222   3.270
  3.272   3.324   3.412   3.416   3.665   3.732   3.740   3.950
  3.979   4.004   4.255   4.266   4.307   4.317   4.332   4.340
  4.387   4.474   4.552   4.637   4.699   4.734
 --------------------------------------------------------------
 
          Ground-State Mulliken Net Atomic Charges

     Atom                 Charge (a.u.)
  ----------------------------------------
      1 H                     0.195708
      2 H                     0.119889
      3 C                     0.019625
      4 C                    -0.370401
      5 S                    -0.099750
      6 C                     0.440898
      7 H                     0.124117
      8 C                    -0.296424
      9 H                     0.125442
     10 C                    -0.164170
     11 C                     0.017884
     12 S                    -0.195110
     13 C                     0.080289
     14 H                     0.126405
     15 C                    -0.243393
     16 C                    -0.270342
     17 H                     0.135871
     18 C                     0.324719
     19 S                    -0.078367
     20 C                    -0.345263
     21 C                     0.033938
     22 H                     0.120124
     23 H                     0.198311
  ----------------------------------------
  Sum of atomic charges =     0.000000

 -----------------------------------------------------------------
                    Cartesian Multipole Moments
 -----------------------------------------------------------------
    Charge (ESU x 10^10)
                 0.0000
    Dipole Moment (Debye)
         X      -0.2343      Y      -0.4029      Z      -0.0695
       Tot       0.4712
    Quadrupole Moments (Debye-Ang)
        XX     -89.3867     XY       2.1468     YY    -101.2926
        XZ      -0.8578     YZ      -0.5231     ZZ    -115.9567
    Octopole Moments (Debye-Ang^2)
       XXX     -22.7507    XXY      -3.0685    XYY     -12.4704
       YYY     -60.5634    XXZ      19.3340    XYZ       3.9339
       YYZ       4.2264    XZZ     -11.2446    YZZ     -23.2775
       ZZZ      30.2179
    Hexadecapole Moments (Debye-Ang^3)
      XXXX   -6200.9406   XXXY     200.5735   XXYY   -1239.9936
      XYYY     271.7543   YYYY    -929.9682   XXXZ     -48.8352
      XXYZ     -32.8590   XYYZ     -13.7645   YYYZ      21.1300
      XXZZ   -1353.9827   XYZZ      88.7761   YYZZ    -205.8149
      XZZZ     -43.1742   YZZZ      21.4689   ZZZZ    -205.8353
 -----------------------------------------------------------------
 Calculating analytic gradient of the SCF energy
 Gradient of SCF Energy
            1           2           3           4           5           6
    1  -0.0000002   0.0000010   0.0000159   0.0000013  -0.0000097  -0.0000059
    2  -0.0000009  -0.0000015   0.0000125  -0.0000077   0.0000056   0.0000034
    3   0.0000035  -0.0000142   0.0000046  -0.0000085  -0.0000192   0.0000175
            7           8           9          10          11          12
    1   0.0000025   0.0000009   0.0000071   0.0000372  -0.0000418  -0.0000899
    2  -0.0000012   0.0000026   0.0000041  -0.0000023  -0.0000066  -0.0000842
    3  -0.0000124   0.0000045   0.0000175  -0.0000190   0.0000484  -0.0000923
           13          14          15          16          17          18
    1   0.0000144   0.0000037   0.0000777  -0.0000069   0.0000019  -0.0000394
    2  -0.0000763   0.0000124   0.0001335   0.0001312   0.0000222  -0.0000494
    3  -0.0000852  -0.0000221   0.0003875  -0.0003834   0.0000445   0.0001014
           19          20          21          22          23
    1   0.0000285   0.0000339  -0.0000352  -0.0000031   0.0000061
    2  -0.0001374  -0.0000091   0.0000276   0.0000171   0.0000043
    3   0.0000449   0.0000008   0.0000107  -0.0000001  -0.0000295
 Max gradient component =       3.875E-04
 RMS gradient           =       7.867E-05
 Gradient time:  CPU 4.60 s  wall 4.60 s
 Geometry Optimization Parameters
   NAtoms,    NIC,     NZ,  NCons,   NDum,   NFix, NCnnct, MaxDiis
       23     166       0       1       0       0       0       0

 Cartesian Hessian Update
 Hessian Updated using BFGS Update


** CONSTRAINED OPTIMIZATION IN DELOCALIZED INTERNAL COORDINATES **
   Searching for a Minimum

   Optimization Cycle:   6

                       Coordinates (Angstroms)
     ATOM                X               Y               Z
      1  H         6.2346257597   -0.2691593232    0.1907055082
      2  H         5.3341333716    2.1933781028   -0.1151478737
      3  C         5.2038386268    0.0428093278    0.0938230298
      4  C         4.7077663139    1.3101204154   -0.0646275440
      5  S         3.9351557312   -1.1399945216    0.1354320820
      6  C         3.2873592311    1.3394120698   -0.1683280102
      7  H         2.7147967997    2.2477923549   -0.3195223651
      8  C         2.7029961003    0.0909108066   -0.0865376342
      9  H         1.3059291095   -2.3684381831   -0.6891598266
     10  C         1.2993044106   -0.2651214029   -0.1585959930
     11  C         0.7229851857   -1.4856341712   -0.4507307127
     12  S         0.0547363671    0.9326386727    0.1479182096
     13  C        -0.6954904489   -1.4596958753   -0.4598447606
     14  H        -1.3102258681   -2.3153364171   -0.7140473918
     15  C        -1.2288106848   -0.2208108763   -0.1657767801
     16  C        -2.6309791299    0.1476739277   -0.0839413097
     17  H        -3.5674956723   -1.6833171839    0.5991099751
     18  C        -3.6938081730   -0.6547236960    0.2814423565
     19  S        -3.1987341550    1.7586678270   -0.4868721570
     20  C        -4.9505145405    0.0143915594    0.2378741743
     21  C        -4.8433726524    1.3253106779   -0.1481313417
     22  H        -5.8928902284   -0.4544266187    0.4974183940
     23  H        -5.6280164637    2.0618878275   -0.2535031789
   Point Group: c1    Number of degrees of freedom:    63


   Energy is  -1656.663278451

              Constraints and their Current Values
                                        Value     Constraint
   Dihedral:       13  15  16  18       30.000       30.000
 Hessian Updated using BFGS Update

 62 Hessian modes will be used to form the next step
  Hessian Eigenvalues:
     0.008707    0.037730    0.045000    0.045000    0.045000    0.045000
     0.045000    0.045000    0.045001    0.045001    0.045002    0.045003
     0.045006    0.045009    0.045014    0.045015    0.045046    0.045152
     0.047324    0.158872    0.159918    0.159951    0.159959    0.159999
     0.160004    0.160241    0.160443    0.185049    0.221451    0.223555
     0.228304    0.238179    0.242326    0.250000    0.250049    0.250141
     0.281877    0.293638    0.294383    0.295242    0.307602    0.312573
     0.314626    0.354729    0.354747    0.354809    0.354890    0.355164
     0.355605    0.358380    0.358818    0.384537    0.390850    0.406176
     0.410159    0.440842    0.459399    0.462857    0.469833    0.487042
     0.497337    0.500149

 Minimum Search - Taking Simple RFO Step
 Searching for Lamda that Minimizes Along All modes
 Value Taken    Lamda =   0.00000000
 Step Taken.  Stepsize is  0.006452

                             Maximum     Tolerance    Cnvgd?
         Gradient           0.000095      0.000300     YES
         Displacement       0.004100      0.001200      NO
         Energy change     -0.000001      0.000001     YES

 Final energy is   -1656.66327845133     


 ******************************
 **  OPTIMIZATION CONVERGED  **
 ******************************

                       Coordinates (Angstroms)
     ATOM                X               Y               Z
      1  H         6.2346257597   -0.2691593232    0.1907055082
      2  H         5.3341333716    2.1933781028   -0.1151478737
      3  C         5.2038386268    0.0428093278    0.0938230298
      4  C         4.7077663139    1.3101204154   -0.0646275440
      5  S         3.9351557312   -1.1399945216    0.1354320820
      6  C         3.2873592311    1.3394120698   -0.1683280102
      7  H         2.7147967997    2.2477923549   -0.3195223651
      8  C         2.7029961003    0.0909108066   -0.0865376342
      9  H         1.3059291095   -2.3684381831   -0.6891598266
     10  C         1.2993044106   -0.2651214029   -0.1585959930
     11  C         0.7229851857   -1.4856341712   -0.4507307127
     12  S         0.0547363671    0.9326386727    0.1479182096
     13  C        -0.6954904489   -1.4596958753   -0.4598447606
     14  H        -1.3102258681   -2.3153364171   -0.7140473918
     15  C        -1.2288106848   -0.2208108763   -0.1657767801
     16  C        -2.6309791299    0.1476739277   -0.0839413097
     17  H        -3.5674956723   -1.6833171839    0.5991099751
     18  C        -3.6938081730   -0.6547236960    0.2814423565
     19  S        -3.1987341550    1.7586678270   -0.4868721570
     20  C        -4.9505145405    0.0143915594    0.2378741743
     21  C        -4.8433726524    1.3253106779   -0.1481313417
     22  H        -5.8928902284   -0.4544266187    0.4974183940
     23  H        -5.6280164637    2.0618878275   -0.2535031789

Z-matrix Print:
$molecule
0 1
S 
C  1 1.753951
C  2 1.380486 1 110.215762
H  3 1.083808 2 122.638336 1 -178.228741 0
C  3 1.418742 2 113.659104 1 -0.696639 0
H  5 1.084442 3 123.430267 2 -178.087096 0
C  5 1.380992 3 113.731132 2 -0.419652 0
C  7 1.449932 5 129.164095 3 -178.690325 0
C  8 1.380915 7 128.957054 5 159.857542 0
H  9 1.084363 8 122.833478 7 -0.920489 0
C  9 1.424489 8 113.519151 7 -179.617271 0
H  11 1.083989 9 123.781799 8 179.509407 0
C  11 1.370136 9 112.858827 8 0.084562 0
H  13 1.081311 11 128.488912 9 179.553690 0
C  2 1.452086 1 121.984197 3 178.995419 0
C  15 1.380925 2 127.636762 1 -148.807065 0
H  16 1.083915 15 122.633087 2 2.752367 0
C  16 1.424403 15 113.452735 2 -179.083407 0
H  18 1.084078 16 123.812340 15 -179.581807 0
C  18 1.370762 16 112.885864 15 -0.536808 0
H  20 1.081349 18 128.473486 16 -179.181438 0
S  20 1.734180 18 111.599357 16 0.775356 0
S  13 1.735025 11 111.628567 9 -0.588214 0
$end

 
 --------------------------------------------------------------
 
                    Orbital Energies (a.u.)
 --------------------------------------------------------------
 
 Alpha MOs
 -- Occupied --
-88.922 -88.921 -88.921 -10.241 -10.241 -10.240 -10.240 -10.226
-10.226 -10.206 -10.206 -10.206 -10.206 -10.205 -10.205  -7.981
 -7.981  -7.980  -5.945  -5.945  -5.945  -5.942  -5.941  -5.941
 -5.938  -5.938  -5.937  -0.907  -0.892  -0.876  -0.787  -0.756
 -0.745  -0.744  -0.734  -0.697  -0.617  -0.596  -0.569  -0.564
 -0.537  -0.533  -0.529  -0.499  -0.463  -0.422  -0.421  -0.418
 -0.415  -0.408  -0.402  -0.397  -0.386  -0.376  -0.370  -0.361
 -0.352  -0.343  -0.293  -0.267  -0.263  -0.260  -0.250  -0.202
 -- Virtual --
 -0.070  -0.031  -0.011  -0.005  -0.004   0.002   0.008   0.010
  0.016   0.018   0.024   0.028   0.033   0.034   0.039   0.043
  0.047   0.050   0.053   0.054   0.061   0.064   0.074   0.077
  0.081   0.088   0.091   0.095   0.097   0.105   0.109   0.110
  0.112   0.115   0.122   0.125   0.125   0.131   0.132   0.134
  0.138   0.139   0.142   0.145   0.148   0.151   0.154   0.158
  0.161   0.169   0.171   0.175   0.180   0.186   0.189   0.189
  0.194   0.199   0.203   0.205   0.209   0.215   0.217   0.222
  0.231   0.235   0.239   0.246   0.248   0.258   0.259   0.266
  0.267   0.271   0.273   0.286   0.294   0.295   0.307   0.308
  0.318   0.322   0.334   0.345   0.346   0.353   0.361   0.368
  0.372   0.379   0.389   0.403   0.446   0.454   0.456   0.490
  0.510   0.519   0.527   0.530   0.564   0.573   0.575   0.581
  0.586   0.612   0.617   0.630   0.642   0.654   0.660   0.662
  0.668   0.675   0.680   0.689   0.704   0.713   0.717   0.721
  0.725   0.729   0.740   0.752   0.752   0.773   0.782   0.790
  0.798   0.820   0.825   0.831   0.837   0.854   0.876   0.898
  0.928   0.938   0.940   0.945   0.957   0.958   0.961   0.970
  0.974   0.978   0.984   0.997   1.003   1.006   1.025   1.035
  1.040   1.056   1.073   1.079   1.092   1.095   1.104   1.109
  1.131   1.149   1.153   1.171   1.181   1.197   1.209   1.236
  1.250   1.267   1.280   1.313   1.336   1.339   1.350   1.356
  1.362   1.365   1.386   1.444   1.468   1.474   1.503   1.509
  1.535   1.551   1.567   1.615   1.679   1.687   1.716   1.727
  1.790   1.830   1.865   1.873   1.883   1.897   1.910   1.916
  1.925   1.951   1.965   1.970   2.008   2.021   2.047   2.067
  2.079   2.095   2.124   2.155   2.175   2.184   2.190   2.200
  2.226   2.242   2.256   2.269   2.289   2.327   2.364   2.365
  2.419   2.425   2.447   2.455   2.464   2.468   2.482   2.507
  2.523   2.531   2.537   2.555   2.580   2.588   2.605   2.629
  2.663   2.683   2.703   2.717   2.733   2.788   2.847   2.871
  2.899   2.923   2.945   2.973   3.126   3.179   3.222   3.270
  3.272   3.324   3.412   3.416   3.665   3.732   3.740   3.950
  3.979   4.004   4.255   4.266   4.307   4.317   4.332   4.340
  4.387   4.474   4.552   4.637   4.699   4.734
 --------------------------------------------------------------
 
          Ground-State Mulliken Net Atomic Charges

     Atom                 Charge (a.u.)
  ----------------------------------------
      1 H                     0.195708
      2 H                     0.119889
      3 C                     0.019625
      4 C                    -0.370401
      5 S                    -0.099750
      6 C                     0.440898
      7 H                     0.124117
      8 C                    -0.296424
      9 H                     0.125442
     10 C                    -0.164170
     11 C                     0.017884
     12 S                    -0.195110
     13 C                     0.080289
     14 H                     0.126405
     15 C                    -0.243393
     16 C                    -0.270342
     17 H                     0.135871
     18 C                     0.324719
     19 S                    -0.078367
     20 C                    -0.345263
     21 C                     0.033938
     22 H                     0.120124
     23 H                     0.198311
  ----------------------------------------
  Sum of atomic charges =     0.000000

 -----------------------------------------------------------------
                    Cartesian Multipole Moments
 -----------------------------------------------------------------
    Charge (ESU x 10^10)
                 0.0000
    Dipole Moment (Debye)
         X      -0.2343      Y      -0.4029      Z      -0.0695
       Tot       0.4712
    Quadrupole Moments (Debye-Ang)
        XX     -89.3867     XY       2.1468     YY    -101.2926
        XZ      -0.8578     YZ      -0.5231     ZZ    -115.9567
    Octopole Moments (Debye-Ang^2)
       XXX     -22.7507    XXY      -3.0685    XYY     -12.4704
       YYY     -60.5634    XXZ      19.3340    XYZ       3.9339
       YYZ       4.2264    XZZ     -11.2446    YZZ     -23.2775
       ZZZ      30.2179
    Hexadecapole Moments (Debye-Ang^3)
      XXXX   -6200.9406   XXXY     200.5735   XXYY   -1239.9936
      XYYY     271.7543   YYYY    -929.9682   XXXZ     -48.8352
      XXYZ     -32.8590   XYYZ     -13.7645   YYYZ      21.1300
      XXZZ   -1353.9827   XYZZ      88.7761   YYZZ    -205.8149
      XZZZ     -43.1742   YZZZ      21.4689   ZZZZ    -205.8353
 -----------------------------------------------------------------
Archival summary:
1\1\nid00499\OPT\ProcedureUnspecified\BasisUnspecified\3128\bwood\TueMay3010:54:252017TueMay3010:54:252017\0\\#,OPT,ProcedureUnspecified,BasisUnspecified,\\0,1\S\C,1,1.75395\C,2,1.38049,1,110.216\H,3,1.08381,2,122.638,1,-178.229,0\C,3,1.41874,2,113.659,1,-0.696639,0\H,5,1.08444,3,123.43,2,-178.087,0\C,5,1.38099,3,113.731,2,-0.419652,0\C,7,1.44993,5,129.164,3,-178.69,0\C,8,1.38091,7,128.957,5,159.858,0\H,9,1.08436,8,122.833,7,-0.920489,0\C,9,1.42449,8,113.519,7,-179.617,0\H,11,1.08399,9,123.782,8,179.509,0\C,11,1.37014,9,112.859,8,0.0845624,0\H,13,1.08131,11,128.489,9,179.554,0\C,2,1.45209,1,121.984,3,178.995,0\C,15,1.38092,2,127.637,1,-148.807,0\H,16,1.08392,15,122.633,2,2.75237,0\C,16,1.4244,15,113.453,2,-179.083,0\H,18,1.08408,16,123.812,15,-179.582,0\C,18,1.37076,16,112.886,15,-0.536808,0\H,20,1.08135,18,128.473,16,-179.181,0\S,20,1.73418,18,111.599,16,0.775356,0\S,13,1.73503,11,111.629,9,-0.588214,0\\\@

 Total job time:  100.75s(wall), 107.08s(cpu) 
 Tue May 30 10:54:25 2017

        *************************************************************
        *                                                           *
        *  Thank you very much for using Q-Chem.  Have a nice day.  *
        *                                                           *
        *************************************************************


0 sent ACK to 0 
now end server 0 ... 
