srun -N 1 --ntasks-per-node 22 --cpus-per-task 2 --cpu_bind=cores --nodelist nid00557 /global/project/projectdirs/jcesr/qchem/qc44/cnl_qc441/dist/exe/qcprog.cori.haswell.exe .pt_nn_neutral_-60.0.in.37819.qcin.1 /dev/shm/eg_qchem/qchem37819/
Process 1 of 22 is on nid00557 - thread support 0
Process 2 of 22 is on nid00557 - thread support 0
Process 3 of 22 is on nid00557 - thread support 0
Process 4 of 22 is on nid00557 - thread support 0
Process 5 of 22 is on nid00557 - thread support 0
Process 6 of 22 is on nid00557 - thread support 0
Process 21 of 22 is on nid00557 - thread support 0
Process 0 of 22 is on nid00557 - thread support 0
initial socket setup ...start
initial socket setup ...done 
now start server 0 ... 
nid00557 10.128.2
Q-Chem Developer Version! Running on 10.128.2.*
                  Welcome to Q-Chem
     A Quantum Leap Into The Future Of Chemistry


 Q-Chem 4.4, Q-Chem, Inc., Pleasanton, CA (2016)

 Y. Shao,  Z. Gan,  E. Epifanovsky,  A. T. B. Gilbert,  M. Wormit,  
 J. Kussmann,  A. W. Lange,  A. Behn,  J. Deng,  X. Feng,  D. Ghosh,  
 M. Goldey,  P. R. Horn,  L. D. Jacobson,  I. Kaliman,  F. Rob,  
 R. Z. Khaliullin,  T. Kus,  A. Landau,  J. Liu,  E. I. Proynov,  Y. M. Rhee,  
 R. M. Richard,  M. A. Rohrdanz,  R. P. Steele,  E. J. Sundstrom,  
 H. L. Woodcock III,  P. M. Zimmerman,  D. Zuev,  B. Albrecht,  E. Alguire,  
 B. Austin,  S. A. Baeppler,  G. J. O. Beran,  Y. A. Bernard,  
 E. J. Berquist,  K. Brandhorst,  K. B. Bravaya,  S. T. Brown,  D. Casanova,  
 C.-M. Chang,  Y. Chen,  S. H. Chien,  K. D. Closser,  M. P. Coons,  
 D. L. Crittenden,  S. Dasgupta,  M. Diedenhofen,  R. A. DiStasio Jr.,  
 H. Do,  A. D. Dutoi,  R. G. Edgar,  P.-T. Fang,  S. Fatehi,  Q. Feng,  
 L. Fusti-Molnar,  A. Ghysels,  A. Golubeva-Zadorozhnaya,  J. Gomes,  
 A. Gunina,  M. W. D. Hanson-Heine,  P. H. P. Harbach,  A. W. Hauser,  
 J. E. Herr,  E. G. Hohenstein,  Z. C. Holden,  K. Hui,  T.-C. Jagau,  H. Ji,  
 B. Kaduk,  K. Khistyaev,  Jaehoon Kim,  Jihan Kim,  R. A. King,  
 P. Klunzinger,  K. Koh,  D. Kosenkov,  T. Kowalczyk,  C. M. Krauter,  
 A. Kunitsa,  K. U. Lao,  A. Laurent,  K. V. Lawler,  J. Lee,  D. Lefrancois,  
 S. Lehtola,  S. V. Levchenko,  C. Y. Lin,  Y.-S. Lin,  F. Liu,  E. Livshits,  
 R. C. Lochan,  A. Luenser,  P. Manohar,  S. F. Manzer,  S.-P. Mao,  Y. Mao,  
 N. Mardirossian,  A. V. Marenich,  L. A. Martinez-Martinez,  S. A. Maurer,  
 N. J. Mayhall,  J.-M. Mewes,  A. F. Morrison,  K. Nanda,  T. S. Nguyen-Beck,  
 C. M. Oana,  R. Olivares-Amaya,  D. P. O'Neill,  J. A. Parkhill,  
 T. M. Perrine,  R. Peverati,  P. A. Pieniazek,  F. Plasser,  A. Prociuk,  
 D. R. Rehn,  E. Rosta,  N. J. Russ,  N. Sergueev,  S. M. Sharada,  
 S. Sharma,  D. W. Small,  A. Sodt,  T. Stauch,  T. Stein,  D. Stuck,  
 Y.-C. Su,  A. J. W. Thom,  T. Tsuchimochi,  L. Vogt,  O. Vydrov,  T. Wang,  
 M. A. Watson,  J. Wenzel,  A. White,  C. F. Williams,  V. Vanovschi,  
 K. Yao,  S. Yeganeh,  S. R. Yost,  Z.-Q. You,  I. Y. Zhang,  X. Zhang,  
 Y. Zhao,  B. R. Brooks,  G. K. L. Chan,  D. M. Chipman,  C. J. Cramer,  
 W. A. Goddard III,  M. S. Gordon,  W. J. Hehre,  A. Klamt,  
 H. F. Schaefer III,  M. W. Schmidt,  C. D. Sherrill,  D. G. Truhlar,  
 A. Warshel,  X. Xu,  A. Aspuru-Guzik,  R. Baer,  A. T. Bell,  N. A. Besley,  
 J.-D. Chai,  A. Dreuw,  B. D. Dunietz,  T. R. Furlani,  S. R. Gwaltney,  
 C.-P. Hsu,  Y. Jung,  J. Kong,  D. S. Lambrecht,  W. Liang,  C. Ochsenfeld,  
 V. A. Rassolov,  L. V. Slipchenko,  J. E. Subotnik,  T. Van Voorhis,  
 J. M. Herbert,  A. I. Krylov,  P. M. W. Gill,  M. Head-Gordon

 Contributors to earlier versions of Q-Chem not listed above: 
 R. D. Adamson,  J. Baker,  E. F. C. Byrd,  A. K. Chakraborty,  C.-L. Cheng,  
 H. Dachsel,  R. J. Doerksen,  G. Hawkins,  A. Heyden,  S. Hirata,  
 G. Kedziora,  F. J. Keil,  C. Kelley,  P. P. Korambath,  W. Kurlancheek,  
 A. M. Lee,  M. S. Lee,  D. Liotard,  I. Lotan,  P. E. Maslen,  N. Nair,  
 D. Neuhauser,  R. Olson,  B. Peters,  J. Ritchie,  N. E. Schultz,  
 N. Shenvi,  A. C. Simmonett,  K. S. Thanthiriwatte,  Q. Wu,  W. Zhang

 Please cite Q-Chem as follows:
 Y. Shao et al., Mol. Phys. 113, 184-215 (2015)
 DOI: 10.1080/00268976.2014.952696

 Q-Chem 4.4.2 for Intel X86 EM64T Linux

 Parts of Q-Chem use Armadillo 5.200.1 (Boston Tea Smuggler).
 http://arma.sourceforge.net/

 Q-Chem begins on Tue May 30 10:52:45 2017  

Host: nid00478
0

     Scratch files written to /dev/shm/eg_qchem/qchem37819.0//
 Parallel job on  22  processors

Checking the input file for inconsistencies... 	...done.

--------------------------------------------------------------
User input:
--------------------------------------------------------------
$molecule
 0  1
 H           6.23254100       -0.22338900        0.17638100
 H           5.29752400        2.22850500       -0.10953100
 C           5.19733500        0.07486000        0.08356300
 C           4.68347900        1.33634400       -0.06443600
 S           3.94559900       -1.12581000        0.11905200
 C           3.26267300        1.34659400       -0.16511200
 H           2.67740100        2.24810800       -0.30841700
 C           2.69562400        0.08941900       -0.09094600
 H           1.33241900       -2.39005500       -0.68762600
 C           1.29739300       -0.28590200       -0.16150800
 C           0.73808300       -1.51455700       -0.45078400
 S           0.03601800        0.89451200        0.14982500
 C          -0.68041100       -1.51067300       -0.44936800
 H          -1.28012400       -2.38277100       -0.68510300
 C          -1.23220500       -0.27900200       -0.15852500
 C          -2.62830100        0.10383400       -0.08465000
 H          -3.40188798       -0.32502427       -2.06584448
 C          -3.59725218        0.05010256       -1.06738332
 S          -3.31036949        0.74176571        1.40227517
 C          -4.87473064        0.50536914       -0.63172878
 C          -4.87915696        0.90295464        0.67945372
 H          -5.75482373        0.52742032       -1.26417769
 H          -5.70548593        1.28250256        1.26455291
$end


$rem
         jobtype = opt
        exchange = b3lyp
           basis = 6-31++g**
  max_scf_cycles = 150
      mem_static = 281
       mem_total = 2818
      sym_ignore = true
        symmetry = false
          thresh = 12
$end


$opt
CONSTRAINT
tors 13 15 16 18 -60.0
ENDCONSTRAINT
$end

--------------------------------------------------------------
 ----------------------------------------------------------------
             Standard Nuclear Orientation (Angstroms)
    I     Atom           X                Y                Z
 ----------------------------------------------------------------
    1      H       6.2325410000    -0.2233890000     0.1763810000
    2      H       5.2975240000     2.2285050000    -0.1095310000
    3      C       5.1973350000     0.0748600000     0.0835630000
    4      C       4.6834790000     1.3363440000    -0.0644360000
    5      S       3.9455990000    -1.1258100000     0.1190520000
    6      C       3.2626730000     1.3465940000    -0.1651120000
    7      H       2.6774010000     2.2481080000    -0.3084170000
    8      C       2.6956240000     0.0894190000    -0.0909460000
    9      H       1.3324190000    -2.3900550000    -0.6876260000
   10      C       1.2973930000    -0.2859020000    -0.1615080000
   11      C       0.7380830000    -1.5145570000    -0.4507840000
   12      S       0.0360180000     0.8945120000     0.1498250000
   13      C      -0.6804110000    -1.5106730000    -0.4493680000
   14      H      -1.2801240000    -2.3827710000    -0.6851030000
   15      C      -1.2322050000    -0.2790020000    -0.1585250000
   16      C      -2.6283010000     0.1038340000    -0.0846500000
   17      H      -3.4018879800    -0.3250242700    -2.0658444800
   18      C      -3.5972521800     0.0501025600    -1.0673833200
   19      S      -3.3103694900     0.7417657100     1.4022751700
   20      C      -4.8747306400     0.5053691400    -0.6317287800
   21      C      -4.8791569600     0.9029546400     0.6794537200
   22      H      -5.7548237300     0.5274203200    -1.2641776900
   23      H      -5.7054859300     1.2825025600     1.2645529100
 ----------------------------------------------------------------
 Nuclear Repulsion Energy =  1175.9134370687 hartrees
 There are       64 alpha and       64 beta electrons
 Requested basis set is 6-31++G(d,p)
 There are 110 shells and 345 basis functions

 Total QAlloc Memory Limit   2818 MB
 Mega-Array Size       275 MB
 MEM_STATIC part       281 MB
 A cutoff of  1.0D-12 yielded   4675 shell pairs
 There are     47676 function pairs

 Q-Chem warning in module /project/projectdirs/jcesr/qchem/qc44/cnl_qc441/compile/cori/qc_src/libqints/qchem/aobasis.C, line 68:

 Using reconstructed effective core potential

 
 -------------------------------------------------------
 OpenMP Integral Computing Module                       
 Release: version 1.0, May 2013, Q-Chem Inc. Pittsburgh 
 -------------------------------------------------------
 Integral Job Info:
 Integral job number is                      11
 Integral operator is                         1
 short-range coefficients                     0
 long-range coefficients              100000000
 Omega coefficients                           0
 if combine SR and LR in K                    0
 Integral screening is                        0
 Integral computing path is                   2
 max size of driver memory is            800000
 size of driver memory is                593474
 size of scratch memory is             15166112
 max col of scratch BK array               1296
 max len of scratch array in speh3          155
 max len of scratch index in speh4           18
 max int batch size is                      520
 min int batch size is                       52
 fixed nKL is                                52
 max L of basis functions is                  2
 order of int derivative is                   0
 number of shells is                        110
 number of basis is                         345
 number of cartesian basis is               345
 number of contracted shell pairs          4675
 number of primitive shell pairs          14602
 maxK2 (contraction) of shell pair           36
 max number of K2 of shell pair               1
 max number of CS2 of shell pair            510
 max number of PS2 of shell pair           3018
 mem total for path MDJ                  101496
 -------------------------------------------------------
 Smallest overlap matrix eigenvalue = 9.07E-08
 Linear dependence detected in AO basis
 Number of orthogonalized atomic orbitals = 343
 Maximum deviation from orthogonality = 1.277E-10

 Scale SEOQF with 1.000000e-02/1.000000e-01/1.000000e-01

 Standard Electronic Orientation quadrupole field applied
 Nucleus-field energy     =     0.0000000078 hartrees
 Guess from superposition of atomic densities
 Warning:  Energy on first SCF cycle will be non-variational
 A restricted hybrid HF-DFT SCF calculation will be
 performed using Pulay DIIS extrapolation
 Exchange:     0.2000 Hartree-Fock + 0.0800 Slater + 0.7200 B88
 Correlation:  0.1900 VWN1RPA + 0.8100 LYP
 Using SG-1 standard quadrature grid
 SCF converges when DIIS error is below 1.0E-08
 ---------------------------------------
  Cycle       Energy         DIIS Error
 ---------------------------------------
    1   -1660.2832602067      3.68E-02
    2   -1656.4184715844      3.82E-03
    3   -1656.0682493381      5.84E-03
    4   -1656.6441113597      9.95E-04
    5   -1656.6563744356      5.57E-04
    6   -1656.6605982140      2.05E-04
    7   -1656.6612464400      7.17E-05
    8   -1656.6613249399      1.38E-05
    9   -1656.6613278400      3.15E-06
   10   -1656.6613279410      2.02E-06
   11   -1656.6613280075      3.76E-07
   12   -1656.6613280105      2.10E-07
   13   -1656.6613280101      5.50E-08
   14   -1656.6613280112      2.09E-08
   15   -1656.6613280110      5.08E-09 Convergence criterion met
 ---------------------------------------
 SCF time:  CPU 16.32 s  wall 15.04 s
 SCF   energy in the final basis set = -1656.6613280110
 Total energy in the final basis set = -1656.6613280110
 
 --------------------------------------------------------------
 
                    Orbital Energies (a.u.)
 --------------------------------------------------------------
 
 Alpha MOs
 -- Occupied --
-88.921 -88.921 -88.920 -10.241 -10.240 -10.238 -10.238 -10.226
-10.226 -10.206 -10.206 -10.206 -10.205 -10.205 -10.205  -7.980
 -7.980  -7.980  -5.944  -5.944  -5.944  -5.941  -5.940  -5.940
 -5.937  -5.937  -5.937  -0.906  -0.892  -0.875  -0.786  -0.755
 -0.745  -0.743  -0.733  -0.696  -0.617  -0.594  -0.568  -0.564
 -0.537  -0.534  -0.528  -0.499  -0.463  -0.422  -0.418  -0.418
 -0.416  -0.407  -0.403  -0.399  -0.384  -0.375  -0.369  -0.358
 -0.352  -0.344  -0.285  -0.266  -0.262  -0.259  -0.245  -0.209
 -- Virtual --
 -0.065  -0.035  -0.009  -0.006  -0.005   0.002   0.008   0.010
  0.014   0.019   0.023   0.029   0.030   0.032   0.037   0.042
  0.044   0.050   0.052   0.054   0.058   0.065   0.068   0.076
  0.084   0.086   0.091   0.099   0.100   0.102   0.107   0.110
  0.111   0.116   0.119   0.124   0.126   0.128   0.131   0.133
  0.134   0.138   0.140   0.145   0.147   0.152   0.155   0.156
  0.161   0.161   0.169   0.174   0.177   0.183   0.188   0.191
  0.195   0.197   0.200   0.209   0.210   0.216   0.217   0.220
  0.229   0.233   0.235   0.244   0.251   0.257   0.259   0.262
  0.266   0.272   0.277   0.280   0.281   0.287   0.296   0.301
  0.313   0.320   0.323   0.334   0.338   0.344   0.351   0.359
  0.365   0.371   0.381   0.398   0.402   0.451   0.456   0.463
  0.495   0.506   0.522   0.529   0.556   0.563   0.565   0.576
  0.585   0.598   0.604   0.619   0.633   0.648   0.653   0.660
  0.668   0.670   0.674   0.690   0.693   0.707   0.713   0.719
  0.726   0.726   0.736   0.750   0.764   0.768   0.776   0.788
  0.793   0.801   0.811   0.825   0.835   0.837   0.854   0.877
  0.899   0.931   0.938   0.946   0.957   0.959   0.961   0.963
  0.965   0.973   0.979   0.986   0.991   0.996   1.006   1.024
  1.029   1.039   1.049   1.060   1.076   1.080   1.100   1.104
  1.110   1.117   1.147   1.154   1.169   1.184   1.199   1.220
  1.239   1.259   1.268   1.298   1.316   1.335   1.346   1.350
  1.351   1.360   1.366   1.389   1.447   1.450   1.472   1.503
  1.521   1.535   1.546   1.571   1.610   1.685   1.692   1.723
  1.788   1.799   1.834   1.860   1.878   1.885   1.894   1.903
  1.918   1.928   1.934   1.957   1.962   2.011   2.021   2.054
  2.066   2.079   2.103   2.125   2.155   2.171   2.182   2.197
  2.222   2.236   2.241   2.255   2.264   2.290   2.328   2.364
  2.367   2.420   2.434   2.451   2.455   2.463   2.472   2.479
  2.499   2.524   2.526   2.535   2.562   2.583   2.598   2.614
  2.626   2.658   2.674   2.702   2.712   2.743   2.784   2.850
  2.874   2.888   2.905   2.944   2.958   3.134   3.174   3.211
  3.271   3.273   3.327   3.414   3.416   3.673   3.731   3.738
  3.962   3.977   3.990   4.257   4.284   4.310   4.317   4.328
  4.356   4.400   4.479   4.548   4.648   4.695   4.728
 --------------------------------------------------------------
 
          Ground-State Mulliken Net Atomic Charges

     Atom                 Charge (a.u.)
  ----------------------------------------
      1 H                     0.196549
      2 H                     0.119698
      3 C                     0.031352
      4 C                    -0.398392
      5 S                    -0.116458
      6 C                     0.529238
      7 H                     0.126886
      8 C                    -0.459524
      9 H                     0.122527
     10 C                    -0.011857
     11 C                    -0.167160
     12 S                    -0.123877
     13 C                     0.180464
     14 H                     0.133526
     15 C                    -0.266782
     16 C                    -0.407575
     17 H                     0.146024
     18 C                     0.395261
     19 S                     0.021723
     20 C                    -0.391895
     21 C                     0.024502
     22 H                     0.120219
     23 H                     0.195551
  ----------------------------------------
  Sum of atomic charges =     0.000000

 -----------------------------------------------------------------
                    Cartesian Multipole Moments
 -----------------------------------------------------------------
    Charge (ESU x 10^10)
                 0.0000
    Dipole Moment (Debye)
         X      -0.1876      Y      -0.0636      Z      -0.7189
       Tot       0.7457
    Quadrupole Moments (Debye-Ang)
        XX     -89.7298     XY       0.5899     YY    -105.2850
        XZ       1.5409     YZ       2.3306     ZZ    -111.3560
    Octopole Moments (Debye-Ang^2)
       XXX     -17.6088    XXY      13.9916    XYY       8.4680
       YYY     -39.1604    XXZ      -3.2557    XYZ      -9.8558
       YYZ      -8.4295    XZZ     -32.2600    YZZ     -11.8128
       ZZZ     -17.7790
    Hexadecapole Moments (Debye-Ang^3)
      XXXX   -6220.1336   XXXY      90.9540   XXYY   -1299.4527
      XYYY     237.5312   YYYY    -704.5383   XXXZ     118.3639
      XXYZ       8.9271   XYYZ      18.4687   YYYZ     -62.1112
      XXZZ   -1280.6088   XYZZ      49.7377   YYZZ    -198.8410
      XZZZ     106.5135   YZZZ     -65.2334   ZZZZ    -408.7178
 -----------------------------------------------------------------
 Calculating analytic gradient of the SCF energy
 Gradient of SCF Energy
            1           2           3           4           5           6
    1  -0.0000278   0.0000094   0.0001061  -0.0001638  -0.0001020   0.0003323
    2  -0.0000148  -0.0000047   0.0000758   0.0000467  -0.0002093   0.0005200
    3   0.0000315  -0.0000103  -0.0000124  -0.0000567   0.0000335   0.0001346
            7           8           9          10          11          12
    1   0.0000182  -0.0014546  -0.0000743   0.0017411  -0.0016738  -0.0017579
    2   0.0000031  -0.0002163   0.0000997  -0.0006840  -0.0007928   0.0007884
    3  -0.0000219  -0.0005928  -0.0001050  -0.0017132   0.0018379   0.0006113
           13          14          15          16          17          18
    1   0.0026842   0.0008016  -0.0074848   0.0083288  -0.0014300  -0.0019961
    2  -0.0024403  -0.0002767   0.0044505  -0.0027331  -0.0013475   0.0033378
    3   0.0027624  -0.0016876  -0.0003209   0.0020423   0.0000502  -0.0018518
           19          20          21          22          23
    1   0.0019274   0.0014072  -0.0014487   0.0000618   0.0001956
    2  -0.0000026   0.0014830  -0.0013698  -0.0001072  -0.0006060
    3   0.0001686  -0.0009858  -0.0006742   0.0000867   0.0002736
 Max gradient component =       8.329E-03
 RMS gradient           =       1.857E-03
 Gradient time:  CPU 4.67 s  wall 4.59 s
 Geometry Optimization Parameters
   NAtoms,    NIC,     NZ,  NCons,   NDum,   NFix, NCnnct, MaxDiis
       23     166       0       1       0       0       0       0


** CONSTRAINED OPTIMIZATION IN DELOCALIZED INTERNAL COORDINATES **
   Searching for a Minimum

   Optimization Cycle:   1

                       Coordinates (Angstroms)
     ATOM                X               Y               Z
      1  H         6.2325410000   -0.2233890000    0.1763810000
      2  H         5.2975240000    2.2285050000   -0.1095310000
      3  C         5.1973350000    0.0748600000    0.0835630000
      4  C         4.6834790000    1.3363440000   -0.0644360000
      5  S         3.9455990000   -1.1258100000    0.1190520000
      6  C         3.2626730000    1.3465940000   -0.1651120000
      7  H         2.6774010000    2.2481080000   -0.3084170000
      8  C         2.6956240000    0.0894190000   -0.0909460000
      9  H         1.3324190000   -2.3900550000   -0.6876260000
     10  C         1.2973930000   -0.2859020000   -0.1615080000
     11  C         0.7380830000   -1.5145570000   -0.4507840000
     12  S         0.0360180000    0.8945120000    0.1498250000
     13  C        -0.6804110000   -1.5106730000   -0.4493680000
     14  H        -1.2801240000   -2.3827710000   -0.6851030000
     15  C        -1.2322050000   -0.2790020000   -0.1585250000
     16  C        -2.6283010000    0.1038340000   -0.0846500000
     17  H        -3.4018879800   -0.3250242700   -2.0658444800
     18  C        -3.5972521800    0.0501025600   -1.0673833200
     19  S        -3.3103694900    0.7417657100    1.4022751700
     20  C        -4.8747306400    0.5053691400   -0.6317287800
     21  C        -4.8791569600    0.9029546400    0.6794537200
     22  H        -5.7548237300    0.5274203200   -1.2641776900
     23  H        -5.7054859300    1.2825025600    1.2645529100
   Point Group: c1    Number of degrees of freedom:    63


   Energy is  -1656.661328011

              Constraints and their Current Values
                                        Value     Constraint
   Dihedral:       13  15  16  18      -60.000      -60.000

 Attempting to Generate Delocalized Internal Coordinates

 62 Hessian modes will be used to form the next step
  Hessian Eigenvalues:
     0.045000    0.045000    0.045000    0.045000    0.045000    0.045000
     0.045000    0.045000    0.045000    0.045001    0.045002    0.045002
     0.045003    0.045003    0.045009    0.045010    0.045011    0.045018
     0.045019    0.159886    0.159939    0.159955    0.159957    0.159992
     0.159993    0.160000    0.160000    0.221281    0.221281    0.226855
     0.237826    0.237826    0.245311    0.249998    0.249998    0.250000
     0.250000    0.293636    0.293684    0.294746    0.294936    0.312571
     0.312615    0.354732    0.354740    0.354742    0.354756    0.355161
     0.355164    0.358372    0.358373    0.383080    0.383176    0.405793
     0.405832    0.413732    0.458107    0.461989    0.461995    0.485493
     0.497291    0.497294

 Minimum Search - Taking Simple RFO Step
 Searching for Lamda that Minimizes Along All modes
 Value Taken    Lamda =  -0.00060930
 Step Taken.  Stepsize is  0.082357

                             Maximum     Tolerance    Cnvgd?
         Gradient           0.003633      0.000300      NO
         Displacement       0.033221      0.001200      NO
         Energy change     *********      0.000001      NO


 New Cartesian Coordinates Obtained by Inverse Iteration

 Displacement from previous Coordinates is:  0.189713
 ----------------------------------------------------------------
             Standard Nuclear Orientation (Angstroms)
    I     Atom           X                Y                Z
 ----------------------------------------------------------------
    1      H       6.2370149637    -0.2386973075     0.1866854946
    2      H       5.3157163284     2.2187605864    -0.0959784162
    3      C       5.2037202371     0.0651273743     0.0903755231
    4      C       4.6970051806     1.3295802790    -0.0561892151
    5      S       3.9455836264    -1.1287388438     0.1166863735
    6      C       3.2765915417     1.3472572238    -0.1636807786
    7      H       2.6965458168     2.2521039563    -0.3072728463
    8      C       2.7028174746     0.0934425707    -0.0953383279
    9      H       1.3304163496    -2.3769596020    -0.7070401420
   10      C       1.3012638070    -0.2741220818    -0.1745173841
   11      C       0.7383532425    -1.4990892274    -0.4726312647
   12      S       0.0432386054     0.9089901967     0.1305694075
   13      C      -0.6822293973    -1.4941700010    -0.4592024770
   14      H      -1.2902882255    -2.3654793328    -0.6745950642
   15      C      -1.2296466183    -0.2650388261    -0.1657901988
   16      C      -2.6385343025     0.1052554699    -0.0771030143
   17      H      -3.3965425593    -0.3391848949    -2.0523477977
   18      C      -3.6053178727     0.0323783631    -1.0555341455
   19      S      -3.3256773985     0.7518987084     1.4054108268
   20      C      -4.8886422670     0.4789848159    -0.6226727172
   21      C      -4.8923586745     0.9047278702     0.6800595427
   22      H      -5.7682148113     0.4914680193    -1.2563665119
   23      H      -5.7194739567     1.2966123432     1.2564356633
 ----------------------------------------------------------------
 Nuclear Repulsion Energy =  1174.6906746103 hartrees
 There are       64 alpha and       64 beta electrons
 Applying Cartesian multipole field
    Component          Value
    ---------          -----
     (2,0,0)        1.00000E-12
     (0,2,0)        2.00000E-11
     (0,0,2)       -3.00000E-11
 Nucleus-field energy     =     0.0000000078 hartrees
 Requested basis set is 6-31++G(d,p)
 There are 110 shells and 345 basis functions
 A cutoff of  1.0D-12 yielded   4677 shell pairs
 There are     47700 function pairs

 Q-Chem warning in module /project/projectdirs/jcesr/qchem/qc44/cnl_qc441/compile/cori/qc_src/libqints/qchem/aobasis.C, line 68:

 Using reconstructed effective core potential

 Smallest overlap matrix eigenvalue = 9.11E-08
 Linear dependence detected in AO basis
 Number of orthogonalized atomic orbitals = 343
 Maximum deviation from orthogonality = 2.277E-10
 Guess MOs from SCF MO coefficient file
 Reading MOs from coefficient file
 Reading MOs from coefficient file
 A restricted hybrid HF-DFT SCF calculation will be
 performed using Pulay DIIS extrapolation
 Exchange:     0.2000 Hartree-Fock + 0.0800 Slater + 0.7200 B88
 Correlation:  0.1900 VWN1RPA + 0.8100 LYP
 Using SG-1 standard quadrature grid
 SCF converges when DIIS error is below 1.0E-08
 Geometry optimization detected.  Setting ReadMinima to 0
 Setting SaveMinima to 0
 ---------------------------------------
  Cycle       Energy         DIIS Error
 ---------------------------------------
    1   -1656.6657819462      5.26E-04
    2   -1656.6616003373      7.42E-05
    3   -1656.6612719195      1.61E-04
    4   -1656.6616971337      1.77E-05
    5   -1656.6617012875      8.03E-06
    6   -1656.6617022228      2.99E-06
    7   -1656.6617023514      1.10E-06
    8   -1656.6617023683      4.15E-07
    9   -1656.6617023723      1.10E-07
   10   -1656.6617023714      2.97E-08
   11   -1656.6617023709      1.37E-08
   12   -1656.6617023731      5.76E-09 Convergence criterion met
 ---------------------------------------
 SCF time:  CPU 13.38 s  wall 12.24 s
 SCF   energy in the final basis set = -1656.6617023731
 Total energy in the final basis set = -1656.6617023731
 
 --------------------------------------------------------------
 
                    Orbital Energies (a.u.)
 --------------------------------------------------------------
 
 Alpha MOs
 -- Occupied --
-88.921 -88.921 -88.920 -10.241 -10.240 -10.239 -10.238 -10.226
-10.226 -10.206 -10.206 -10.205 -10.205 -10.205 -10.205  -7.980
 -7.980  -7.980  -5.945  -5.944  -5.944  -5.941  -5.940  -5.940
 -5.938  -5.937  -5.937  -0.906  -0.891  -0.876  -0.786  -0.754
 -0.745  -0.743  -0.733  -0.697  -0.616  -0.594  -0.568  -0.564
 -0.537  -0.534  -0.528  -0.499  -0.463  -0.422  -0.418  -0.418
 -0.415  -0.407  -0.403  -0.399  -0.384  -0.375  -0.370  -0.358
 -0.351  -0.344  -0.286  -0.266  -0.262  -0.259  -0.246  -0.210
 -- Virtual --
 -0.064  -0.034  -0.008  -0.006  -0.005   0.002   0.008   0.010
  0.014   0.019   0.023   0.029   0.029   0.032   0.036   0.042
  0.044   0.050   0.053   0.054   0.058   0.065   0.068   0.076
  0.084   0.086   0.091   0.099   0.100   0.102   0.106   0.110
  0.111   0.116   0.119   0.124   0.126   0.128   0.131   0.133
  0.134   0.138   0.140   0.144   0.147   0.152   0.154   0.156
  0.161   0.161   0.169   0.174   0.177   0.183   0.187   0.191
  0.194   0.197   0.200   0.208   0.209   0.216   0.217   0.220
  0.229   0.233   0.235   0.244   0.251   0.257   0.259   0.262
  0.267   0.272   0.276   0.279   0.281   0.287   0.296   0.301
  0.313   0.320   0.323   0.334   0.340   0.343   0.352   0.359
  0.365   0.371   0.382   0.398   0.401   0.451   0.456   0.464
  0.493   0.506   0.522   0.528   0.556   0.562   0.564   0.576
  0.584   0.598   0.604   0.619   0.634   0.647   0.652   0.660
  0.668   0.670   0.673   0.690   0.693   0.706   0.713   0.719
  0.725   0.727   0.736   0.750   0.764   0.767   0.775   0.788
  0.794   0.801   0.810   0.825   0.834   0.836   0.853   0.877
  0.900   0.931   0.939   0.947   0.958   0.959   0.962   0.963
  0.965   0.973   0.979   0.986   0.991   0.997   1.006   1.023
  1.028   1.039   1.048   1.059   1.075   1.080   1.100   1.105
  1.110   1.117   1.146   1.154   1.169   1.185   1.199   1.217
  1.238   1.259   1.266   1.299   1.317   1.335   1.347   1.350
  1.351   1.361   1.366   1.387   1.445   1.451   1.472   1.502
  1.518   1.535   1.545   1.569   1.609   1.684   1.692   1.723
  1.785   1.794   1.831   1.864   1.876   1.884   1.894   1.901
  1.917   1.929   1.933   1.956   1.962   2.010   2.020   2.053
  2.067   2.079   2.102   2.126   2.156   2.171   2.182   2.196
  2.221   2.234   2.240   2.254   2.263   2.289   2.327   2.364
  2.367   2.420   2.434   2.451   2.454   2.466   2.470   2.477
  2.500   2.524   2.526   2.534   2.560   2.583   2.598   2.613
  2.625   2.658   2.672   2.702   2.712   2.742   2.784   2.849
  2.872   2.887   2.904   2.942   2.955   3.133   3.174   3.211
  3.270   3.273   3.326   3.413   3.415   3.673   3.730   3.737
  3.962   3.977   3.989   4.257   4.283   4.310   4.317   4.328
  4.357   4.398   4.479   4.547   4.648   4.693   4.726
 --------------------------------------------------------------
 
          Ground-State Mulliken Net Atomic Charges

     Atom                 Charge (a.u.)
  ----------------------------------------
      1 H                     0.196640
      2 H                     0.119610
      3 C                     0.032961
      4 C                    -0.400216
      5 S                    -0.114972
      6 C                     0.519529
      7 H                     0.126531
      8 C                    -0.458684
      9 H                     0.122564
     10 C                    -0.012485
     11 C                    -0.166310
     12 S                    -0.119242
     13 C                     0.175613
     14 H                     0.134734
     15 C                    -0.257764
     16 C                    -0.405280
     17 H                     0.147259
     18 C                     0.385712
     19 S                     0.026442
     20 C                    -0.394250
     21 C                     0.025373
     22 H                     0.120265
     23 H                     0.195970
  ----------------------------------------
  Sum of atomic charges =     0.000000

 -----------------------------------------------------------------
                    Cartesian Multipole Moments
 -----------------------------------------------------------------
    Charge (ESU x 10^10)
                 0.0000
    Dipole Moment (Debye)
         X      -0.1766      Y      -0.0600      Z      -0.7035
       Tot       0.7278
    Quadrupole Moments (Debye-Ang)
        XX     -89.6329     XY       0.5410     YY    -105.2812
        XZ       1.5714     YZ       2.3300     ZZ    -111.4369
    Octopole Moments (Debye-Ang^2)
       XXX     -17.0677    XXY      13.8908    XYY       8.4004
       YYY     -39.7417    XXZ      -2.6471    XYZ     -10.0053
       YYZ      -7.9751    XZZ     -31.8440    YZZ     -12.1426
       ZZZ     -16.8720
    Hexadecapole Moments (Debye-Ang^3)
      XXXX   -6245.9597   XXXY      87.8679   XXYY   -1302.9333
      XYYY     236.2869   YYYY    -703.0829   XXXZ     122.6382
      XXYZ      10.1107   XYYZ      18.9309   YYYZ     -64.1190
      XXZZ   -1287.6979   XYZZ      49.6610   YYZZ    -198.4611
      XZZZ     108.7401   YZZZ     -67.1792   ZZZZ    -409.1986
 -----------------------------------------------------------------
 Calculating analytic gradient of the SCF energy
 Gradient of SCF Energy
            1           2           3           4           5           6
    1   0.0000041   0.0000117   0.0001142  -0.0000888   0.0001078   0.0001617
    2  -0.0000019  -0.0000071   0.0000184  -0.0000550   0.0000014   0.0001307
    3  -0.0000051  -0.0000162  -0.0000094   0.0000240   0.0000158   0.0000671
            7           8           9          10          11          12
    1  -0.0000006  -0.0005019   0.0000094   0.0012642  -0.0007444  -0.0000227
    2  -0.0000247   0.0000108   0.0000039   0.0000546   0.0001027   0.0000197
    3  -0.0000389  -0.0001359  -0.0000046  -0.0003881   0.0004648  -0.0003528
           13          14          15          16          17          18
    1   0.0006588   0.0001662  -0.0013417   0.0007533  -0.0004600   0.0002979
    2  -0.0005909   0.0001316   0.0008748  -0.0023847  -0.0008937   0.0029841
    3   0.0028823  -0.0009795  -0.0021407   0.0004768   0.0002389  -0.0006058
           19          20          21          22          23
    1  -0.0002379   0.0006401  -0.0008066  -0.0000082   0.0000234
    2  -0.0004979   0.0000445   0.0001765  -0.0000099  -0.0000878
    3   0.0001167   0.0000537   0.0001906  -0.0000069   0.0001532
 Max gradient component =       2.984E-03
 RMS gradient           =       7.484E-04
 Gradient time:  CPU 4.73 s  wall 4.61 s
 Geometry Optimization Parameters
   NAtoms,    NIC,     NZ,  NCons,   NDum,   NFix, NCnnct, MaxDiis
       23     166       0       1       0       0       0       0

 Cartesian Hessian Update
 Hessian Updated using BFGS Update


** CONSTRAINED OPTIMIZATION IN DELOCALIZED INTERNAL COORDINATES **
   Searching for a Minimum

   Optimization Cycle:   2

                       Coordinates (Angstroms)
     ATOM                X               Y               Z
      1  H         6.2370149637   -0.2386973075    0.1866854946
      2  H         5.3157163284    2.2187605864   -0.0959784162
      3  C         5.2037202371    0.0651273743    0.0903755231
      4  C         4.6970051806    1.3295802790   -0.0561892151
      5  S         3.9455836264   -1.1287388438    0.1166863735
      6  C         3.2765915417    1.3472572238   -0.1636807786
      7  H         2.6965458168    2.2521039563   -0.3072728463
      8  C         2.7028174746    0.0934425707   -0.0953383279
      9  H         1.3304163496   -2.3769596020   -0.7070401420
     10  C         1.3012638070   -0.2741220818   -0.1745173841
     11  C         0.7383532425   -1.4990892274   -0.4726312647
     12  S         0.0432386054    0.9089901967    0.1305694075
     13  C        -0.6822293973   -1.4941700010   -0.4592024770
     14  H        -1.2902882255   -2.3654793328   -0.6745950642
     15  C        -1.2296466183   -0.2650388261   -0.1657901988
     16  C        -2.6385343025    0.1052554699   -0.0771030143
     17  H        -3.3965425593   -0.3391848949   -2.0523477977
     18  C        -3.6053178727    0.0323783631   -1.0555341455
     19  S        -3.3256773985    0.7518987084    1.4054108268
     20  C        -4.8886422670    0.4789848159   -0.6226727172
     21  C        -4.8923586745    0.9047278702    0.6800595427
     22  H        -5.7682148113    0.4914680193   -1.2563665119
     23  H        -5.7194739567    1.2966123432    1.2564356633
   Point Group: c1    Number of degrees of freedom:    63


   Energy is  -1656.661702373

              Constraints and their Current Values
                                        Value     Constraint
   Dihedral:       13  15  16  18      -60.000      -60.000
 Hessian Updated using BFGS Update

 54 Hessian modes will be used to form the next step
  Hessian Eigenvalues:
     0.032788    0.045000    0.045000    0.045001    0.045001    0.045006
     0.045009    0.045009    0.045015    0.045017    0.047842    0.157196
     0.159900    0.159947    0.159959    0.159992    0.159993    0.159999
     0.160064    0.218232    0.221281    0.224908    0.227267    0.237829
     0.240117    0.249945    0.249998    0.249999    0.254580    0.293608
     0.294026    0.294680    0.297232    0.312572    0.313172    0.354733
     0.354741    0.354746    0.354771    0.355164    0.355167    0.358372
     0.358398    0.383079    0.399406    0.405831    0.408095    0.417464
     0.459287    0.461854    0.468900    0.486572    0.497280    0.498109

 Minimum Search - Taking Simple RFO Step
 Searching for Lamda that Minimizes Along All modes
 Value Taken    Lamda =  -0.00012438
 Step Taken.  Stepsize is  0.054122

                             Maximum     Tolerance    Cnvgd?
         Gradient           0.001256      0.000300      NO
         Displacement       0.018117      0.001200      NO
         Energy change     -0.000374      0.000001      NO


 New Cartesian Coordinates Obtained by Inverse Iteration

 Displacement from previous Coordinates is:  0.095848
 ----------------------------------------------------------------
             Standard Nuclear Orientation (Angstroms)
    I     Atom           X                Y                Z
 ----------------------------------------------------------------
    1      H       6.2341526839    -0.2482241087     0.1883536447
    2      H       5.3211826820     2.2131328631    -0.0882317739
    3      C       5.2019797868     0.0591304835     0.0912517202
    4      C       4.6997105795     1.3257200879    -0.0523415720
    5      S       3.9403288442    -1.1310280081     0.1119088409
    6      C       3.2794784304     1.3479586324    -0.1620004850
    7      H       2.7022925348     2.2550206980    -0.3033337654
    8      C       2.7022650773     0.0958042272    -0.0981113188
    9      H       1.3281699287    -2.3700923318    -0.7166834280
   10      C       1.2992461822    -0.2674756069    -0.1807124124
   11      C       0.7368735569    -1.4912953488    -0.4837548926
   12      S       0.0451541853     0.9185144803     0.1260875081
   13      C      -0.6840164795    -1.4850602023    -0.4639262180
   14      H      -1.2964776403    -2.3570304802    -0.6634866242
   15      C      -1.2273158293    -0.2555076556    -0.1685361345
   16      C      -2.6397913918     0.1063952327    -0.0712447257
   17      H      -3.3871132379    -0.3434641853    -2.0468780819
   18      C      -3.6045999588     0.0216075774    -1.0495623579
   19      S      -3.3260254378     0.7633790355     1.4063035172
   20      C      -4.8906714678     0.4640124395    -0.6198497354
   21      C      -4.8926855232     0.9023150853     0.6787570514
   22      H      -5.7699864374     0.4716917289    -1.2539748615
   23      H      -5.7208099783     1.2996030160     1.2499286347
 ----------------------------------------------------------------
 Nuclear Repulsion Energy =  1174.7823605125 hartrees
 There are       64 alpha and       64 beta electrons
 Applying Cartesian multipole field
    Component          Value
    ---------          -----
     (2,0,0)        1.00000E-12
     (0,2,0)        2.00000E-11
     (0,0,2)       -3.00000E-11
 Nucleus-field energy     =     0.0000000078 hartrees
 Requested basis set is 6-31++G(d,p)
 There are 110 shells and 345 basis functions
 A cutoff of  1.0D-12 yielded   4679 shell pairs
 There are     47702 function pairs

 Q-Chem warning in module /project/projectdirs/jcesr/qchem/qc44/cnl_qc441/compile/cori/qc_src/libqints/qchem/aobasis.C, line 68:

 Using reconstructed effective core potential

 Smallest overlap matrix eigenvalue = 9.00E-08
 Linear dependence detected in AO basis
 Number of orthogonalized atomic orbitals = 343
 Maximum deviation from orthogonality = 1.267E-10
 Guess MOs from SCF MO coefficient file
 Reading MOs from coefficient file
 Reading MOs from coefficient file
 A restricted hybrid HF-DFT SCF calculation will be
 performed using Pulay DIIS extrapolation
 Exchange:     0.2000 Hartree-Fock + 0.0800 Slater + 0.7200 B88
 Correlation:  0.1900 VWN1RPA + 0.8100 LYP
 Using SG-1 standard quadrature grid
 SCF converges when DIIS error is below 1.0E-08
 Geometry optimization detected.  Setting ReadMinima to 0
 Setting SaveMinima to 0
 ---------------------------------------
  Cycle       Energy         DIIS Error
 ---------------------------------------
    1   -1656.6655431020      3.08E-04
    2   -1656.6617414976      4.16E-05
    3   -1656.6616543387      8.44E-05
    4   -1656.6617727228      1.14E-05
    5   -1656.6617745366      4.64E-06
    6   -1656.6617748321      1.92E-06
    7   -1656.6617748838      6.48E-07
    8   -1656.6617748896      2.59E-07
    9   -1656.6617748929      6.08E-08
   10   -1656.6617748912      1.84E-08
   11   -1656.6617748897      7.96E-09 Convergence criterion met
 ---------------------------------------
 SCF time:  CPU 12.15 s  wall 11.21 s
 SCF   energy in the final basis set = -1656.6617748897
 Total energy in the final basis set = -1656.6617748897
 
 --------------------------------------------------------------
 
                    Orbital Energies (a.u.)
 --------------------------------------------------------------
 
 Alpha MOs
 -- Occupied --
-88.921 -88.921 -88.921 -10.241 -10.240 -10.239 -10.238 -10.226
-10.226 -10.206 -10.206 -10.205 -10.205 -10.205 -10.205  -7.980
 -7.980  -7.980  -5.945  -5.944  -5.944  -5.941  -5.941  -5.940
 -5.938  -5.937  -5.937  -0.906  -0.892  -0.876  -0.786  -0.754
 -0.745  -0.743  -0.733  -0.697  -0.616  -0.594  -0.568  -0.564
 -0.537  -0.534  -0.528  -0.499  -0.463  -0.422  -0.418  -0.417
 -0.415  -0.407  -0.403  -0.398  -0.383  -0.376  -0.370  -0.358
 -0.352  -0.345  -0.286  -0.266  -0.262  -0.259  -0.246  -0.209
 -- Virtual --
 -0.064  -0.034  -0.008  -0.006  -0.005   0.002   0.008   0.010
  0.014   0.019   0.023   0.028   0.029   0.032   0.036   0.042
  0.044   0.050   0.053   0.054   0.058   0.065   0.068   0.076
  0.084   0.087   0.091   0.099   0.100   0.102   0.106   0.110
  0.111   0.116   0.119   0.124   0.126   0.128   0.131   0.133
  0.134   0.138   0.140   0.144   0.147   0.152   0.154   0.156
  0.161   0.161   0.169   0.174   0.177   0.183   0.187   0.192
  0.194   0.197   0.201   0.208   0.209   0.216   0.217   0.220
  0.228   0.233   0.235   0.244   0.251   0.257   0.259   0.262
  0.267   0.272   0.276   0.279   0.281   0.287   0.296   0.300
  0.313   0.320   0.323   0.334   0.340   0.343   0.352   0.358
  0.365   0.370   0.382   0.398   0.401   0.451   0.456   0.464
  0.493   0.506   0.522   0.528   0.556   0.562   0.564   0.575
  0.584   0.598   0.604   0.619   0.633   0.647   0.652   0.660
  0.668   0.670   0.673   0.689   0.693   0.706   0.713   0.719
  0.725   0.727   0.736   0.750   0.764   0.767   0.775   0.788
  0.794   0.801   0.810   0.825   0.834   0.836   0.854   0.877
  0.900   0.931   0.939   0.947   0.958   0.959   0.961   0.963
  0.966   0.973   0.979   0.987   0.992   0.998   1.006   1.023
  1.027   1.039   1.047   1.059   1.075   1.080   1.099   1.105
  1.110   1.117   1.146   1.154   1.170   1.185   1.199   1.216
  1.238   1.260   1.266   1.301   1.317   1.335   1.348   1.352
  1.353   1.362   1.366   1.388   1.443   1.452   1.472   1.501
  1.515   1.535   1.546   1.569   1.608   1.684   1.691   1.723
  1.782   1.792   1.831   1.866   1.876   1.884   1.894   1.902
  1.917   1.930   1.933   1.957   1.963   2.011   2.019   2.052
  2.068   2.080   2.102   2.127   2.156   2.171   2.182   2.197
  2.222   2.233   2.241   2.253   2.263   2.289   2.328   2.364
  2.367   2.421   2.434   2.450   2.454   2.467   2.469   2.477
  2.501   2.523   2.526   2.533   2.560   2.583   2.598   2.613
  2.624   2.658   2.672   2.702   2.712   2.743   2.785   2.849
  2.872   2.886   2.905   2.940   2.953   3.133   3.174   3.210
  3.270   3.273   3.326   3.413   3.415   3.674   3.731   3.738
  3.961   3.977   3.989   4.257   4.284   4.310   4.317   4.329
  4.357   4.398   4.478   4.547   4.648   4.693   4.726
 --------------------------------------------------------------
 
          Ground-State Mulliken Net Atomic Charges

     Atom                 Charge (a.u.)
  ----------------------------------------
      1 H                     0.196566
      2 H                     0.119519
      3 C                     0.032809
      4 C                    -0.400702
      5 S                    -0.115194
      6 C                     0.515026
      7 H                     0.126136
      8 C                    -0.458272
      9 H                     0.122583
     10 C                    -0.011375
     11 C                    -0.169005
     12 S                    -0.115402
     13 C                     0.174162
     14 H                     0.135623
     15 C                    -0.252435
     16 C                    -0.397083
     17 H                     0.147940
     18 C                     0.373459
     19 S                     0.030093
     20 C                    -0.391784
     21 C                     0.021383
     22 H                     0.120340
     23 H                     0.195612
  ----------------------------------------
  Sum of atomic charges =     0.000000

 -----------------------------------------------------------------
                    Cartesian Multipole Moments
 -----------------------------------------------------------------
    Charge (ESU x 10^10)
                 0.0000
    Dipole Moment (Debye)
         X      -0.1781      Y      -0.0505      Z      -0.6873
       Tot       0.7118
    Quadrupole Moments (Debye-Ang)
        XX     -89.7378     XY       0.4932     YY    -105.2468
        XZ       1.5997     YZ       2.3307     ZZ    -111.4592
    Octopole Moments (Debye-Ang^2)
       XXX     -16.8292    XXY      13.5842    XYY       8.3928
       YYY     -40.3020    XXZ      -2.5778    XYZ      -9.9576
       YYZ      -7.6739    XZZ     -31.6559    YZZ     -12.3223
       ZZZ     -16.4151
    Hexadecapole Moments (Debye-Ang^3)
      XXXX   -6248.1636   XXXY      87.1428   XXYY   -1302.0820
      XYYY     235.7084   YYYY    -702.9323   XXXZ     125.9764
      XXYZ      10.2080   XYYZ      19.2461   YYYZ     -65.6906
      XXZZ   -1288.2894   XYZZ      49.5457   YYZZ    -198.3639
      XZZZ     110.2006   YZZZ     -68.7511   ZZZZ    -409.1688
 -----------------------------------------------------------------
 Calculating analytic gradient of the SCF energy
 Gradient of SCF Energy
            1           2           3           4           5           6
    1  -0.0000075  -0.0000058  -0.0000834  -0.0000596   0.0000469   0.0000200
    2  -0.0000055   0.0000078  -0.0000321   0.0000163  -0.0000655  -0.0000159
    3  -0.0000088  -0.0000122  -0.0000070   0.0000040   0.0000030   0.0000125
            7           8           9          10          11          12
    1  -0.0000044   0.0000062  -0.0000105  -0.0001375  -0.0000943   0.0002668
    2  -0.0000027   0.0000206  -0.0001094   0.0001311   0.0000486   0.0004742
    3  -0.0000207   0.0000768   0.0000806   0.0000191  -0.0003039  -0.0002713
           13          14          15          16          17          18
    1   0.0000206  -0.0000299   0.0009582  -0.0016769  -0.0000741   0.0007408
    2  -0.0002073   0.0000860   0.0005667  -0.0025849  -0.0003819   0.0024925
    3   0.0025760  -0.0003906  -0.0029990   0.0010454   0.0001139  -0.0003702
           19          20          21          22          23
    1  -0.0001779  -0.0000471   0.0002783   0.0000182   0.0000527
    2  -0.0001537  -0.0003909  -0.0000390   0.0000932   0.0000517
    3   0.0005407   0.0000088   0.0000633  -0.0001309  -0.0000296
 Max gradient component =       2.999E-03
 RMS gradient           =       7.213E-04
 Gradient time:  CPU 4.57 s  wall 4.57 s
 Geometry Optimization Parameters
   NAtoms,    NIC,     NZ,  NCons,   NDum,   NFix, NCnnct, MaxDiis
       23     166       0       1       0       0       0       0

 Cartesian Hessian Update
 Hessian Updated using BFGS Update


** CONSTRAINED OPTIMIZATION IN DELOCALIZED INTERNAL COORDINATES **
   Searching for a Minimum

   Optimization Cycle:   3

                       Coordinates (Angstroms)
     ATOM                X               Y               Z
      1  H         6.2341526839   -0.2482241087    0.1883536447
      2  H         5.3211826820    2.2131328631   -0.0882317739
      3  C         5.2019797868    0.0591304835    0.0912517202
      4  C         4.6997105795    1.3257200879   -0.0523415720
      5  S         3.9403288442   -1.1310280081    0.1119088409
      6  C         3.2794784304    1.3479586324   -0.1620004850
      7  H         2.7022925348    2.2550206980   -0.3033337654
      8  C         2.7022650773    0.0958042272   -0.0981113188
      9  H         1.3281699287   -2.3700923318   -0.7166834280
     10  C         1.2992461822   -0.2674756069   -0.1807124124
     11  C         0.7368735569   -1.4912953488   -0.4837548926
     12  S         0.0451541853    0.9185144803    0.1260875081
     13  C        -0.6840164795   -1.4850602023   -0.4639262180
     14  H        -1.2964776403   -2.3570304802   -0.6634866242
     15  C        -1.2273158293   -0.2555076556   -0.1685361345
     16  C        -2.6397913918    0.1063952327   -0.0712447257
     17  H        -3.3871132379   -0.3434641853   -2.0468780819
     18  C        -3.6045999588    0.0216075774   -1.0495623579
     19  S        -3.3260254378    0.7633790355    1.4063035172
     20  C        -4.8906714678    0.4640124395   -0.6198497354
     21  C        -4.8926855232    0.9023150853    0.6787570514
     22  H        -5.7699864374    0.4716917289   -1.2539748615
     23  H        -5.7208099783    1.2996030160    1.2499286347
   Point Group: c1    Number of degrees of freedom:    63


   Energy is  -1656.661774890

              Constraints and their Current Values
                                        Value     Constraint
   Dihedral:       13  15  16  18      -60.000      -60.000
 Hessian Updated using BFGS Update

 56 Hessian modes will be used to form the next step
  Hessian Eigenvalues:
     0.023163    0.045000    0.045000    0.045000    0.045001    0.045003
     0.045006    0.045008    0.045009    0.045013    0.045016    0.045626
     0.048287    0.158219    0.159915    0.159956    0.159959    0.159993
     0.159999    0.160060    0.160394    0.221269    0.222744    0.225584
     0.227605    0.237907    0.240742    0.249979    0.249999    0.250064
     0.273946    0.293566    0.293780    0.294885    0.296285    0.312575
     0.313321    0.354741    0.354746    0.354756    0.354818    0.355164
     0.355198    0.358372    0.358501    0.383131    0.403935    0.406105
     0.408045    0.418380    0.459302    0.462086    0.473344    0.490458
     0.497276    0.499580

 Minimum Search - Taking Simple RFO Step
 Searching for Lamda that Minimizes Along All modes
 Value Taken    Lamda =  -0.00002205
 Step Taken.  Stepsize is  0.026611

                             Maximum     Tolerance    Cnvgd?
         Gradient           0.000546      0.000300      NO
         Displacement       0.011604      0.001200      NO
         Energy change     -0.000073      0.000001      NO


 New Cartesian Coordinates Obtained by Inverse Iteration

 Displacement from previous Coordinates is:  0.028366
 ----------------------------------------------------------------
             Standard Nuclear Orientation (Angstroms)
    I     Atom           X                Y                Z
 ----------------------------------------------------------------
    1      H       6.2348186418    -0.2494507289     0.1873950448
    2      H       5.3225177141     2.2125575319    -0.0851577153
    3      C       5.2027420354     0.0583719293     0.0906082364
    4      C       4.7007809680     1.3252747798    -0.0509556169
    5      S       3.9404879894    -1.1312662454     0.1091880882
    6      C       3.2803975666     1.3480607686    -0.1606165003
    7      H       2.7035321083     2.2556048208    -0.3001311374
    8      C       2.7026813036     0.0960194434    -0.0987943261
    9      H       1.3280976297    -2.3686550183    -0.7195050506
   10      C       1.2992760187    -0.2669126626    -0.1817691270
   11      C       0.7367091711    -1.4901090392    -0.4863775326
   12      S       0.0451138773     0.9183598193     0.1274684013
   13      C      -0.6846064138    -1.4834177591    -0.4665182941
   14      H      -1.2977225878    -2.3562674352    -0.6598728496
   15      C      -1.2275700107    -0.2535451993    -0.1702756693
   16      C      -2.6400622283     0.1053831969    -0.0698594039
   17      H      -3.3861311690    -0.3448365263    -2.0458303119
   18      C      -3.6054911413     0.0170485315    -1.0477993396
   19      S      -3.3256711112     0.7691305932     1.4041195099
   20      C      -4.8918370844     0.4608369799    -0.6189773347
   21      C      -4.8934970156     0.9035638253     0.6779719977
   22      H      -5.7715908236     0.4666554569    -1.2523299723
   23      H      -5.7216343483     1.3027005975     1.2479814332
 ----------------------------------------------------------------
 Nuclear Repulsion Energy =  1174.7709774745 hartrees
 There are       64 alpha and       64 beta electrons
 Applying Cartesian multipole field
    Component          Value
    ---------          -----
     (2,0,0)        1.00000E-12
     (0,2,0)        2.00000E-11
     (0,0,2)       -3.00000E-11
 Nucleus-field energy     =     0.0000000078 hartrees
 Requested basis set is 6-31++G(d,p)
 There are 110 shells and 345 basis functions
 A cutoff of  1.0D-12 yielded   4679 shell pairs
 There are     47702 function pairs

 Q-Chem warning in module /project/projectdirs/jcesr/qchem/qc44/cnl_qc441/compile/cori/qc_src/libqints/qchem/aobasis.C, line 68:

 Using reconstructed effective core potential

 Smallest overlap matrix eigenvalue = 8.94E-08
 Linear dependence detected in AO basis
 Number of orthogonalized atomic orbitals = 343
 Maximum deviation from orthogonality = 1.371E-10
 Guess MOs from SCF MO coefficient file
 Reading MOs from coefficient file
 Reading MOs from coefficient file
 A restricted hybrid HF-DFT SCF calculation will be
 performed using Pulay DIIS extrapolation
 Exchange:     0.2000 Hartree-Fock + 0.0800 Slater + 0.7200 B88
 Correlation:  0.1900 VWN1RPA + 0.8100 LYP
 Using SG-1 standard quadrature grid
 SCF converges when DIIS error is below 1.0E-08
 Geometry optimization detected.  Setting ReadMinima to 0
 Setting SaveMinima to 0
 ---------------------------------------
  Cycle       Energy         DIIS Error
 ---------------------------------------
    1   -1656.6616036865      1.12E-04
    2   -1656.6617871264      9.27E-06
    3   -1656.6617844308      1.64E-05
    4   -1656.6617888975      2.83E-06
    5   -1656.6617890037      1.36E-06
    6   -1656.6617890288      6.15E-07
    7   -1656.6617890332      2.33E-07
    8   -1656.6617890351      7.05E-08
    9   -1656.6617890331      2.07E-08
   10   -1656.6617890338      6.68E-09 Convergence criterion met
 ---------------------------------------
 SCF time:  CPU 11.05 s  wall 10.15 s
 SCF   energy in the final basis set = -1656.6617890338
 Total energy in the final basis set = -1656.6617890338
 
 --------------------------------------------------------------
 
                    Orbital Energies (a.u.)
 --------------------------------------------------------------
 
 Alpha MOs
 -- Occupied --
-88.921 -88.921 -88.921 -10.241 -10.240 -10.239 -10.238 -10.226
-10.226 -10.206 -10.206 -10.205 -10.205 -10.205 -10.205  -7.980
 -7.980  -7.980  -5.945  -5.944  -5.944  -5.941  -5.941  -5.940
 -5.938  -5.937  -5.937  -0.906  -0.892  -0.876  -0.786  -0.754
 -0.745  -0.743  -0.733  -0.697  -0.616  -0.594  -0.568  -0.564
 -0.537  -0.534  -0.528  -0.499  -0.463  -0.422  -0.418  -0.417
 -0.415  -0.407  -0.403  -0.398  -0.383  -0.376  -0.370  -0.358
 -0.352  -0.345  -0.286  -0.266  -0.262  -0.259  -0.246  -0.209
 -- Virtual --
 -0.064  -0.034  -0.008  -0.006  -0.005   0.002   0.008   0.010
  0.014   0.019   0.023   0.028   0.029   0.032   0.036   0.042
  0.044   0.050   0.053   0.054   0.058   0.065   0.068   0.076
  0.084   0.087   0.091   0.098   0.100   0.102   0.106   0.110
  0.111   0.116   0.119   0.124   0.126   0.128   0.131   0.133
  0.134   0.138   0.140   0.144   0.147   0.152   0.154   0.156
  0.161   0.161   0.169   0.174   0.177   0.183   0.187   0.192
  0.194   0.197   0.201   0.208   0.209   0.216   0.216   0.220
  0.228   0.233   0.235   0.244   0.252   0.257   0.259   0.262
  0.267   0.272   0.276   0.280   0.281   0.287   0.296   0.300
  0.313   0.320   0.323   0.334   0.341   0.343   0.352   0.358
  0.365   0.370   0.382   0.398   0.401   0.451   0.455   0.464
  0.493   0.506   0.522   0.528   0.556   0.562   0.564   0.575
  0.584   0.598   0.604   0.619   0.633   0.647   0.652   0.660
  0.668   0.670   0.673   0.689   0.693   0.706   0.713   0.719
  0.725   0.727   0.736   0.750   0.764   0.767   0.775   0.788
  0.794   0.801   0.810   0.825   0.834   0.836   0.853   0.877
  0.900   0.931   0.940   0.948   0.958   0.959   0.961   0.964
  0.966   0.973   0.979   0.987   0.992   0.998   1.006   1.023
  1.027   1.039   1.047   1.060   1.075   1.080   1.099   1.104
  1.110   1.117   1.146   1.154   1.170   1.185   1.199   1.216
  1.237   1.260   1.266   1.302   1.316   1.334   1.348   1.352
  1.353   1.363   1.366   1.388   1.443   1.453   1.473   1.500
  1.513   1.535   1.546   1.569   1.607   1.684   1.691   1.723
  1.781   1.792   1.831   1.866   1.875   1.884   1.895   1.902
  1.917   1.931   1.933   1.956   1.962   2.011   2.019   2.052
  2.069   2.080   2.102   2.127   2.156   2.171   2.182   2.197
  2.222   2.232   2.241   2.253   2.263   2.290   2.328   2.364
  2.367   2.421   2.434   2.449   2.454   2.467   2.469   2.477
  2.501   2.523   2.526   2.533   2.560   2.583   2.598   2.613
  2.624   2.658   2.671   2.702   2.712   2.743   2.785   2.849
  2.872   2.886   2.905   2.940   2.952   3.133   3.174   3.210
  3.270   3.273   3.326   3.413   3.415   3.674   3.731   3.738
  3.961   3.977   3.989   4.256   4.284   4.310   4.317   4.329
  4.357   4.398   4.478   4.547   4.648   4.693   4.725
 --------------------------------------------------------------
 
          Ground-State Mulliken Net Atomic Charges

     Atom                 Charge (a.u.)
  ----------------------------------------
      1 H                     0.196619
      2 H                     0.119528
      3 C                     0.032984
      4 C                    -0.400583
      5 S                    -0.115345
      6 C                     0.512731
      7 H                     0.126077
      8 C                    -0.457005
      9 H                     0.122611
     10 C                    -0.012145
     11 C                    -0.167515
     12 S                    -0.115549
     13 C                     0.168832
     14 H                     0.135789
     15 C                    -0.246449
     16 C                    -0.389872
     17 H                     0.148030
     18 C                     0.365612
     19 S                     0.029760
     20 C                    -0.391304
     21 C                     0.021162
     22 H                     0.120350
     23 H                     0.195679
  ----------------------------------------
  Sum of atomic charges =     0.000000

 -----------------------------------------------------------------
                    Cartesian Multipole Moments
 -----------------------------------------------------------------
    Charge (ESU x 10^10)
                 0.0000
    Dipole Moment (Debye)
         X      -0.1770      Y      -0.0449      Z      -0.6805
       Tot       0.7046
    Quadrupole Moments (Debye-Ang)
        XX     -89.7234     XY       0.4710     YY    -105.2426
        XZ       1.6021     YZ       2.3346     ZZ    -111.4810
    Octopole Moments (Debye-Ang^2)
       XXX     -16.8433    XXY      13.6233    XYY       8.3443
       YYY     -40.4204    XXZ      -2.5028    XYZ      -9.9255
       YYZ      -7.5333    XZZ     -31.5839    YZZ     -12.3469
       ZZZ     -16.2452
    Hexadecapole Moments (Debye-Ang^3)
      XXXX   -6248.5492   XXXY      86.9952   XXYY   -1302.1898
      XYYY     235.9119   YYYY    -703.2375   XXXZ     126.2878
      XXYZ      10.3211   XYYZ      19.1914   YYYZ     -66.4171
      XXZZ   -1288.9485   XYZZ      49.5987   YYZZ    -198.3028
      XZZZ     110.4438   YZZZ     -69.5526   ZZZZ    -408.7488
 -----------------------------------------------------------------
 Calculating analytic gradient of the SCF energy
 Gradient of SCF Energy
            1           2           3           4           5           6
    1   0.0000082   0.0000050   0.0000006   0.0000444   0.0000044  -0.0000252
    2   0.0000038  -0.0000067  -0.0000199   0.0000023   0.0000534  -0.0000552
    3  -0.0000021  -0.0000034  -0.0000015  -0.0000041  -0.0000095  -0.0000024
            7           8           9          10          11          12
    1  -0.0000027   0.0001087  -0.0000003  -0.0002515   0.0002952   0.0001087
    2  -0.0000037  -0.0000284  -0.0000230   0.0000584   0.0000686   0.0000389
    3  -0.0000055   0.0000813   0.0001236  -0.0000291  -0.0002981  -0.0001622
           13          14          15          16          17          18
    1  -0.0002403  -0.0000583   0.0006824  -0.0011964   0.0000507   0.0007888
    2  -0.0002929   0.0000619   0.0012804  -0.0029404  -0.0001110   0.0020604
    3   0.0022380  -0.0000878  -0.0032652   0.0016993   0.0000545  -0.0005125
           19          20          21          22          23
    1  -0.0001332  -0.0003236   0.0001224   0.0000429  -0.0000310
    2  -0.0000602  -0.0001822  -0.0001227   0.0001387   0.0000797
    3   0.0000399   0.0001657   0.0000616  -0.0000350  -0.0000455
 Max gradient component =       3.265E-03
 RMS gradient           =       7.286E-04
 Gradient time:  CPU 4.70 s  wall 4.58 s
 Geometry Optimization Parameters
   NAtoms,    NIC,     NZ,  NCons,   NDum,   NFix, NCnnct, MaxDiis
       23     166       0       1       0       0       0       0

 Cartesian Hessian Update
 Hessian Updated using BFGS Update


** CONSTRAINED OPTIMIZATION IN DELOCALIZED INTERNAL COORDINATES **
   Searching for a Minimum

   Optimization Cycle:   4

                       Coordinates (Angstroms)
     ATOM                X               Y               Z
      1  H         6.2348186418   -0.2494507289    0.1873950448
      2  H         5.3225177141    2.2125575319   -0.0851577153
      3  C         5.2027420354    0.0583719293    0.0906082364
      4  C         4.7007809680    1.3252747798   -0.0509556169
      5  S         3.9404879894   -1.1312662454    0.1091880882
      6  C         3.2803975666    1.3480607686   -0.1606165003
      7  H         2.7035321083    2.2556048208   -0.3001311374
      8  C         2.7026813036    0.0960194434   -0.0987943261
      9  H         1.3280976297   -2.3686550183   -0.7195050506
     10  C         1.2992760187   -0.2669126626   -0.1817691270
     11  C         0.7367091711   -1.4901090392   -0.4863775326
     12  S         0.0451138773    0.9183598193    0.1274684013
     13  C        -0.6846064138   -1.4834177591   -0.4665182941
     14  H        -1.2977225878   -2.3562674352   -0.6598728496
     15  C        -1.2275700107   -0.2535451993   -0.1702756693
     16  C        -2.6400622283    0.1053831969   -0.0698594039
     17  H        -3.3861311690   -0.3448365263   -2.0458303119
     18  C        -3.6054911413    0.0170485315   -1.0477993396
     19  S        -3.3256711112    0.7691305932    1.4041195099
     20  C        -4.8918370844    0.4608369799   -0.6189773347
     21  C        -4.8934970156    0.9035638253    0.6779719977
     22  H        -5.7715908236    0.4666554569   -1.2523299723
     23  H        -5.7216343483    1.3027005975    1.2479814332
   Point Group: c1    Number of degrees of freedom:    63


   Energy is  -1656.661789034

              Constraints and their Current Values
                                        Value     Constraint
   Dihedral:       13  15  16  18      -60.000      -60.000
 Hessian Updated using BFGS Update

 60 Hessian modes will be used to form the next step
  Hessian Eigenvalues:
     0.016534    0.044166    0.045000    0.045000    0.045000    0.045000
     0.045000    0.045001    0.045001    0.045002    0.045003    0.045008
     0.045009    0.045013    0.045015    0.045104    0.048604    0.159351
     0.159922    0.159941    0.159958    0.159974    0.159997    0.160055
     0.160796    0.221288    0.222523    0.227127    0.232952    0.238023
     0.241949    0.249875    0.249998    0.250289    0.274380    0.293571
     0.293976    0.295028    0.295400    0.312570    0.313545    0.354741
     0.354746    0.354771    0.354833    0.355164    0.355375    0.358372
     0.358630    0.384585    0.390709    0.405861    0.409604    0.438360
     0.458639    0.461905    0.462358    0.485771    0.497268    0.499348

 Minimum Search - Taking Simple RFO Step
 Searching for Lamda that Minimizes Along All modes
 Value Taken    Lamda =  -0.00000750
 Step Taken.  Stepsize is  0.017473

                             Maximum     Tolerance    Cnvgd?
         Gradient           0.000362      0.000300      NO
         Displacement       0.008691      0.001200      NO
         Energy change     -0.000014      0.000001      NO


 New Cartesian Coordinates Obtained by Inverse Iteration

 Displacement from previous Coordinates is:  0.024533
 ----------------------------------------------------------------
             Standard Nuclear Orientation (Angstroms)
    I     Atom           X                Y                Z
 ----------------------------------------------------------------
    1      H       6.2344375698    -0.2481601676     0.1870765361
    2      H       5.3207421008     2.2136436931    -0.0831066016
    3      C       5.2022035589     0.0591985570     0.0905936195
    4      C       4.6995270200     1.3259623999    -0.0497618283
    5      S       3.9406687964    -1.1312743202     0.1081593053
    6      C       3.2791719514     1.3480963327    -0.1593173702
    7      H       2.7017981973     2.2554769947    -0.2977851467
    8      C       2.7022532046     0.0956019187    -0.0986058085
    9      H       1.3281344902    -2.3690608215    -0.7216574529
   10      C       1.2991543026    -0.2679987604    -0.1815029002
   11      C       0.7366012526    -1.4909561806    -0.4872651676
   12      S       0.0447182393     0.9167651288     0.1289817423
   13      C      -0.6845149943    -1.4841435400    -0.4691029356
   14      H      -1.2972350167    -2.3577064867    -0.6604092161
   15      C      -1.2276565693    -0.2539958325    -0.1724310016
   16      C      -2.6394965884     0.1037677917    -0.0700882308
   17      H      -3.3879186546    -0.3474233576    -2.0456531556
   18      C      -3.6062015676     0.0140682653    -1.0472546041
   19      S      -3.3224784489     0.7729532334     1.4022587629
   20      C      -4.8911893837     0.4608463867    -0.6183004387
   21      C      -4.8911000512     0.9070738044     0.6774772822
   22      H      -5.7720015589     0.4647990042    -1.2502036609
   23      H      -5.7182767603     1.3075736164     1.2478608013
 ----------------------------------------------------------------
 Nuclear Repulsion Energy =  1174.9034708375 hartrees
 There are       64 alpha and       64 beta electrons
 Applying Cartesian multipole field
    Component          Value
    ---------          -----
     (2,0,0)        1.00000E-12
     (0,2,0)        2.00000E-11
     (0,0,2)       -3.00000E-11
 Nucleus-field energy     =     0.0000000078 hartrees
 Requested basis set is 6-31++G(d,p)
 There are 110 shells and 345 basis functions
 A cutoff of  1.0D-12 yielded   4679 shell pairs
 There are     47702 function pairs

 Q-Chem warning in module /project/projectdirs/jcesr/qchem/qc44/cnl_qc441/compile/cori/qc_src/libqints/qchem/aobasis.C, line 68:

 Using reconstructed effective core potential

 Smallest overlap matrix eigenvalue = 8.87E-08
 Linear dependence detected in AO basis
 Number of orthogonalized atomic orbitals = 343
 Maximum deviation from orthogonality = 1.924E-10
 Guess MOs from SCF MO coefficient file
 Reading MOs from coefficient file
 Reading MOs from coefficient file
 A restricted hybrid HF-DFT SCF calculation will be
 performed using Pulay DIIS extrapolation
 Exchange:     0.2000 Hartree-Fock + 0.0800 Slater + 0.7200 B88
 Correlation:  0.1900 VWN1RPA + 0.8100 LYP
 Using SG-1 standard quadrature grid
 SCF converges when DIIS error is below 1.0E-08
 Geometry optimization detected.  Setting ReadMinima to 0
 Setting SaveMinima to 0
 ---------------------------------------
  Cycle       Energy         DIIS Error
 ---------------------------------------
    1   -1656.6615627552      7.80E-05
    2   -1656.6617915011      1.10E-05
    3   -1656.6617835860      2.47E-05
    4   -1656.6617937438      2.55E-06
    5   -1656.6617938387      1.07E-06
    6   -1656.6617938540      4.67E-07
    7   -1656.6617938561      1.36E-07
    8   -1656.6617938570      4.46E-08
    9   -1656.6617938565      1.53E-08
   10   -1656.6617938569      4.81E-09 Convergence criterion met
 ---------------------------------------
 SCF time:  CPU 11.06 s  wall 10.11 s
 SCF   energy in the final basis set = -1656.6617938569
 Total energy in the final basis set = -1656.6617938569
 
 --------------------------------------------------------------
 
                    Orbital Energies (a.u.)
 --------------------------------------------------------------
 
 Alpha MOs
 -- Occupied --
-88.921 -88.921 -88.921 -10.241 -10.240 -10.239 -10.238 -10.226
-10.226 -10.206 -10.206 -10.205 -10.205 -10.205 -10.205  -7.980
 -7.980  -7.980  -5.945  -5.944  -5.944  -5.941  -5.941  -5.940
 -5.938  -5.937  -5.937  -0.906  -0.892  -0.876  -0.786  -0.754
 -0.745  -0.743  -0.733  -0.697  -0.616  -0.594  -0.568  -0.564
 -0.537  -0.534  -0.528  -0.499  -0.463  -0.422  -0.418  -0.417
 -0.415  -0.407  -0.403  -0.398  -0.383  -0.376  -0.370  -0.358
 -0.352  -0.345  -0.286  -0.266  -0.262  -0.259  -0.246  -0.209
 -- Virtual --
 -0.064  -0.034  -0.008  -0.006  -0.005   0.002   0.008   0.010
  0.014   0.019   0.023   0.028   0.030   0.032   0.036   0.042
  0.044   0.050   0.053   0.054   0.058   0.065   0.068   0.076
  0.084   0.087   0.090   0.098   0.100   0.102   0.106   0.110
  0.111   0.116   0.119   0.124   0.126   0.128   0.131   0.133
  0.134   0.138   0.140   0.144   0.147   0.152   0.154   0.156
  0.161   0.161   0.169   0.174   0.177   0.183   0.187   0.192
  0.194   0.197   0.201   0.208   0.209   0.216   0.216   0.220
  0.228   0.233   0.235   0.244   0.252   0.257   0.259   0.262
  0.267   0.272   0.276   0.280   0.281   0.287   0.296   0.300
  0.313   0.320   0.323   0.334   0.341   0.344   0.352   0.358
  0.365   0.371   0.382   0.398   0.401   0.451   0.455   0.464
  0.493   0.506   0.522   0.528   0.556   0.562   0.564   0.575
  0.584   0.598   0.604   0.619   0.633   0.647   0.652   0.660
  0.668   0.669   0.673   0.689   0.693   0.706   0.713   0.719
  0.725   0.727   0.736   0.750   0.764   0.767   0.774   0.788
  0.794   0.801   0.810   0.825   0.834   0.836   0.853   0.877
  0.900   0.931   0.940   0.948   0.957   0.959   0.961   0.964
  0.966   0.973   0.979   0.987   0.992   0.998   1.006   1.024
  1.027   1.038   1.047   1.060   1.075   1.080   1.099   1.104
  1.110   1.117   1.146   1.154   1.170   1.185   1.199   1.216
  1.237   1.260   1.267   1.302   1.317   1.334   1.348   1.352
  1.354   1.363   1.366   1.388   1.443   1.454   1.473   1.500
  1.513   1.535   1.546   1.569   1.607   1.684   1.691   1.723
  1.780   1.793   1.831   1.866   1.875   1.884   1.895   1.902
  1.917   1.931   1.934   1.956   1.963   2.011   2.019   2.052
  2.069   2.080   2.102   2.127   2.156   2.171   2.182   2.197
  2.221   2.232   2.242   2.253   2.264   2.290   2.328   2.364
  2.367   2.421   2.434   2.449   2.454   2.467   2.469   2.477
  2.501   2.523   2.526   2.533   2.560   2.583   2.598   2.614
  2.624   2.658   2.671   2.702   2.712   2.743   2.786   2.849
  2.872   2.886   2.905   2.940   2.952   3.133   3.174   3.210
  3.270   3.273   3.326   3.413   3.415   3.674   3.731   3.738
  3.961   3.977   3.989   4.257   4.284   4.310   4.317   4.329
  4.357   4.398   4.478   4.547   4.648   4.693   4.725
 --------------------------------------------------------------
 
          Ground-State Mulliken Net Atomic Charges

     Atom                 Charge (a.u.)
  ----------------------------------------
      1 H                     0.196605
      2 H                     0.119538
      3 C                     0.032664
      4 C                    -0.399913
      5 S                    -0.115244
      6 C                     0.511632
      7 H                     0.126034
      8 C                    -0.456628
      9 H                     0.122702
     10 C                    -0.013294
     11 C                    -0.163838
     12 S                    -0.117458
     13 C                     0.164575
     14 H                     0.135767
     15 C                    -0.242955
     16 C                    -0.384255
     17 H                     0.147990
     18 C                     0.360167
     19 S                     0.029322
     20 C                    -0.389917
     21 C                     0.020473
     22 H                     0.120341
     23 H                     0.195693
  ----------------------------------------
  Sum of atomic charges =     0.000000

 -----------------------------------------------------------------
                    Cartesian Multipole Moments
 -----------------------------------------------------------------
    Charge (ESU x 10^10)
                 0.0000
    Dipole Moment (Debye)
         X      -0.1776      Y      -0.0431      Z      -0.6765
       Tot       0.7008
    Quadrupole Moments (Debye-Ang)
        XX     -89.7402     XY       0.4679     YY    -105.2313
        XZ       1.6008     YZ       2.3506     ZZ    -111.4843
    Octopole Moments (Debye-Ang^2)
       XXX     -16.9306    XXY      13.6110    XYY       8.2681
       YYY     -40.4502    XXZ      -2.4821    XYZ      -9.9365
       YYZ      -7.4673    XZZ     -31.5912    YZZ     -12.3529
       ZZZ     -16.1564
    Hexadecapole Moments (Debye-Ang^3)
      XXXX   -6246.1915   XXXY      87.5025   XXYY   -1301.5310
      XYYY     236.2286   YYYY    -703.9368   XXXZ     126.0461
      XXYZ      10.4837   XYYZ      18.9265   YYYZ     -66.8833
      XXZZ   -1288.4632   XYZZ      49.6925   YYZZ    -198.3088
      XZZZ     109.9164   YZZZ     -70.1003   ZZZZ    -408.4063
 -----------------------------------------------------------------
 Calculating analytic gradient of the SCF energy
 Gradient of SCF Energy
            1           2           3           4           5           6
    1  -0.0000009  -0.0000015  -0.0000132   0.0000104  -0.0000153  -0.0000172
    2  -0.0000011  -0.0000023  -0.0000112   0.0000118  -0.0000004  -0.0000201
    3   0.0000012  -0.0000011  -0.0000050  -0.0000124  -0.0000013  -0.0000133
            7           8           9          10          11          12
    1   0.0000008   0.0001019  -0.0000058  -0.0001427   0.0001512  -0.0000002
    2   0.0000057  -0.0000116  -0.0000056   0.0000270   0.0000336  -0.0000513
    3   0.0000035   0.0000508   0.0000889  -0.0000765  -0.0001310  -0.0000343
           13          14          15          16          17          18
    1  -0.0001105  -0.0000184   0.0002965  -0.0007065   0.0000328   0.0005106
    2  -0.0004990   0.0000044   0.0018515  -0.0031444   0.0000218   0.0018699
    3   0.0019939   0.0000467  -0.0033974   0.0021442  -0.0000026  -0.0006813
           19          20          21          22          23
    1  -0.0000090  -0.0001302   0.0000492   0.0000290  -0.0000111
    2  -0.0000268  -0.0000895  -0.0000985   0.0000860   0.0000502
    3  -0.0000306   0.0000752   0.0000245  -0.0000115  -0.0000305
 Max gradient component =       3.397E-03
 RMS gradient           =       7.485E-04
 Gradient time:  CPU 4.58 s  wall 4.59 s
 Geometry Optimization Parameters
   NAtoms,    NIC,     NZ,  NCons,   NDum,   NFix, NCnnct, MaxDiis
       23     166       0       1       0       0       0       0

 Cartesian Hessian Update
 Hessian Updated using BFGS Update


** CONSTRAINED OPTIMIZATION IN DELOCALIZED INTERNAL COORDINATES **
   Searching for a Minimum

   Optimization Cycle:   5

                       Coordinates (Angstroms)
     ATOM                X               Y               Z
      1  H         6.2344375698   -0.2481601676    0.1870765361
      2  H         5.3207421008    2.2136436931   -0.0831066016
      3  C         5.2022035589    0.0591985570    0.0905936195
      4  C         4.6995270200    1.3259623999   -0.0497618283
      5  S         3.9406687964   -1.1312743202    0.1081593053
      6  C         3.2791719514    1.3480963327   -0.1593173702
      7  H         2.7017981973    2.2554769947   -0.2977851467
      8  C         2.7022532046    0.0956019187   -0.0986058085
      9  H         1.3281344902   -2.3690608215   -0.7216574529
     10  C         1.2991543026   -0.2679987604   -0.1815029002
     11  C         0.7366012526   -1.4909561806   -0.4872651676
     12  S         0.0447182393    0.9167651288    0.1289817423
     13  C        -0.6845149943   -1.4841435400   -0.4691029356
     14  H        -1.2972350167   -2.3577064867   -0.6604092161
     15  C        -1.2276565693   -0.2539958325   -0.1724310016
     16  C        -2.6394965884    0.1037677917   -0.0700882308
     17  H        -3.3879186546   -0.3474233576   -2.0456531556
     18  C        -3.6062015676    0.0140682653   -1.0472546041
     19  S        -3.3224784489    0.7729532334    1.4022587629
     20  C        -4.8911893837    0.4608463867   -0.6183004387
     21  C        -4.8911000512    0.9070738044    0.6774772822
     22  H        -5.7720015589    0.4647990042   -1.2502036609
     23  H        -5.7182767603    1.3075736164    1.2478608013
   Point Group: c1    Number of degrees of freedom:    63


   Energy is  -1656.661793857

              Constraints and their Current Values
                                        Value     Constraint
   Dihedral:       13  15  16  18      -60.000      -60.000
 Hessian Updated using BFGS Update

 60 Hessian modes will be used to form the next step
  Hessian Eigenvalues:
     0.013159    0.038226    0.045000    0.045000    0.045000    0.045000
     0.045000    0.045000    0.045001    0.045002    0.045007    0.045008
     0.045010    0.045013    0.045015    0.045768    0.049628    0.157158
     0.159918    0.159955    0.159960    0.159985    0.159998    0.160093
     0.160515    0.221285    0.221664    0.226131    0.228743    0.238364
     0.242175    0.249634    0.249999    0.250107    0.273774    0.293566
     0.294075    0.295174    0.297408    0.312591    0.313549    0.354733
     0.354742    0.354758    0.354855    0.355164    0.355371    0.358374
     0.358629    0.384252    0.402881    0.405927    0.410200    0.434627
     0.459374    0.462279    0.470687    0.485403    0.497249    0.499641

 Minimum Search - Taking Simple RFO Step
 Searching for Lamda that Minimizes Along All modes
 Value Taken    Lamda =  -0.00000232
 Step Taken.  Stepsize is  0.010411

                             Maximum     Tolerance    Cnvgd?
         Gradient           0.000117      0.000300     YES
         Displacement       0.004307      0.001200      NO
         Energy change     -0.000005      0.000001      NO


 New Cartesian Coordinates Obtained by Inverse Iteration

 Displacement from previous Coordinates is:  0.022388
 ----------------------------------------------------------------
             Standard Nuclear Orientation (Angstroms)
    I     Atom           X                Y                Z
 ----------------------------------------------------------------
    1      H       6.2345089202    -0.2467338981     0.1878300513
    2      H       5.3194848220     2.2146385223    -0.0817027476
    3      C       5.2021204592     0.0601108552     0.0913520062
    4      C       4.6987351042     1.3266168896    -0.0486695278
    5      S       3.9411862270    -1.1310335594     0.1083631788
    6      C       3.2783807575     1.3480486580    -0.1584171148
    7      H       2.7005555657     2.2551564450    -0.2967058914
[...]
    6   -1656.6617959913      3.07E-07
    7   -1656.6617959950      9.64E-08
    8   -1656.6617959965      3.63E-08
    9   -1656.6617959950      1.21E-08
   10   -1656.6617959949      3.19E-09 Convergence criterion met
 ---------------------------------------
 SCF time:  CPU 10.98 s  wall 10.04 s
 SCF   energy in the final basis set = -1656.6617959949
 Total energy in the final basis set = -1656.6617959949
 
 --------------------------------------------------------------
 
                    Orbital Energies (a.u.)
 --------------------------------------------------------------
 
 Alpha MOs
 -- Occupied --
-88.921 -88.921 -88.921 -10.241 -10.240 -10.239 -10.238 -10.226
-10.226 -10.206 -10.206 -10.205 -10.205 -10.205 -10.205  -7.980
 -7.980  -7.980  -5.945  -5.944  -5.944  -5.941  -5.941  -5.940
 -5.938  -5.937  -5.937  -0.906  -0.892  -0.876  -0.786  -0.754
 -0.745  -0.743  -0.733  -0.697  -0.616  -0.594  -0.568  -0.564
 -0.537  -0.534  -0.528  -0.499  -0.463  -0.422  -0.418  -0.417
 -0.415  -0.407  -0.403  -0.398  -0.383  -0.376  -0.370  -0.358
 -0.352  -0.345  -0.286  -0.266  -0.262  -0.259  -0.246  -0.209
 -- Virtual --
 -0.064  -0.034  -0.008  -0.006  -0.005   0.002   0.008   0.010
  0.014   0.019   0.023   0.028   0.030   0.032   0.036   0.042
  0.044   0.050   0.052   0.054   0.058   0.065   0.068   0.076
  0.084   0.087   0.090   0.098   0.100   0.102   0.106   0.110
  0.111   0.116   0.118   0.124   0.126   0.128   0.131   0.133
  0.134   0.138   0.140   0.144   0.147   0.152   0.154   0.156
  0.161   0.161   0.169   0.174   0.177   0.183   0.187   0.192
  0.194   0.197   0.201   0.208   0.209   0.216   0.216   0.220
  0.228   0.233   0.235   0.243   0.252   0.257   0.259   0.262
  0.267   0.272   0.276   0.280   0.281   0.287   0.296   0.300
  0.313   0.320   0.323   0.334   0.341   0.344   0.352   0.358
  0.365   0.371   0.382   0.398   0.401   0.451   0.455   0.464
  0.493   0.506   0.522   0.527   0.556   0.562   0.564   0.575
  0.584   0.597   0.604   0.619   0.633   0.647   0.652   0.660
  0.668   0.669   0.673   0.689   0.693   0.707   0.713   0.719
  0.725   0.727   0.736   0.750   0.764   0.767   0.774   0.788
  0.795   0.801   0.810   0.825   0.834   0.836   0.853   0.877
  0.900   0.931   0.940   0.948   0.957   0.959   0.961   0.964
  0.966   0.973   0.979   0.987   0.992   0.998   1.006   1.024
  1.027   1.038   1.047   1.060   1.075   1.080   1.099   1.104
  1.110   1.117   1.146   1.154   1.170   1.185   1.199   1.216
  1.237   1.260   1.267   1.302   1.317   1.334   1.348   1.352
  1.354   1.363   1.366   1.389   1.442   1.453   1.473   1.500
  1.513   1.536   1.546   1.570   1.606   1.684   1.691   1.723
  1.779   1.793   1.831   1.866   1.876   1.884   1.895   1.903
  1.917   1.931   1.934   1.956   1.962   2.011   2.019   2.052
  2.069   2.080   2.102   2.127   2.156   2.171   2.182   2.197
  2.221   2.231   2.242   2.253   2.264   2.290   2.328   2.364
  2.367   2.421   2.434   2.449   2.454   2.467   2.469   2.477
  2.501   2.523   2.526   2.533   2.560   2.583   2.598   2.614
  2.624   2.658   2.672   2.702   2.712   2.743   2.786   2.849
  2.872   2.886   2.905   2.941   2.952   3.133   3.174   3.210
  3.270   3.273   3.326   3.413   3.415   3.674   3.731   3.738
  3.961   3.977   3.989   4.257   4.284   4.310   4.317   4.329
  4.357   4.398   4.478   4.547   4.648   4.693   4.725
 --------------------------------------------------------------
 
          Ground-State Mulliken Net Atomic Charges

     Atom                 Charge (a.u.)
  ----------------------------------------
      1 H                     0.196603
      2 H                     0.119553
      3 C                     0.032632
      4 C                    -0.399354
      5 S                    -0.115190
      6 C                     0.511210
      7 H                     0.125989
      8 C                    -0.457042
      9 H                     0.122930
     10 C                    -0.016079
     11 C                    -0.156196
     12 S                    -0.120882
     13 C                     0.159308
     14 H                     0.135659
     15 C                    -0.239576
     16 C                    -0.378598
     17 H                     0.147848
     18 C                     0.354697
     19 S                     0.028223
     20 C                    -0.387702
     21 C                     0.019845
     22 H                     0.120339
     23 H                     0.195784
  ----------------------------------------
  Sum of atomic charges =     0.000000

 -----------------------------------------------------------------
                    Cartesian Multipole Moments
 -----------------------------------------------------------------
    Charge (ESU x 10^10)
                 0.0000
    Dipole Moment (Debye)
         X      -0.1794      Y      -0.0447      Z      -0.6755
       Tot       0.7003
    Quadrupole Moments (Debye-Ang)
        XX     -89.7367     XY       0.4799     YY    -105.2212
        XZ       1.5984     YZ       2.3829     ZZ    -111.4883
    Octopole Moments (Debye-Ang^2)
       XXX     -17.1177    XXY      13.5519    XYY       8.1480
       YYY     -40.5076    XXZ      -2.4207    XYZ     -10.0122
       YYZ      -7.4216    XZZ     -31.6080    YZZ     -12.4011
       ZZZ     -16.0180
    Hexadecapole Moments (Debye-Ang^3)
      XXXX   -6243.4446   XXXY      88.5773   XXYY   -1300.9301
      XYYY     236.7634   YYYY    -705.0955   XXXZ     125.2927
      XXYZ      10.8201   XYYZ      18.3898   YYYZ     -67.3281
      XXZZ   -1287.9760   XYZZ      49.9076   YYZZ    -198.2936
      XZZZ     108.5332   YZZZ     -70.6323   ZZZZ    -407.9569
 -----------------------------------------------------------------
 Calculating analytic gradient of the SCF energy
 Gradient of SCF Energy
            1           2           3           4           5           6
    1  -0.0000019   0.0000009   0.0000023  -0.0000052  -0.0000033   0.0000053
    2  -0.0000033  -0.0000011   0.0000045  -0.0000035  -0.0000093   0.0000091
    3  -0.0000006  -0.0000046  -0.0000023  -0.0000031  -0.0000010  -0.0000090
            7           8           9          10          11          12
    1   0.0000020  -0.0000178   0.0000002   0.0000519  -0.0000593  -0.0000250
    2  -0.0000008  -0.0000039  -0.0000005  -0.0000037  -0.0000074  -0.0000198
    3  -0.0000007   0.0000030  -0.0000053  -0.0000164   0.0000382  -0.0000054
           13          14          15          16          17          18
    1   0.0000757   0.0000066   0.0001471  -0.0006065  -0.0000010   0.0003854
    2  -0.0005133  -0.0000127   0.0019741  -0.0033733   0.0000354   0.0019290
    3   0.0020035   0.0000427  -0.0035933   0.0022426  -0.0000108  -0.0006443
           19          20          21          22          23
    1   0.0000168   0.0000598  -0.0000346  -0.0000076   0.0000081
    2  -0.0000163   0.0000163   0.0000119  -0.0000133   0.0000015
    3  -0.0000235  -0.0000269   0.0000049   0.0000072   0.0000050
 Max gradient component =       3.593E-03
 RMS gradient           =       7.820E-04
 Gradient time:  CPU 4.66 s  wall 4.59 s
 Geometry Optimization Parameters
   NAtoms,    NIC,     NZ,  NCons,   NDum,   NFix, NCnnct, MaxDiis
       23     166       0       1       0       0       0       0

 Cartesian Hessian Update
 Hessian Updated using BFGS Update


** CONSTRAINED OPTIMIZATION IN DELOCALIZED INTERNAL COORDINATES **
   Searching for a Minimum

   Optimization Cycle:   7

                       Coordinates (Angstroms)
     ATOM                X               Y               Z
      1  H         6.2344073397   -0.2460123202    0.1888091809
      2  H         5.3188286503    2.2151707831   -0.0806292435
      3  C         5.2019597761    0.0605871968    0.0922174602
      4  C         4.6982936159    1.3269900815   -0.0477553293
      5  S         3.9413597226   -1.1309128949    0.1088398715
      6  C         3.2779845315    1.3480855233   -0.1577949221
      7  H         2.6999657636    2.2550539724   -0.2961913591
      8  C         2.7019638045    0.0950883865   -0.0978446112
      9  H         1.3291106274   -2.3695928337   -0.7251583591
     10  C         1.2993366962   -0.2695334568   -0.1810622852
     11  C         0.7371750400   -1.4923145298   -0.4885392941
     12  S         0.0440551952    0.9147433123    0.1286023606
     13  C        -0.6837348525   -1.4857457878   -0.4726933941
     14  H        -1.2956481711   -2.3596094733   -0.6652477191
     15  C        -1.2278074159   -0.2558196885   -0.1762974609
     16  C        -2.6394004782    0.1014975092   -0.0718862239
     17  H        -3.3935388116   -0.3538571044   -2.0446245557
     18  C        -3.6085223299    0.0109211702   -1.0467073002
     19  S        -3.3178289007    0.7777635059    1.3994382305
     20  C        -4.8914484662    0.4618738241   -0.6165859284
     21  C        -4.8877909451    0.9128678783    0.6775730925
     22  H        -5.7742041382    0.4628456743   -1.2458375474
     23  H        -5.7131751636    1.3150169315    1.2493378671
   Point Group: c1    Number of degrees of freedom:    63


   Energy is  -1656.661795995

              Constraints and their Current Values
                                        Value     Constraint
   Dihedral:       13  15  16  18      -60.000      -60.000
 Hessian Updated using BFGS Update

 62 Hessian modes will be used to form the next step
  Hessian Eigenvalues:
     0.010315    0.024636    0.045000    0.045000    0.045000    0.045000
     0.045000    0.045000    0.045000    0.045002    0.045002    0.045004
     0.045007    0.045010    0.045012    0.045018    0.045093    0.045819
     0.047820    0.159225    0.159919    0.159963    0.159987    0.159994
     0.160010    0.160104    0.160547    0.221428    0.222557    0.223999
     0.227349    0.238472    0.242836    0.249957    0.250012    0.250827
     0.277701    0.292661    0.293660    0.294606    0.295368    0.312601
     0.313563    0.354742    0.354751    0.354830    0.354867    0.355167
     0.355399    0.358386    0.358623    0.384464    0.398366    0.406365
     0.410102    0.439179    0.459113    0.462373    0.465535    0.487210
     0.497384    0.500997

 Minimum Search - Taking Simple RFO Step
 Searching for Lamda that Minimizes Along All modes
 Value Taken    Lamda =   0.00000000
 Step Taken.  Stepsize is  0.002927

                             Maximum     Tolerance    Cnvgd?
         Gradient           0.000062      0.000300     YES
         Displacement       0.001417      0.001200      NO
         Energy change     -0.000001      0.000001     YES

 Final energy is   -1656.66179599491     


 ******************************
 **  OPTIMIZATION CONVERGED  **
 ******************************

                       Coordinates (Angstroms)
     ATOM                X               Y               Z
      1  H         6.2344073397   -0.2460123202    0.1888091809
      2  H         5.3188286503    2.2151707831   -0.0806292435
      3  C         5.2019597761    0.0605871968    0.0922174602
      4  C         4.6982936159    1.3269900815   -0.0477553293
      5  S         3.9413597226   -1.1309128949    0.1088398715
      6  C         3.2779845315    1.3480855233   -0.1577949221
      7  H         2.6999657636    2.2550539724   -0.2961913591
      8  C         2.7019638045    0.0950883865   -0.0978446112
      9  H         1.3291106274   -2.3695928337   -0.7251583591
     10  C         1.2993366962   -0.2695334568   -0.1810622852
     11  C         0.7371750400   -1.4923145298   -0.4885392941
     12  S         0.0440551952    0.9147433123    0.1286023606
     13  C        -0.6837348525   -1.4857457878   -0.4726933941
     14  H        -1.2956481711   -2.3596094733   -0.6652477191
     15  C        -1.2278074159   -0.2558196885   -0.1762974609
     16  C        -2.6394004782    0.1014975092   -0.0718862239
     17  H        -3.3935388116   -0.3538571044   -2.0446245557
     18  C        -3.6085223299    0.0109211702   -1.0467073002
     19  S        -3.3178289007    0.7777635059    1.3994382305
     20  C        -4.8914484662    0.4618738241   -0.6165859284
     21  C        -4.8877909451    0.9128678783    0.6775730925
     22  H        -5.7742041382    0.4628456743   -1.2458375474
     23  H        -5.7131751636    1.3150169315    1.2493378671

Z-matrix Print:
$molecule
0 1
S 
C  1 1.753321
C  2 1.380493 1 110.247389
H  3 1.084432 2 122.879519 1 179.423405 0
C  3 1.421013 2 113.616328 1 -0.204824 0
H  5 1.084045 3 123.967617 2 -178.450898 0
C  5 1.377165 3 113.676150 2 1.053468 0
C  2 1.451633 1 120.796561 3 179.985576 0
C  8 1.380361 2 128.956083 1 -19.772322 0
H  9 1.084367 8 122.842673 2 -0.868442 0
C  9 1.424722 8 113.528794 2 -179.672114 0
H  11 1.083978 9 123.794314 8 179.585412 0
C  11 1.370054 9 112.834078 8 0.153719 0
H  13 1.081333 11 128.478341 9 179.545628 0
C  7 1.459854 5 128.024146 3 -179.723944 0
C  15 1.377562 7 127.846132 5 -60.000000 0
H  16 1.084029 15 122.278571 7 -0.281039 0
C  16 1.426276 15 113.491072 7 -179.241744 0
H  18 1.084074 16 123.896212 15 -179.861315 0
C  18 1.370495 16 112.731718 15 0.943667 0
H  20 1.081618 18 128.278904 16 179.439478 0
S  20 1.733241 18 111.718785 16 -0.625506 0
S  13 1.734665 11 111.637478 9 -0.608989 0
$end

 
 --------------------------------------------------------------
 
                    Orbital Energies (a.u.)
 --------------------------------------------------------------
 
 Alpha MOs
 -- Occupied --
-88.921 -88.921 -88.921 -10.241 -10.240 -10.239 -10.238 -10.226
-10.226 -10.206 -10.206 -10.205 -10.205 -10.205 -10.205  -7.980
 -7.980  -7.980  -5.945  -5.944  -5.944  -5.941  -5.941  -5.940
 -5.938  -5.937  -5.937  -0.906  -0.892  -0.876  -0.786  -0.754
 -0.745  -0.743  -0.733  -0.697  -0.616  -0.594  -0.568  -0.564
 -0.537  -0.534  -0.528  -0.499  -0.463  -0.422  -0.418  -0.417
 -0.415  -0.407  -0.403  -0.398  -0.383  -0.376  -0.370  -0.358
 -0.352  -0.345  -0.286  -0.266  -0.262  -0.259  -0.246  -0.209
 -- Virtual --
 -0.064  -0.034  -0.008  -0.006  -0.005   0.002   0.008   0.010
  0.014   0.019   0.023   0.028   0.030   0.032   0.036   0.042
  0.044   0.050   0.052   0.054   0.058   0.065   0.068   0.076
  0.084   0.087   0.090   0.098   0.100   0.102   0.106   0.110
  0.111   0.116   0.118   0.124   0.126   0.128   0.131   0.133
  0.134   0.138   0.140   0.144   0.147   0.152   0.154   0.156
  0.161   0.161   0.169   0.174   0.177   0.183   0.187   0.192
  0.194   0.197   0.201   0.208   0.209   0.216   0.216   0.220
  0.228   0.233   0.235   0.243   0.252   0.257   0.259   0.262
  0.267   0.272   0.276   0.280   0.281   0.287   0.296   0.300
  0.313   0.320   0.323   0.334   0.341   0.344   0.352   0.358
  0.365   0.371   0.382   0.398   0.401   0.451   0.455   0.464
  0.493   0.506   0.522   0.527   0.556   0.562   0.564   0.575
  0.584   0.597   0.604   0.619   0.633   0.647   0.652   0.660
  0.668   0.669   0.673   0.689   0.693   0.707   0.713   0.719
  0.725   0.727   0.736   0.750   0.764   0.767   0.774   0.788
  0.795   0.801   0.810   0.825   0.834   0.836   0.853   0.877
  0.900   0.931   0.940   0.948   0.957   0.959   0.961   0.964
  0.966   0.973   0.979   0.987   0.992   0.998   1.006   1.024
  1.027   1.038   1.047   1.060   1.075   1.080   1.099   1.104
  1.110   1.117   1.146   1.154   1.170   1.185   1.199   1.216
  1.237   1.260   1.267   1.302   1.317   1.334   1.348   1.352
  1.354   1.363   1.366   1.389   1.442   1.453   1.473   1.500
  1.513   1.536   1.546   1.570   1.606   1.684   1.691   1.723
  1.779   1.793   1.831   1.866   1.876   1.884   1.895   1.903
  1.917   1.931   1.934   1.956   1.962   2.011   2.019   2.052
  2.069   2.080   2.102   2.127   2.156   2.171   2.182   2.197
  2.221   2.231   2.242   2.253   2.264   2.290   2.328   2.364
  2.367   2.421   2.434   2.449   2.454   2.467   2.469   2.477
  2.501   2.523   2.526   2.533   2.560   2.583   2.598   2.614
  2.624   2.658   2.672   2.702   2.712   2.743   2.786   2.849
  2.872   2.886   2.905   2.941   2.952   3.133   3.174   3.210
  3.270   3.273   3.326   3.413   3.415   3.674   3.731   3.738
  3.961   3.977   3.989   4.257   4.284   4.310   4.317   4.329
  4.357   4.398   4.478   4.547   4.648   4.693   4.725
 --------------------------------------------------------------
 
          Ground-State Mulliken Net Atomic Charges

     Atom                 Charge (a.u.)
  ----------------------------------------
      1 H                     0.196603
      2 H                     0.119553
      3 C                     0.032632
      4 C                    -0.399354
      5 S                    -0.115190
      6 C                     0.511210
      7 H                     0.125989
      8 C                    -0.457042
      9 H                     0.122930
     10 C                    -0.016079
     11 C                    -0.156196
     12 S                    -0.120882
     13 C                     0.159308
     14 H                     0.135659
     15 C                    -0.239576
     16 C                    -0.378598
     17 H                     0.147848
     18 C                     0.354697
     19 S                     0.028223
     20 C                    -0.387702
     21 C                     0.019845
     22 H                     0.120339
     23 H                     0.195784
  ----------------------------------------
  Sum of atomic charges =     0.000000

 -----------------------------------------------------------------
                    Cartesian Multipole Moments
 -----------------------------------------------------------------
    Charge (ESU x 10^10)
                 0.0000
    Dipole Moment (Debye)
         X      -0.1794      Y      -0.0447      Z      -0.6755
       Tot       0.7003
    Quadrupole Moments (Debye-Ang)
        XX     -89.7367     XY       0.4799     YY    -105.2212
        XZ       1.5984     YZ       2.3829     ZZ    -111.4883
    Octopole Moments (Debye-Ang^2)
       XXX     -17.1177    XXY      13.5519    XYY       8.1480
       YYY     -40.5076    XXZ      -2.4207    XYZ     -10.0122
       YYZ      -7.4216    XZZ     -31.6080    YZZ     -12.4011
       ZZZ     -16.0180
    Hexadecapole Moments (Debye-Ang^3)
      XXXX   -6243.4446   XXXY      88.5773   XXYY   -1300.9301
      XYYY     236.7634   YYYY    -705.0955   XXXZ     125.2927
      XXYZ      10.8201   XYYZ      18.3898   YYYZ     -67.3281
      XXZZ   -1287.9760   XYZZ      49.9076   YYZZ    -198.2936
      XZZZ     108.5332   YZZZ     -70.6323   ZZZZ    -407.9569
 -----------------------------------------------------------------
Archival summary:
1\1\nid00557\OPT\ProcedureUnspecified\BasisUnspecified\3128\bwood\TueMay3010:54:382017TueMay3010:54:382017\0\\#,OPT,ProcedureUnspecified,BasisUnspecified,\\0,1\S\C,1,1.75332\C,2,1.38049,1,110.247\H,3,1.08443,2,122.88,1,179.423,0\C,3,1.42101,2,113.616,1,-0.204824,0\H,5,1.08404,3,123.968,2,-178.451,0\C,5,1.37717,3,113.676,2,1.05347,0\C,2,1.45163,1,120.797,3,179.986,0\C,8,1.38036,2,128.956,1,-19.7723,0\H,9,1.08437,8,122.843,2,-0.868442,0\C,9,1.42472,8,113.529,2,-179.672,0\H,11,1.08398,9,123.794,8,179.585,0\C,11,1.37005,9,112.834,8,0.153719,0\H,13,1.08133,11,128.478,9,179.546,0\C,7,1.45985,5,128.024,3,-179.724,0\C,15,1.37756,7,127.846,5,-60,0\H,16,1.08403,15,122.279,7,-0.281039,0\C,16,1.42628,15,113.491,7,-179.242,0\H,18,1.08407,16,123.896,15,-179.861,0\C,18,1.3705,16,112.732,15,0.943667,0\H,20,1.08162,18,128.279,16,179.439,0\S,20,1.73324,18,111.719,16,-0.625506,0\S,13,1.73466,11,111.637,9,-0.608989,0\\\@

 Total job time:  113.54s(wall), 120.96s(cpu) 
 Tue May 30 10:54:38 2017

        *************************************************************
        *                                                           *
        *  Thank you very much for using Q-Chem.  Have a nice day.  *
        *                                                           *
        *************************************************************


0 sent ACK to 0 
now end server 0 ... 
