srun -N 1 --ntasks-per-node 22 --cpus-per-task 2 --cpu_bind=cores --nodelist nid00555 /global/project/projectdirs/jcesr/qchem/qc44/cnl_qc441/dist/exe/qcprog.cori.haswell.exe .pt_nn_neutral_-70.0.in.36606.qcin.1 /dev/shm/eg_qchem/qchem36606/
Process 1 of 22 is on nid00555 - thread support 0
Process 2 of 22 is on nid00555 - thread support 0
Process 3 of 22 is on nid00555 - thread support 0
Process 4 of 22 is on nid00555 - thread support 0
Process 5 of 22 is on nid00555 - thread support 0
Process 6 of 22 is on nid00555 - thread support 0
Process 21 of 22 is on nid00555 - thread support 0
Process 0 of 22 is on nid00555 - thread support 0
initial socket setup ...start
initial socket setup ...done 
now start server 0 ... 
nid00555 10.128.2
Q-Chem Developer Version! Running on 10.128.2.*
                  Welcome to Q-Chem
     A Quantum Leap Into The Future Of Chemistry


 Q-Chem 4.4, Q-Chem, Inc., Pleasanton, CA (2016)

 Y. Shao,  Z. Gan,  E. Epifanovsky,  A. T. B. Gilbert,  M. Wormit,  
 J. Kussmann,  A. W. Lange,  A. Behn,  J. Deng,  X. Feng,  D. Ghosh,  
 M. Goldey,  P. R. Horn,  L. D. Jacobson,  I. Kaliman,  F. Rob,  
 R. Z. Khaliullin,  T. Kus,  A. Landau,  J. Liu,  E. I. Proynov,  Y. M. Rhee,  
 R. M. Richard,  M. A. Rohrdanz,  R. P. Steele,  E. J. Sundstrom,  
 H. L. Woodcock III,  P. M. Zimmerman,  D. Zuev,  B. Albrecht,  E. Alguire,  
 B. Austin,  S. A. Baeppler,  G. J. O. Beran,  Y. A. Bernard,  
 E. J. Berquist,  K. Brandhorst,  K. B. Bravaya,  S. T. Brown,  D. Casanova,  
 C.-M. Chang,  Y. Chen,  S. H. Chien,  K. D. Closser,  M. P. Coons,  
 D. L. Crittenden,  S. Dasgupta,  M. Diedenhofen,  R. A. DiStasio Jr.,  
 H. Do,  A. D. Dutoi,  R. G. Edgar,  P.-T. Fang,  S. Fatehi,  Q. Feng,  
 L. Fusti-Molnar,  A. Ghysels,  A. Golubeva-Zadorozhnaya,  J. Gomes,  
 A. Gunina,  M. W. D. Hanson-Heine,  P. H. P. Harbach,  A. W. Hauser,  
 J. E. Herr,  E. G. Hohenstein,  Z. C. Holden,  K. Hui,  T.-C. Jagau,  H. Ji,  
 B. Kaduk,  K. Khistyaev,  Jaehoon Kim,  Jihan Kim,  R. A. King,  
 P. Klunzinger,  K. Koh,  D. Kosenkov,  T. Kowalczyk,  C. M. Krauter,  
 A. Kunitsa,  K. U. Lao,  A. Laurent,  K. V. Lawler,  J. Lee,  D. Lefrancois,  
 S. Lehtola,  S. V. Levchenko,  C. Y. Lin,  Y.-S. Lin,  F. Liu,  E. Livshits,  
 R. C. Lochan,  A. Luenser,  P. Manohar,  S. F. Manzer,  S.-P. Mao,  Y. Mao,  
 N. Mardirossian,  A. V. Marenich,  L. A. Martinez-Martinez,  S. A. Maurer,  
 N. J. Mayhall,  J.-M. Mewes,  A. F. Morrison,  K. Nanda,  T. S. Nguyen-Beck,  
 C. M. Oana,  R. Olivares-Amaya,  D. P. O'Neill,  J. A. Parkhill,  
 T. M. Perrine,  R. Peverati,  P. A. Pieniazek,  F. Plasser,  A. Prociuk,  
 D. R. Rehn,  E. Rosta,  N. J. Russ,  N. Sergueev,  S. M. Sharada,  
 S. Sharma,  D. W. Small,  A. Sodt,  T. Stauch,  T. Stein,  D. Stuck,  
 Y.-C. Su,  A. J. W. Thom,  T. Tsuchimochi,  L. Vogt,  O. Vydrov,  T. Wang,  
 M. A. Watson,  J. Wenzel,  A. White,  C. F. Williams,  V. Vanovschi,  
 K. Yao,  S. Yeganeh,  S. R. Yost,  Z.-Q. You,  I. Y. Zhang,  X. Zhang,  
 Y. Zhao,  B. R. Brooks,  G. K. L. Chan,  D. M. Chipman,  C. J. Cramer,  
 W. A. Goddard III,  M. S. Gordon,  W. J. Hehre,  A. Klamt,  
 H. F. Schaefer III,  M. W. Schmidt,  C. D. Sherrill,  D. G. Truhlar,  
 A. Warshel,  X. Xu,  A. Aspuru-Guzik,  R. Baer,  A. T. Bell,  N. A. Besley,  
 J.-D. Chai,  A. Dreuw,  B. D. Dunietz,  T. R. Furlani,  S. R. Gwaltney,  
 C.-P. Hsu,  Y. Jung,  J. Kong,  D. S. Lambrecht,  W. Liang,  C. Ochsenfeld,  
 V. A. Rassolov,  L. V. Slipchenko,  J. E. Subotnik,  T. Van Voorhis,  
 J. M. Herbert,  A. I. Krylov,  P. M. W. Gill,  M. Head-Gordon

 Contributors to earlier versions of Q-Chem not listed above: 
 R. D. Adamson,  J. Baker,  E. F. C. Byrd,  A. K. Chakraborty,  C.-L. Cheng,  
 H. Dachsel,  R. J. Doerksen,  G. Hawkins,  A. Heyden,  S. Hirata,  
 G. Kedziora,  F. J. Keil,  C. Kelley,  P. P. Korambath,  W. Kurlancheek,  
 A. M. Lee,  M. S. Lee,  D. Liotard,  I. Lotan,  P. E. Maslen,  N. Nair,  
 D. Neuhauser,  R. Olson,  B. Peters,  J. Ritchie,  N. E. Schultz,  
 N. Shenvi,  A. C. Simmonett,  K. S. Thanthiriwatte,  Q. Wu,  W. Zhang

 Please cite Q-Chem as follows:
 Y. Shao et al., Mol. Phys. 113, 184-215 (2015)
 DOI: 10.1080/00268976.2014.952696

 Q-Chem 4.4.2 for Intel X86 EM64T Linux

 Parts of Q-Chem use Armadillo 5.200.1 (Boston Tea Smuggler).
 http://arma.sourceforge.net/

 Q-Chem begins on Tue May 30 10:52:42 2017  

Host: nid00478
0

     Scratch files written to /dev/shm/eg_qchem/qchem36606.0//
 Parallel job on  22  processors

Checking the input file for inconsistencies... 	...done.

--------------------------------------------------------------
User input:
--------------------------------------------------------------
$molecule
 0  1
 H           6.23254100       -0.22338900        0.17638100
 H           5.29752400        2.22850500       -0.10953100
 C           5.19733500        0.07486000        0.08356300
 C           4.68347900        1.33634400       -0.06443600
 S           3.94559900       -1.12581000        0.11905200
 C           3.26267300        1.34659400       -0.16511200
 H           2.67740100        2.24810800       -0.30841700
 C           2.69562400        0.08941900       -0.09094600
 H           1.33241900       -2.39005500       -0.68762600
 C           1.29739300       -0.28590200       -0.16150800
 C           0.73808300       -1.51455700       -0.45078400
 S           0.03601800        0.89451200        0.14982500
 C          -0.68041100       -1.51067300       -0.44936800
 H          -1.28012400       -2.38277100       -0.68510300
 C          -1.23220500       -0.27900200       -0.15852500
 C          -2.62830100        0.10383400       -0.08465000
 H          -3.31083542        0.02181862       -2.14253922
 C          -3.55065136        0.22734122       -1.10520574
 S          -3.37574258        0.49304076        1.45579472
 C          -4.84476107        0.61964299       -0.65755281
 C          -4.90831249        0.79264101        0.70013872
 H          -5.69429940        0.75821920       -1.31643290
 H          -5.75911148        1.07959423        1.30264697
$end


$rem
         jobtype = opt
        exchange = b3lyp
           basis = 6-31++g**
  max_scf_cycles = 150
      mem_static = 281
       mem_total = 2818
      sym_ignore = true
        symmetry = false
          thresh = 12
$end


$opt
CONSTRAINT
tors 13 15 16 18 -70.0
ENDCONSTRAINT
$end

--------------------------------------------------------------
 ----------------------------------------------------------------
             Standard Nuclear Orientation (Angstroms)
    I     Atom           X                Y                Z
 ----------------------------------------------------------------
    1      H       6.2325410000    -0.2233890000     0.1763810000
    2      H       5.2975240000     2.2285050000    -0.1095310000
    3      C       5.1973350000     0.0748600000     0.0835630000
    4      C       4.6834790000     1.3363440000    -0.0644360000
    5      S       3.9455990000    -1.1258100000     0.1190520000
    6      C       3.2626730000     1.3465940000    -0.1651120000
    7      H       2.6774010000     2.2481080000    -0.3084170000
    8      C       2.6956240000     0.0894190000    -0.0909460000
    9      H       1.3324190000    -2.3900550000    -0.6876260000
   10      C       1.2973930000    -0.2859020000    -0.1615080000
   11      C       0.7380830000    -1.5145570000    -0.4507840000
   12      S       0.0360180000     0.8945120000     0.1498250000
   13      C      -0.6804110000    -1.5106730000    -0.4493680000
   14      H      -1.2801240000    -2.3827710000    -0.6851030000
   15      C      -1.2322050000    -0.2790020000    -0.1585250000
   16      C      -2.6283010000     0.1038340000    -0.0846500000
   17      H      -3.3108354200     0.0218186200    -2.1425392200
   18      C      -3.5506513600     0.2273412200    -1.1052057400
   19      S      -3.3757425800     0.4930407600     1.4557947200
   20      C      -4.8447610700     0.6196429900    -0.6575528100
   21      C      -4.9083124900     0.7926410100     0.7001387200
   22      H      -5.6942994000     0.7582192000    -1.3164329000
   23      H      -5.7591114800     1.0795942300     1.3026469700
 ----------------------------------------------------------------
 Nuclear Repulsion Energy =  1175.0424352076 hartrees
 There are       64 alpha and       64 beta electrons
 Requested basis set is 6-31++G(d,p)
 There are 110 shells and 345 basis functions

 Total QAlloc Memory Limit   2818 MB
 Mega-Array Size       275 MB
 MEM_STATIC part       281 MB
 A cutoff of  1.0D-12 yielded   4676 shell pairs
 There are     47669 function pairs

 Q-Chem warning in module /project/projectdirs/jcesr/qchem/qc44/cnl_qc441/compile/cori/qc_src/libqints/qchem/aobasis.C, line 68:

 Using reconstructed effective core potential

 
 -------------------------------------------------------
 OpenMP Integral Computing Module                       
 Release: version 1.0, May 2013, Q-Chem Inc. Pittsburgh 
 -------------------------------------------------------
 Integral Job Info:
 Integral job number is                      11
 Integral operator is                         1
 short-range coefficients                     0
 long-range coefficients              100000000
 Omega coefficients                           0
 if combine SR and LR in K                    0
 Integral screening is                        0
 Integral computing path is                   2
 max size of driver memory is            800000
 size of driver memory is                593474
 size of scratch memory is             15166112
 max col of scratch BK array               1296
 max len of scratch array in speh3          155
 max len of scratch index in speh4           18
 max int batch size is                      520
 min int batch size is                       52
 fixed nKL is                                52
 max L of basis functions is                  2
 order of int derivative is                   0
 number of shells is                        110
 number of basis is                         345
 number of cartesian basis is               345
 number of contracted shell pairs          4676
 number of primitive shell pairs          14588
 maxK2 (contraction) of shell pair           36
 max number of K2 of shell pair               1
 max number of CS2 of shell pair            510
 max number of PS2 of shell pair           3018
 mem total for path MDJ                  101496
 -------------------------------------------------------
 Smallest overlap matrix eigenvalue = 9.28E-08
 Linear dependence detected in AO basis
 Number of orthogonalized atomic orbitals = 343
 Maximum deviation from orthogonality = 1.937E-10

 Scale SEOQF with 1.000000e-02/1.000000e-01/1.000000e-01

 Standard Electronic Orientation quadrupole field applied
 Nucleus-field energy     =     0.0000000070 hartrees
 Guess from superposition of atomic densities
 Warning:  Energy on first SCF cycle will be non-variational
 A restricted hybrid HF-DFT SCF calculation will be
 performed using Pulay DIIS extrapolation
 Exchange:     0.2000 Hartree-Fock + 0.0800 Slater + 0.7200 B88
 Correlation:  0.1900 VWN1RPA + 0.8100 LYP
 Using SG-1 standard quadrature grid
 SCF converges when DIIS error is below 1.0E-08
 ---------------------------------------
  Cycle       Energy         DIIS Error
 ---------------------------------------
    1   -1660.2790602560      3.67E-02
    2   -1656.4156183361      3.83E-03
    3   -1656.0604945593      5.87E-03
    4   -1656.6421277654      1.03E-03
    5   -1656.6553010197      5.75E-04
    6   -1656.6598616223      2.06E-04
    7   -1656.6605165577      7.11E-05
    8   -1656.6605934415      1.37E-05
    9   -1656.6605962891      2.93E-06
   10   -1656.6605963732      1.96E-06
   11   -1656.6605964341      3.34E-07
   12   -1656.6605964363      1.92E-07
   13   -1656.6605964371      5.61E-08
   14   -1656.6605964357      2.24E-08
   15   -1656.6605964353      5.78E-09 Convergence criterion met
 ---------------------------------------
 SCF time:  CPU 16.37 s  wall 15.14 s
 SCF   energy in the final basis set = -1656.6605964353
 Total energy in the final basis set = -1656.6605964353
 
 --------------------------------------------------------------
 
                    Orbital Energies (a.u.)
 --------------------------------------------------------------
 
 Alpha MOs
 -- Occupied --
-88.921 -88.920 -88.920 -10.241 -10.240 -10.237 -10.237 -10.226
-10.226 -10.206 -10.206 -10.206 -10.205 -10.204 -10.204  -7.980
 -7.979  -7.979  -5.945  -5.944  -5.943  -5.941  -5.940  -5.940
 -5.938  -5.937  -5.936  -0.905  -0.891  -0.875  -0.786  -0.754
 -0.745  -0.743  -0.733  -0.696  -0.616  -0.594  -0.568  -0.564
 -0.537  -0.534  -0.527  -0.499  -0.463  -0.421  -0.418  -0.417
 -0.416  -0.407  -0.404  -0.399  -0.383  -0.375  -0.369  -0.358
 -0.351  -0.345  -0.283  -0.267  -0.262  -0.259  -0.244  -0.211
 -- Virtual --
 -0.063  -0.036  -0.009  -0.006  -0.005   0.002   0.008   0.010
  0.013   0.019   0.022   0.027   0.029   0.032   0.037   0.042
  0.043   0.050   0.052   0.053   0.058   0.067   0.068   0.076
  0.084   0.085   0.093   0.098   0.100   0.103   0.108   0.110
  0.112   0.116   0.119   0.124   0.126   0.127   0.130   0.132
  0.133   0.137   0.140   0.145   0.146   0.152   0.154   0.157
  0.161   0.162   0.169   0.173   0.177   0.182   0.188   0.191
  0.196   0.197   0.200   0.208   0.210   0.216   0.217   0.220
  0.230   0.231   0.234   0.244   0.249   0.258   0.262   0.263
  0.266   0.271   0.275   0.279   0.283   0.287   0.294   0.303
  0.311   0.319   0.322   0.331   0.335   0.345   0.352   0.359
  0.364   0.371   0.381   0.399   0.401   0.450   0.459   0.461
  0.491   0.506   0.521   0.529   0.555   0.563   0.566   0.578
  0.584   0.599   0.603   0.622   0.636   0.650   0.651   0.660
  0.667   0.672   0.677   0.690   0.691   0.698   0.713   0.719
  0.725   0.727   0.738   0.753   0.766   0.773   0.781   0.788
  0.795   0.806   0.807   0.825   0.836   0.838   0.851   0.878
  0.900   0.931   0.937   0.946   0.955   0.960   0.961   0.964
  0.967   0.975   0.981   0.983   0.990   0.994   1.005   1.023
  1.026   1.038   1.045   1.056   1.072   1.079   1.099   1.104
  1.110   1.121   1.146   1.154   1.170   1.186   1.201   1.222
  1.239   1.260   1.267   1.297   1.315   1.333   1.347   1.350
  1.351   1.361   1.366   1.390   1.449   1.453   1.472   1.501
  1.520   1.526   1.547   1.571   1.607   1.685   1.693   1.724
  1.797   1.811   1.833   1.850   1.876   1.883   1.893   1.901
  1.918   1.928   1.938   1.957   1.964   2.012   2.019   2.053
  2.070   2.079   2.101   2.126   2.157   2.171   2.182   2.191
  2.220   2.238   2.247   2.254   2.266   2.294   2.331   2.364
  2.367   2.419   2.437   2.449   2.454   2.466   2.472   2.479
  2.499   2.522   2.526   2.534   2.560   2.582   2.598   2.620
  2.621   2.655   2.675   2.701   2.712   2.744   2.786   2.852
  2.871   2.887   2.904   2.944   2.954   3.137   3.172   3.209
  3.271   3.273   3.327   3.413   3.416   3.674   3.731   3.737
  3.967   3.976   3.985   4.256   4.289   4.309   4.317   4.328
  4.356   4.404   4.481   4.547   4.649   4.695   4.727
 --------------------------------------------------------------
 
          Ground-State Mulliken Net Atomic Charges

     Atom                 Charge (a.u.)
  ----------------------------------------
      1 H                     0.196554
      2 H                     0.119700
      3 C                     0.031078
      4 C                    -0.396928
      5 S                    -0.120259
      6 C                     0.532919
      7 H                     0.126747
      8 C                    -0.453297
      9 H                     0.122642
     10 C                    -0.002517
     11 C                    -0.175859
     12 S                    -0.092484
     13 C                     0.207279
     14 H                     0.129615
     15 C                    -0.337925
     16 C                    -0.444858
     17 H                     0.142858
     18 C                     0.428502
     19 S                     0.036684
     20 C                    -0.392799
     21 C                     0.026089
     22 H                     0.120780
     23 H                     0.195478
  ----------------------------------------
  Sum of atomic charges =     0.000000

 -----------------------------------------------------------------
                    Cartesian Multipole Moments
 -----------------------------------------------------------------
    Charge (ESU x 10^10)
                 0.0000
    Dipole Moment (Debye)
         X      -0.1558      Y       0.0210      Z      -0.7424
       Tot       0.7589
    Quadrupole Moments (Debye-Ang)
        XX     -89.8932     XY       0.2688     YY    -105.5865
        XZ       1.4269     YZ       1.4832     ZZ    -110.9681
    Octopole Moments (Debye-Ang^2)
       XXX     -15.2000    XXY      17.0502    XYY      10.5909
       YYY     -33.8750    XXZ      -1.9192    XYZ      -5.9814
       YYZ      -9.6392    XZZ     -33.2900    YZZ      -9.0319
       ZZZ     -19.5408
    Hexadecapole Moments (Debye-Ang^3)
      XXXX   -6241.2880   XXXY      69.2802   XXYY   -1306.7653
      XYYY     223.8944   YYYY    -679.2169   XXXZ     113.0945
      XXYZ      -2.7608   XYYZ      26.8571   YYYZ     -42.0412
      XXZZ   -1279.5260   XYZZ      40.8393   YYZZ    -199.8141
      XZZZ     116.6141   YZZZ     -48.4640   ZZZZ    -423.7581
 -----------------------------------------------------------------
 Calculating analytic gradient of the SCF energy
 Gradient of SCF Energy
            1           2           3           4           5           6
    1  -0.0000281   0.0000087   0.0001289  -0.0001787  -0.0000880   0.0003461
    2  -0.0000159  -0.0000050   0.0000912   0.0000475  -0.0002484   0.0005855
    3   0.0000188  -0.0000110  -0.0000195  -0.0000409   0.0000414   0.0001363
            7           8           9          10          11          12
    1   0.0000220  -0.0017053  -0.0000952   0.0021192  -0.0020181  -0.0018883
    2   0.0000104  -0.0002898   0.0000883  -0.0009173  -0.0006474   0.0009881
    3  -0.0000282  -0.0005088  -0.0000601  -0.0016229   0.0015524   0.0006304
           13          14          15          16          17          18
    1   0.0027653   0.0008915  -0.0093165   0.0103227  -0.0014694  -0.0022892
    2  -0.0030512  -0.0003978   0.0054510  -0.0031495  -0.0010643   0.0031565
    3   0.0021189  -0.0014520   0.0003598   0.0022017  -0.0002613  -0.0019671
           19          20          21          22          23
    1   0.0021139   0.0017147  -0.0017174   0.0000847   0.0002765
    2  -0.0001523   0.0012476  -0.0010943  -0.0001120  -0.0005209
    3   0.0005407  -0.0006350  -0.0012741   0.0000742   0.0002063
 Max gradient component =       1.032E-02
 RMS gradient           =       2.169E-03
 Gradient time:  CPU 4.69 s  wall 4.58 s
 Geometry Optimization Parameters
   NAtoms,    NIC,     NZ,  NCons,   NDum,   NFix, NCnnct, MaxDiis
       23     166       0       1       0       0       0       0


** CONSTRAINED OPTIMIZATION IN DELOCALIZED INTERNAL COORDINATES **
   Searching for a Minimum

   Optimization Cycle:   1

                       Coordinates (Angstroms)
     ATOM                X               Y               Z
      1  H         6.2325410000   -0.2233890000    0.1763810000
      2  H         5.2975240000    2.2285050000   -0.1095310000
      3  C         5.1973350000    0.0748600000    0.0835630000
      4  C         4.6834790000    1.3363440000   -0.0644360000
      5  S         3.9455990000   -1.1258100000    0.1190520000
      6  C         3.2626730000    1.3465940000   -0.1651120000
      7  H         2.6774010000    2.2481080000   -0.3084170000
      8  C         2.6956240000    0.0894190000   -0.0909460000
      9  H         1.3324190000   -2.3900550000   -0.6876260000
     10  C         1.2973930000   -0.2859020000   -0.1615080000
     11  C         0.7380830000   -1.5145570000   -0.4507840000
     12  S         0.0360180000    0.8945120000    0.1498250000
     13  C        -0.6804110000   -1.5106730000   -0.4493680000
     14  H        -1.2801240000   -2.3827710000   -0.6851030000
     15  C        -1.2322050000   -0.2790020000   -0.1585250000
     16  C        -2.6283010000    0.1038340000   -0.0846500000
     17  H        -3.3108354200    0.0218186200   -2.1425392200
     18  C        -3.5506513600    0.2273412200   -1.1052057400
     19  S        -3.3757425800    0.4930407600    1.4557947200
     20  C        -4.8447610700    0.6196429900   -0.6575528100
     21  C        -4.9083124900    0.7926410100    0.7001387200
     22  H        -5.6942994000    0.7582192000   -1.3164329000
     23  H        -5.7591114800    1.0795942300    1.3026469700
   Point Group: c1    Number of degrees of freedom:    63


   Energy is  -1656.660596435

              Constraints and their Current Values
                                        Value     Constraint
   Dihedral:       13  15  16  18      -70.000      -70.000

 Attempting to Generate Delocalized Internal Coordinates

 62 Hessian modes will be used to form the next step
  Hessian Eigenvalues:
     0.045000    0.045000    0.045000    0.045000    0.045000    0.045000
     0.045000    0.045000    0.045000    0.045001    0.045002    0.045002
     0.045003    0.045003    0.045009    0.045010    0.045011    0.045018
     0.045019    0.159886    0.159939    0.159955    0.159957    0.159992
     0.159993    0.160000    0.160000    0.221281    0.221281    0.226855
     0.237826    0.237826    0.245311    0.249998    0.249998    0.250000
     0.250000    0.293636    0.293684    0.294746    0.294936    0.312571
     0.312615    0.354732    0.354740    0.354742    0.354756    0.355161
     0.355164    0.358372    0.358373    0.383080    0.383176    0.405793
     0.405832    0.413732    0.458107    0.461989    0.461995    0.485493
     0.497291    0.497294

 Minimum Search - Taking Simple RFO Step
 Searching for Lamda that Minimizes Along All modes
 Value Taken    Lamda =  -0.00063223
 Step Taken.  Stepsize is  0.074987

                             Maximum     Tolerance    Cnvgd?
         Gradient           0.004238      0.000300      NO
         Displacement       0.030498      0.001200      NO
         Energy change     *********      0.000001      NO


 New Cartesian Coordinates Obtained by Inverse Iteration

 Displacement from previous Coordinates is:  0.171342
 ----------------------------------------------------------------
             Standard Nuclear Orientation (Angstroms)
    I     Atom           X                Y                Z
 ----------------------------------------------------------------
    1      H       6.2380163617    -0.2348436746     0.1896630408
    2      H       5.3141059936     2.2212352167    -0.0965974126
    3      C       5.2044428055     0.0676881829     0.0922688012
    4      C       4.6963999997     1.3313833092    -0.0561533275
    5      S       3.9476516004    -1.1275299955     0.1191611259
    6      C       3.2760091757     1.3472804016    -0.1643124682
    7      H       2.6949436490     2.2512758530    -0.3090937615
    8      C       2.7036417710     0.0929643562    -0.0947652838
    9      H       1.3341597320    -2.3795504887    -0.7049172048
   10      C       1.3022532791    -0.2763950195    -0.1737796368
   11      C       0.7409841419    -1.5023506504    -0.4707274660
   12      S       0.0427034773     0.9047502895     0.1300179693
   13      C      -0.6800216756    -1.4980601986    -0.4600126071
   14      H      -1.2875978824    -2.3689949893    -0.6782882546
   15      C      -1.2291551319    -0.2701078455    -0.1678531466
   16      C      -2.6404003911     0.1025694262    -0.0808388581
   17      H      -3.3132181213     0.0057592499    -2.1320049686
   18      C      -3.5631853771     0.2101365485    -1.0970412868
   19      S      -3.3881105635     0.5022658074     1.4583541123
   20      C      -4.8612182475     0.5982428150    -0.6505159184
   21      C      -4.9198808971     0.7974570016     0.7042078987
   22      H      -5.7117642115     0.7296888256    -1.3098653481
   23      H      -5.7694252880     1.0974506087     1.3027587414
 ----------------------------------------------------------------
 Nuclear Repulsion Energy =  1173.7422638577 hartrees
 There are       64 alpha and       64 beta electrons
 Applying Cartesian multipole field
    Component          Value
    ---------          -----
     (2,0,0)        1.00000E-12
     (0,2,0)        2.00000E-11
     (0,0,2)       -3.00000E-11
 Nucleus-field energy     =     0.0000000070 hartrees
 Requested basis set is 6-31++G(d,p)
 There are 110 shells and 345 basis functions
 A cutoff of  1.0D-12 yielded   4674 shell pairs
 There are     47641 function pairs

 Q-Chem warning in module /project/projectdirs/jcesr/qchem/qc44/cnl_qc441/compile/cori/qc_src/libqints/qchem/aobasis.C, line 68:

 Using reconstructed effective core potential

 Smallest overlap matrix eigenvalue = 9.44E-08
 Linear dependence detected in AO basis
 Number of orthogonalized atomic orbitals = 343
 Maximum deviation from orthogonality = 2.521E-10
 Guess MOs from SCF MO coefficient file
 Reading MOs from coefficient file
 Reading MOs from coefficient file
 A restricted hybrid HF-DFT SCF calculation will be
 performed using Pulay DIIS extrapolation
 Exchange:     0.2000 Hartree-Fock + 0.0800 Slater + 0.7200 B88
 Correlation:  0.1900 VWN1RPA + 0.8100 LYP
 Using SG-1 standard quadrature grid
 SCF converges when DIIS error is below 1.0E-08
 Geometry optimization detected.  Setting ReadMinima to 0
 Setting SaveMinima to 0
 ---------------------------------------
  Cycle       Energy         DIIS Error
 ---------------------------------------
    1   -1656.6637290848      4.71E-04
    2   -1656.6609009425      5.84E-05
    3   -1656.6607210981      1.21E-04
    4   -1656.6609614608      1.55E-05
    5   -1656.6609645643      6.78E-06
    6   -1656.6609651924      2.93E-06
    7   -1656.6609653170      9.72E-07
    8   -1656.6609653293      3.58E-07
    9   -1656.6609653330      1.09E-07
   10   -1656.6609653312      2.45E-08
   11   -1656.6609653301      1.15E-08
   12   -1656.6609653310      5.23E-09 Convergence criterion met
 ---------------------------------------
 SCF time:  CPU 13.14 s  wall 12.08 s
 SCF   energy in the final basis set = -1656.6609653310
 Total energy in the final basis set = -1656.6609653310
 
 --------------------------------------------------------------
 
                    Orbital Energies (a.u.)
 --------------------------------------------------------------
 
 Alpha MOs
 -- Occupied --
-88.921 -88.920 -88.920 -10.241 -10.240 -10.238 -10.237 -10.226
-10.226 -10.206 -10.206 -10.205 -10.205 -10.205 -10.205  -7.981
 -7.979  -7.979  -5.945  -5.944  -5.944  -5.941  -5.940  -5.940
 -5.938  -5.937  -5.936  -0.905  -0.891  -0.876  -0.785  -0.754
 -0.745  -0.743  -0.733  -0.697  -0.615  -0.593  -0.568  -0.564
 -0.537  -0.534  -0.527  -0.499  -0.463  -0.421  -0.418  -0.417
 -0.415  -0.407  -0.404  -0.399  -0.383  -0.375  -0.370  -0.358
 -0.351  -0.344  -0.283  -0.267  -0.262  -0.258  -0.245  -0.212
 -- Virtual --
 -0.063  -0.035  -0.008  -0.006  -0.005   0.002   0.008   0.010
  0.013   0.019   0.023   0.027   0.029   0.032   0.037   0.042
  0.043   0.050   0.053   0.053   0.058   0.067   0.068   0.076
  0.084   0.085   0.092   0.097   0.099   0.102   0.107   0.110
  0.112   0.116   0.119   0.124   0.126   0.127   0.130   0.132
  0.133   0.137   0.140   0.144   0.146   0.152   0.154   0.156
  0.161   0.161   0.169   0.173   0.177   0.182   0.188   0.191
  0.195   0.197   0.200   0.208   0.209   0.216   0.217   0.219
  0.230   0.231   0.234   0.245   0.249   0.257   0.261   0.263
  0.266   0.271   0.275   0.279   0.283   0.287   0.294   0.303
  0.311   0.319   0.322   0.332   0.336   0.344   0.352   0.359
  0.364   0.370   0.381   0.398   0.400   0.450   0.460   0.462
  0.490   0.505   0.521   0.529   0.555   0.562   0.565   0.578
  0.583   0.599   0.603   0.621   0.636   0.650   0.650   0.660
  0.667   0.671   0.676   0.690   0.691   0.698   0.713   0.719
  0.725   0.727   0.738   0.753   0.765   0.774   0.780   0.788
  0.795   0.805   0.806   0.825   0.835   0.838   0.851   0.878
  0.900   0.931   0.938   0.947   0.956   0.960   0.961   0.963
  0.967   0.975   0.980   0.985   0.990   0.994   1.004   1.023
  1.026   1.038   1.045   1.056   1.071   1.079   1.100   1.105
  1.110   1.121   1.145   1.153   1.170   1.185   1.200   1.219
  1.237   1.260   1.266   1.299   1.315   1.334   1.347   1.351
  1.352   1.361   1.366   1.389   1.447   1.454   1.472   1.500
  1.518   1.526   1.547   1.569   1.606   1.684   1.693   1.724
  1.792   1.809   1.830   1.854   1.874   1.882   1.891   1.899
  1.917   1.927   1.938   1.956   1.963   2.012   2.018   2.052
  2.071   2.080   2.100   2.126   2.157   2.171   2.182   2.191
  2.219   2.237   2.242   2.253   2.265   2.293   2.330   2.364
  2.367   2.419   2.437   2.449   2.453   2.467   2.472   2.477
  2.499   2.521   2.526   2.533   2.559   2.582   2.598   2.620
  2.621   2.654   2.673   2.700   2.712   2.742   2.785   2.851
  2.868   2.887   2.903   2.941   2.951   3.136   3.172   3.208
  3.270   3.272   3.326   3.413   3.415   3.673   3.730   3.737
  3.966   3.975   3.985   4.256   4.287   4.309   4.316   4.327
  4.356   4.402   4.480   4.546   4.649   4.693   4.724
 --------------------------------------------------------------
 
          Ground-State Mulliken Net Atomic Charges

     Atom                 Charge (a.u.)
  ----------------------------------------
      1 H                     0.196658
      2 H                     0.119618
      3 C                     0.032623
      4 C                    -0.398871
      5 S                    -0.118739
      6 C                     0.525804
      7 H                     0.126607
      8 C                    -0.451599
      9 H                     0.122731
     10 C                    -0.006111
     11 C                    -0.171124
     12 S                    -0.091505
     13 C                     0.200303
     14 H                     0.130380
     15 C                    -0.329594
     16 C                    -0.439078
     17 H                     0.143707
     18 C                     0.418315
     19 S                     0.037927
     20 C                    -0.392108
     21 C                     0.027012
     22 H                     0.120910
     23 H                     0.196135
  ----------------------------------------
  Sum of atomic charges =     0.000000

 -----------------------------------------------------------------
                    Cartesian Multipole Moments
 -----------------------------------------------------------------
    Charge (ESU x 10^10)
                 0.0000
    Dipole Moment (Debye)
         X      -0.1451      Y       0.0259      Z      -0.7248
       Tot       0.7396
    Quadrupole Moments (Debye-Ang)
        XX     -89.7623     XY       0.2140     YY    -105.5966
        XZ       1.4456     YZ       1.4975     ZZ    -111.0368
    Octopole Moments (Debye-Ang^2)
       XXX     -14.8989    XXY      17.1425    XYY      10.5552
       YYY     -34.2988    XXZ      -1.1706    XYZ      -6.2186
       YYZ      -9.1759    XZZ     -33.0313    YZZ      -9.2792
       ZZZ     -18.5916
    Hexadecapole Moments (Debye-Ang^3)
      XXXX   -6267.9418   XXXY      65.9734   XXYY   -1310.9501
      XYYY     223.0806   YYYY    -677.5114   XXXZ     116.1956
      XXYZ      -1.3845   XYYZ      26.7358   YYYZ     -43.9564
      XXZZ   -1286.1676   XYZZ      40.6757   YYZZ    -199.4861
      XZZZ     117.4065   YZZZ     -50.1492   ZZZZ    -424.7638
 -----------------------------------------------------------------
 Calculating analytic gradient of the SCF energy
 Gradient of SCF Energy
            1           2           3           4           5           6
    1   0.0000046   0.0000132   0.0001343  -0.0001037   0.0001188   0.0001901
    2  -0.0000019  -0.0000055   0.0000296  -0.0000567  -0.0000035   0.0001404
    3  -0.0000082  -0.0000152  -0.0000018   0.0000241   0.0000045   0.0000780
            7           8           9          10          11          12
    1   0.0000007  -0.0005792   0.0000372   0.0014910  -0.0008442  -0.0000607
    2  -0.0000255   0.0000157   0.0000010  -0.0000396   0.0001803  -0.0001391
    3  -0.0000431  -0.0001060   0.0000115  -0.0003762   0.0004054  -0.0003758
           13          14          15          16          17          18
    1   0.0007178   0.0001770  -0.0016448   0.0012237  -0.0004227   0.0001502
    2  -0.0006189   0.0001166   0.0009366  -0.0019704  -0.0007519   0.0025975
    3   0.0024025  -0.0008124  -0.0015371   0.0000759   0.0000723  -0.0001107
           19          20          21          22          23
    1  -0.0002682   0.0007142  -0.0010499  -0.0000348   0.0000356
    2  -0.0004831  -0.0000343   0.0001669  -0.0000031  -0.0000513
    3  -0.0001058   0.0001525   0.0001034   0.0000095   0.0001525
 Max gradient component =       2.597E-03
 RMS gradient           =       6.827E-04
 Gradient time:  CPU 4.58 s  wall 4.59 s
 Geometry Optimization Parameters
   NAtoms,    NIC,     NZ,  NCons,   NDum,   NFix, NCnnct, MaxDiis
       23     166       0       1       0       0       0       0

 Cartesian Hessian Update
 Hessian Updated using BFGS Update


** CONSTRAINED OPTIMIZATION IN DELOCALIZED INTERNAL COORDINATES **
   Searching for a Minimum

   Optimization Cycle:   2

                       Coordinates (Angstroms)
     ATOM                X               Y               Z
      1  H         6.2380163617   -0.2348436746    0.1896630408
      2  H         5.3141059936    2.2212352167   -0.0965974126
      3  C         5.2044428055    0.0676881829    0.0922688012
      4  C         4.6963999997    1.3313833092   -0.0561533275
      5  S         3.9476516004   -1.1275299955    0.1191611259
      6  C         3.2760091757    1.3472804016   -0.1643124682
      7  H         2.6949436490    2.2512758530   -0.3090937615
      8  C         2.7036417710    0.0929643562   -0.0947652838
      9  H         1.3341597320   -2.3795504887   -0.7049172048
     10  C         1.3022532791   -0.2763950195   -0.1737796368
     11  C         0.7409841419   -1.5023506504   -0.4707274660
     12  S         0.0427034773    0.9047502895    0.1300179693
     13  C        -0.6800216756   -1.4980601986   -0.4600126071
     14  H        -1.2875978824   -2.3689949893   -0.6782882546
     15  C        -1.2291551319   -0.2701078455   -0.1678531466
     16  C        -2.6404003911    0.1025694262   -0.0808388581
     17  H        -3.3132181213    0.0057592499   -2.1320049686
     18  C        -3.5631853771    0.2101365485   -1.0970412868
     19  S        -3.3881105635    0.5022658074    1.4583541123
     20  C        -4.8612182475    0.5982428150   -0.6505159184
     21  C        -4.9198808971    0.7974570016    0.7042078987
     22  H        -5.7117642115    0.7296888256   -1.3098653481
     23  H        -5.7694252880    1.0974506087    1.3027587414
   Point Group: c1    Number of degrees of freedom:    63


   Energy is  -1656.660965331

              Constraints and their Current Values
                                        Value     Constraint
   Dihedral:       13  15  16  18      -70.000      -70.000
 Hessian Updated using BFGS Update

 57 Hessian modes will be used to form the next step
  Hessian Eigenvalues:
     0.035514    0.045000    0.045000    0.045000    0.045000    0.045001
     0.045001    0.045002    0.045007    0.045009    0.045009    0.045015
     0.045018    0.046878    0.156584    0.159904    0.159949    0.159959
     0.159991    0.159993    0.160000    0.160100    0.219415    0.221281
     0.226189    0.228784    0.237826    0.240602    0.249974    0.249998
     0.249999    0.256272    0.293524    0.293805    0.294669    0.296609
     0.312571    0.313203    0.354734    0.354742    0.354745    0.354769
     0.355164    0.355168    0.358372    0.358393    0.383020    0.399464
     0.405831    0.409136    0.419824    0.459022    0.461573    0.464739
     0.485111    0.497266    0.498017

 Minimum Search - Taking Simple RFO Step
 Searching for Lamda that Minimizes Along All modes
 Value Taken    Lamda =  -0.00009700
 Step Taken.  Stepsize is  0.043850

                             Maximum     Tolerance    Cnvgd?
         Gradient           0.001178      0.000300      NO
         Displacement       0.015256      0.001200      NO
         Energy change     -0.000369      0.000001      NO


 New Cartesian Coordinates Obtained by Inverse Iteration

 Displacement from previous Coordinates is:  0.073359
 ----------------------------------------------------------------
             Standard Nuclear Orientation (Angstroms)
    I     Atom           X                Y                Z
 ----------------------------------------------------------------
    1      H       6.2346509283    -0.2414173098     0.1933336003
    2      H       5.3171066904     2.2175047135    -0.0897810480
    3      C       5.2019688261     0.0636673080     0.0944977905
    4      C       4.6973674413     1.3289405566    -0.0524374026
    5      S       3.9426740884    -1.1288773701     0.1167471639
    6      C       3.2771555917     1.3481081526    -0.1630732158
    7      H       2.6981882378     2.2536754936    -0.3066424705
    8      C       2.7024336936     0.0950185498    -0.0968142535
    9      H       1.3336214683    -2.3745255429    -0.7130683811
   10      C       1.2998700766    -0.2713255114    -0.1790441685
   11      C       0.7404613462    -1.4969789785    -0.4801978795
   12      S       0.0434158845     0.9118471876     0.1254393565
   13      C      -0.6808710081    -1.4922300853    -0.4652036187
   14      H      -1.2920064081    -2.3636657351    -0.6713443918
   15      C      -1.2267947970    -0.2642792054    -0.1718553356
   16      C      -2.6416469225     0.1017104651    -0.0777683530
   17      H      -3.3084571485    -0.0003542576    -2.1284804204
   18      C      -3.5639157494     0.2002403896    -1.0940940506
   19      S      -3.3843672316     0.5119782407     1.4603255380
   20      C      -4.8628521975     0.5873412333    -0.6487771102
   21      C      -4.9166616344     0.7974508251     0.7046367884
   22      H      -5.7142362354     0.7154932377    -1.3076673855
   23      H      -5.7657707409     1.1029926729     1.3009339877
 ----------------------------------------------------------------
 Nuclear Repulsion Energy =  1173.9510460673 hartrees
 There are       64 alpha and       64 beta electrons
 Applying Cartesian multipole field
    Component          Value
    ---------          -----
     (2,0,0)        1.00000E-12
     (0,2,0)        2.00000E-11
     (0,0,2)       -3.00000E-11
 Nucleus-field energy     =     0.0000000070 hartrees
 Requested basis set is 6-31++G(d,p)
 There are 110 shells and 345 basis functions
 A cutoff of  1.0D-12 yielded   4674 shell pairs
 There are     47641 function pairs

 Q-Chem warning in module /project/projectdirs/jcesr/qchem/qc44/cnl_qc441/compile/cori/qc_src/libqints/qchem/aobasis.C, line 68:

 Using reconstructed effective core potential

 Smallest overlap matrix eigenvalue = 9.36E-08
 Linear dependence detected in AO basis
 Number of orthogonalized atomic orbitals = 343
 Maximum deviation from orthogonality = 1.390E-10
 Guess MOs from SCF MO coefficient file
 Reading MOs from coefficient file
 Reading MOs from coefficient file
 A restricted hybrid HF-DFT SCF calculation will be
 performed using Pulay DIIS extrapolation
 Exchange:     0.2000 Hartree-Fock + 0.0800 Slater + 0.7200 B88
 Correlation:  0.1900 VWN1RPA + 0.8100 LYP
 Using SG-1 standard quadrature grid
 SCF converges when DIIS error is below 1.0E-08
 Geometry optimization detected.  Setting ReadMinima to 0
 Setting SaveMinima to 0
 ---------------------------------------
  Cycle       Energy         DIIS Error
 ---------------------------------------
    1   -1656.6647522142      2.39E-04
    2   -1656.6610017917      3.16E-05
    3   -1656.6609612077      5.89E-05
    4   -1656.6610204296      9.53E-06
    5   -1656.6610217145      3.07E-06
    6   -1656.6610218196      1.75E-06
    7   -1656.6610218618      5.61E-07
    8   -1656.6610218657      2.02E-07
    9   -1656.6610218689      5.90E-08
   10   -1656.6610218698      1.54E-08
   11   -1656.6610218680      6.03E-09 Convergence criterion met
 ---------------------------------------
 SCF time:  CPU 12.11 s  wall 11.16 s
 SCF   energy in the final basis set = -1656.6610218680
 Total energy in the final basis set = -1656.6610218680
 
 --------------------------------------------------------------
 
                    Orbital Energies (a.u.)
 --------------------------------------------------------------
 
 Alpha MOs
 -- Occupied --
-88.921 -88.921 -88.920 -10.241 -10.240 -10.238 -10.237 -10.226
-10.226 -10.206 -10.206 -10.205 -10.205 -10.205 -10.204  -7.980
 -7.980  -7.980  -5.945  -5.944  -5.944  -5.941  -5.940  -5.940
 -5.938  -5.937  -5.937  -0.905  -0.891  -0.876  -0.785  -0.754
 -0.745  -0.743  -0.733  -0.697  -0.615  -0.593  -0.568  -0.564
 -0.537  -0.534  -0.527  -0.499  -0.463  -0.421  -0.418  -0.417
 -0.415  -0.407  -0.403  -0.399  -0.383  -0.375  -0.370  -0.358
 -0.352  -0.345  -0.283  -0.267  -0.262  -0.258  -0.245  -0.212
 -- Virtual --
 -0.063  -0.035  -0.008  -0.006  -0.005   0.002   0.008   0.010
  0.013   0.019   0.023   0.027   0.029   0.032   0.037   0.042
  0.043   0.050   0.053   0.053   0.058   0.067   0.068   0.076
  0.084   0.085   0.092   0.098   0.099   0.102   0.107   0.110
  0.112   0.116   0.119   0.124   0.126   0.127   0.130   0.132
  0.133   0.137   0.140   0.144   0.146   0.152   0.154   0.156
  0.161   0.161   0.169   0.174   0.177   0.182   0.188   0.191
  0.195   0.197   0.200   0.208   0.209   0.216   0.217   0.219
  0.230   0.231   0.234   0.245   0.249   0.257   0.261   0.263
  0.266   0.271   0.274   0.279   0.283   0.287   0.294   0.302
  0.311   0.319   0.323   0.332   0.336   0.344   0.352   0.359
  0.364   0.370   0.381   0.398   0.401   0.450   0.460   0.462
  0.490   0.505   0.521   0.528   0.555   0.562   0.565   0.578
  0.583   0.599   0.603   0.621   0.636   0.650   0.650   0.660
  0.667   0.671   0.676   0.690   0.691   0.698   0.713   0.719
  0.725   0.727   0.738   0.753   0.765   0.774   0.780   0.788
  0.796   0.805   0.807   0.825   0.835   0.838   0.851   0.878
  0.900   0.931   0.939   0.947   0.956   0.960   0.962   0.963
  0.968   0.975   0.980   0.986   0.991   0.995   1.004   1.022
  1.025   1.038   1.044   1.056   1.071   1.079   1.099   1.104
  1.110   1.121   1.145   1.154   1.171   1.186   1.200   1.219
  1.237   1.260   1.266   1.301   1.316   1.334   1.347   1.352
  1.353   1.362   1.366   1.389   1.445   1.455   1.473   1.499
  1.515   1.527   1.547   1.568   1.606   1.684   1.692   1.724
  1.790   1.807   1.830   1.857   1.874   1.882   1.892   1.900
  1.917   1.928   1.939   1.957   1.964   2.012   2.018   2.052
  2.072   2.080   2.101   2.127   2.157   2.172   2.183   2.192
  2.220   2.238   2.241   2.252   2.265   2.293   2.330   2.364
  2.368   2.420   2.437   2.448   2.453   2.467   2.473   2.477
  2.500   2.521   2.526   2.533   2.559   2.581   2.597   2.619
  2.621   2.654   2.673   2.701   2.712   2.743   2.786   2.851
  2.868   2.887   2.903   2.940   2.949   3.136   3.172   3.208
  3.270   3.272   3.326   3.413   3.415   3.674   3.731   3.737
  3.966   3.975   3.985   4.256   4.287   4.309   4.316   4.328
  4.356   4.402   4.480   4.546   4.649   4.693   4.724
 --------------------------------------------------------------
 
          Ground-State Mulliken Net Atomic Charges

     Atom                 Charge (a.u.)
  ----------------------------------------
      1 H                     0.196565
      2 H                     0.119522
      3 C                     0.032291
      4 C                    -0.399440
      5 S                    -0.118951
      6 C                     0.522987
      7 H                     0.126289
      8 C                    -0.451472
      9 H                     0.122734
     10 C                    -0.004642
     11 C                    -0.173290
     12 S                    -0.089516
     13 C                     0.200839
     14 H                     0.130930
     15 C                    -0.327777
     16 C                    -0.431719
     17 H                     0.144128
     18 C                     0.408298
     19 S                     0.040592
     20 C                    -0.387997
     21 C                     0.022885
     22 H                     0.120968
     23 H                     0.195775
  ----------------------------------------
  Sum of atomic charges =     0.000000

 -----------------------------------------------------------------
                    Cartesian Multipole Moments
 -----------------------------------------------------------------
    Charge (ESU x 10^10)
                 0.0000
    Dipole Moment (Debye)
         X      -0.1488      Y       0.0339      Z      -0.7071
       Tot       0.7234
    Quadrupole Moments (Debye-Ang)
        XX     -89.8859     XY       0.1730     YY    -105.5629
        XZ       1.4641     YZ       1.5079     ZZ    -111.0374
    Octopole Moments (Debye-Ang^2)
       XXX     -14.7066    XXY      16.9089    XYY      10.5251
       YYY     -34.7547    XXZ      -1.0770    XYZ      -6.2295
       YYZ      -8.9378    XZZ     -32.9658    YZZ      -9.4074
       ZZZ     -18.1704
    Hexadecapole Moments (Debye-Ang^3)
      XXXX   -6267.7242   XXXY      65.2603   XXYY   -1309.5133
      XYYY     222.6350   YYYY    -677.1520   XXXZ     118.8460
      XXYZ      -1.2086   XYYZ      26.6978   YYYZ     -45.3922
      XXZZ   -1285.6098   XYZZ      40.4717   YYZZ    -199.4650
      XZZZ     117.6793   YZZZ     -51.4818   ZZZZ    -425.2666
 -----------------------------------------------------------------
 Calculating analytic gradient of the SCF energy
 Gradient of SCF Energy
            1           2           3           4           5           6
    1  -0.0000084  -0.0000065  -0.0000758  -0.0000770   0.0000527   0.0000405
    2  -0.0000069   0.0000090  -0.0000276   0.0000162  -0.0000745  -0.0000022
    3  -0.0000074  -0.0000108  -0.0000011  -0.0000003  -0.0000061   0.0000297
            7           8           9          10          11          12
    1  -0.0000056  -0.0000486  -0.0000080  -0.0000313  -0.0002143   0.0002315
    2  -0.0000044   0.0000505  -0.0001062   0.0001230   0.0000172   0.0004476
    3  -0.0000234   0.0000575   0.0000671  -0.0000262  -0.0002068  -0.0002598
           13          14          15          16          17          18
    1   0.0001124  -0.0000226   0.0008972  -0.0015196  -0.0000765   0.0005867
    2  -0.0001651   0.0000702   0.0003542  -0.0020166  -0.0003519   0.0021742
    3   0.0022152  -0.0003548  -0.0023170   0.0003677   0.0000238   0.0001233
           19          20          21          22          23
    1  -0.0001905   0.0000615   0.0002167   0.0000138   0.0000717
    2  -0.0002405  -0.0003218  -0.0000781   0.0000820   0.0000518
    3   0.0004886  -0.0001155   0.0000655  -0.0001093  -0.0000001
 Max gradient component =       2.317E-03
 RMS gradient           =       5.912E-04
 Gradient time:  CPU 4.58 s  wall 4.56 s
 Geometry Optimization Parameters
   NAtoms,    NIC,     NZ,  NCons,   NDum,   NFix, NCnnct, MaxDiis
       23     166       0       1       0       0       0       0

 Cartesian Hessian Update
 Hessian Updated using BFGS Update


** CONSTRAINED OPTIMIZATION IN DELOCALIZED INTERNAL COORDINATES **
   Searching for a Minimum

   Optimization Cycle:   3

                       Coordinates (Angstroms)
     ATOM                X               Y               Z
      1  H         6.2346509283   -0.2414173098    0.1933336003
      2  H         5.3171066904    2.2175047135   -0.0897810480
      3  C         5.2019688261    0.0636673080    0.0944977905
      4  C         4.6973674413    1.3289405566   -0.0524374026
      5  S         3.9426740884   -1.1288773701    0.1167471639
      6  C         3.2771555917    1.3481081526   -0.1630732158
      7  H         2.6981882378    2.2536754936   -0.3066424705
      8  C         2.7024336936    0.0950185498   -0.0968142535
      9  H         1.3336214683   -2.3745255429   -0.7130683811
     10  C         1.2998700766   -0.2713255114   -0.1790441685
     11  C         0.7404613462   -1.4969789785   -0.4801978795
     12  S         0.0434158845    0.9118471876    0.1254393565
     13  C        -0.6808710081   -1.4922300853   -0.4652036187
     14  H        -1.2920064081   -2.3636657351   -0.6713443918
     15  C        -1.2267947970   -0.2642792054   -0.1718553356
     16  C        -2.6416469225    0.1017104651   -0.0777683530
     17  H        -3.3084571485   -0.0003542576   -2.1284804204
     18  C        -3.5639157494    0.2002403896   -1.0940940506
     19  S        -3.3843672316    0.5119782407    1.4603255380
     20  C        -4.8628521975    0.5873412333   -0.6487771102
     21  C        -4.9166616344    0.7974508251    0.7046367884
     22  H        -5.7142362354    0.7154932377   -1.3076673855
     23  H        -5.7657707409    1.1029926729    1.3009339877
   Point Group: c1    Number of degrees of freedom:    63


   Energy is  -1656.661021868

              Constraints and their Current Values
                                        Value     Constraint
   Dihedral:       13  15  16  18      -70.000      -70.000
 Hessian Updated using BFGS Update

 54 Hessian modes will be used to form the next step
  Hessian Eigenvalues:
     0.023866    0.045000    0.045001    0.045001    0.045003    0.045007
     0.045008    0.045013    0.045016    0.045464    0.047198    0.157661
     0.159916    0.159956    0.159959    0.159993    0.159999    0.160099
     0.160442    0.221272    0.222600    0.226307    0.230059    0.237964
     0.241122    0.249991    0.249999    0.250019    0.285827    0.293017
     0.293773    0.295436    0.296354    0.312574    0.313560    0.354734
     0.354743    0.354749    0.354904    0.355164    0.355210    0.358372
     0.358582    0.383120    0.405234    0.407252    0.408927    0.422567
     0.459332    0.462142    0.473765    0.489367    0.497259    0.498489

 Minimum Search - Taking Simple RFO Step
 Searching for Lamda that Minimizes Along All modes
 Value Taken    Lamda =  -0.00002058
 Step Taken.  Stepsize is  0.025756

                             Maximum     Tolerance    Cnvgd?
         Gradient           0.000497      0.000300      NO
         Displacement       0.010149      0.001200      NO
         Energy change     -0.000057      0.000001      NO


 New Cartesian Coordinates Obtained by Inverse Iteration

 Displacement from previous Coordinates is:  0.031961
 ----------------------------------------------------------------
             Standard Nuclear Orientation (Angstroms)
    I     Atom           X                Y                Z
 ----------------------------------------------------------------
    1      H       6.2349044214    -0.2426645539     0.1943716292
    2      H       5.3184392026     2.2168811155    -0.0862495734
    3      C       5.2023951136     0.0629330616     0.0951773327
    4      C       4.6983276431     1.3285220867    -0.0505209672
    5      S       3.9423815365    -1.1289597161     0.1152743557
    6      C       3.2780005354     1.3483134305    -0.1618750433
    7      H       2.6995008280     2.2543637997    -0.3042750470
    8      C       2.7026727768     0.0954154932    -0.0974417365
    9      H       1.3341998345    -2.3728170695    -0.7165888501
   10      C       1.2996662715    -0.2704989812    -0.1806387853
   11      C       0.7406624390    -1.4956741579    -0.4837090009
   12      S       0.0430026723     0.9119033857     0.1255322836
   13      C      -0.6811938919    -1.4908113630    -0.4687913432
   14      H      -1.2928948991    -2.3631132842    -0.6692816717
   15      C      -1.2269716540    -0.2626942243    -0.1748762059
   16      C      -2.6420620489     0.1000304067    -0.0773650430
   17      H      -3.3093253565    -0.0038245801    -2.1276599084
   18      C      -3.5656905541     0.1948400702    -1.0931729016
   19      S      -3.3822380558     0.5186895894     1.4588971393
   20      C      -4.8644592579     0.5840075943    -0.6475469493
   21      C      -4.9162667427     0.7996210021     0.7049160474
   22      H      -5.7168578418     0.7101900800    -1.3053173584
   23      H      -5.7648587718     1.1076618446     1.3008063372
 ----------------------------------------------------------------
 Nuclear Repulsion Energy =  1173.9765470858 hartrees
 There are       64 alpha and       64 beta electrons
 Applying Cartesian multipole field
    Component          Value
    ---------          -----
     (2,0,0)        1.00000E-12
     (0,2,0)        2.00000E-11
     (0,0,2)       -3.00000E-11
 Nucleus-field energy     =     0.0000000070 hartrees
 Requested basis set is 6-31++G(d,p)
 There are 110 shells and 345 basis functions
 A cutoff of  1.0D-12 yielded   4674 shell pairs
 There are     47641 function pairs

 Q-Chem warning in module /project/projectdirs/jcesr/qchem/qc44/cnl_qc441/compile/cori/qc_src/libqints/qchem/aobasis.C, line 68:

 Using reconstructed effective core potential

 Smallest overlap matrix eigenvalue = 9.32E-08
 Linear dependence detected in AO basis
 Number of orthogonalized atomic orbitals = 343
 Maximum deviation from orthogonality = 1.560E-10
 Guess MOs from SCF MO coefficient file
 Reading MOs from coefficient file
 Reading MOs from coefficient file
 A restricted hybrid HF-DFT SCF calculation will be
 performed using Pulay DIIS extrapolation
 Exchange:     0.2000 Hartree-Fock + 0.0800 Slater + 0.7200 B88
 Correlation:  0.1900 VWN1RPA + 0.8100 LYP
 Using SG-1 standard quadrature grid
 SCF converges when DIIS error is below 1.0E-08
 Geometry optimization detected.  Setting ReadMinima to 0
 Setting SaveMinima to 0
 ---------------------------------------
  Cycle       Energy         DIIS Error
 ---------------------------------------
    1   -1656.6613670235      1.18E-04
    2   -1656.6610323625      1.22E-05
    3   -1656.6610239524      2.61E-05
    4   -1656.6610353159      3.06E-06
    5   -1656.6610354312      1.57E-06
    6   -1656.6610354629      7.30E-07
    7   -1656.6610354708      2.40E-07
    8   -1656.6610354744      6.33E-08
    9   -1656.6610354731      2.14E-08
   10   -1656.6610354719      6.83E-09 Convergence criterion met
 ---------------------------------------
 SCF time:  CPU 11.04 s  wall 10.14 s
 SCF   energy in the final basis set = -1656.6610354719
 Total energy in the final basis set = -1656.6610354719
 
 --------------------------------------------------------------
 
                    Orbital Energies (a.u.)
 --------------------------------------------------------------
 
 Alpha MOs
 -- Occupied --
-88.921 -88.921 -88.920 -10.241 -10.240 -10.238 -10.237 -10.226
-10.226 -10.206 -10.206 -10.205 -10.205 -10.205 -10.205  -7.980
 -7.980  -7.980  -5.945  -5.944  -5.944  -5.941  -5.940  -5.940
 -5.938  -5.937  -5.937  -0.905  -0.891  -0.876  -0.785  -0.754
 -0.745  -0.743  -0.733  -0.697  -0.615  -0.593  -0.568  -0.564
 -0.537  -0.534  -0.527  -0.499  -0.463  -0.421  -0.418  -0.417
 -0.415  -0.407  -0.403  -0.399  -0.383  -0.376  -0.370  -0.358
 -0.352  -0.345  -0.283  -0.267  -0.262  -0.258  -0.245  -0.212
 -- Virtual --
 -0.063  -0.035  -0.008  -0.006  -0.005   0.002   0.008   0.010
  0.013   0.019   0.023   0.027   0.029   0.032   0.037   0.042
  0.043   0.050   0.053   0.053   0.058   0.067   0.068   0.076
  0.084   0.085   0.092   0.098   0.099   0.102   0.107   0.110
  0.112   0.116   0.119   0.124   0.126   0.127   0.130   0.132
  0.133   0.137   0.140   0.144   0.146   0.152   0.154   0.156
  0.161   0.161   0.169   0.174   0.177   0.182   0.188   0.191
  0.195   0.197   0.200   0.208   0.209   0.216   0.217   0.219
  0.230   0.231   0.234   0.245   0.249   0.257   0.261   0.262
  0.266   0.271   0.275   0.279   0.283   0.287   0.294   0.302
  0.311   0.319   0.323   0.332   0.337   0.344   0.352   0.359
  0.364   0.370   0.381   0.398   0.400   0.450   0.460   0.462
  0.490   0.505   0.521   0.528   0.555   0.562   0.565   0.578
  0.583   0.599   0.603   0.621   0.636   0.650   0.650   0.660
  0.667   0.671   0.675   0.690   0.691   0.699   0.713   0.719
  0.725   0.727   0.738   0.753   0.765   0.774   0.780   0.788
  0.796   0.805   0.807   0.825   0.835   0.838   0.851   0.878
  0.900   0.931   0.939   0.947   0.956   0.960   0.961   0.962
  0.968   0.976   0.980   0.986   0.991   0.995   1.004   1.022
  1.025   1.038   1.044   1.056   1.071   1.079   1.099   1.104
  1.110   1.121   1.145   1.154   1.171   1.186   1.200   1.219
  1.237   1.260   1.266   1.302   1.316   1.334   1.347   1.352
  1.354   1.363   1.366   1.389   1.444   1.456   1.473   1.498
  1.513   1.528   1.547   1.568   1.605   1.684   1.692   1.724
  1.790   1.806   1.830   1.858   1.874   1.882   1.892   1.899
  1.918   1.928   1.939   1.956   1.963   2.012   2.017   2.052
  2.072   2.081   2.101   2.127   2.157   2.171   2.183   2.193
  2.220   2.239   2.241   2.252   2.265   2.293   2.330   2.364
  2.368   2.420   2.437   2.447   2.453   2.467   2.473   2.477
  2.500   2.520   2.527   2.533   2.558   2.581   2.597   2.619
  2.621   2.654   2.673   2.701   2.712   2.743   2.786   2.851
  2.868   2.886   2.903   2.940   2.948   3.136   3.171   3.208
  3.270   3.272   3.326   3.413   3.415   3.674   3.730   3.737
  3.965   3.975   3.985   4.256   4.288   4.309   4.316   4.328
  4.356   4.402   4.480   4.546   4.649   4.693   4.724
 --------------------------------------------------------------
 
          Ground-State Mulliken Net Atomic Charges

     Atom                 Charge (a.u.)
  ----------------------------------------
      1 H                     0.196608
      2 H                     0.119520
      3 C                     0.032472
      4 C                    -0.399596
      5 S                    -0.119067
      6 C                     0.520693
      7 H                     0.126224
      8 C                    -0.450407
      9 H                     0.122766
     10 C                    -0.004775
     11 C                    -0.171836
     12 S                    -0.089977
     13 C                     0.196447
     14 H                     0.131035
     15 C                    -0.323176
     16 C                    -0.424547
     17 H                     0.144198
     18 C                     0.400838
     19 S                     0.040166
     20 C                    -0.386833
     21 C                     0.022439
     22 H                     0.120977
     23 H                     0.195830
  ----------------------------------------
  Sum of atomic charges =     0.000000

 -----------------------------------------------------------------
                    Cartesian Multipole Moments
 -----------------------------------------------------------------
    Charge (ESU x 10^10)
                 0.0000
    Dipole Moment (Debye)
         X      -0.1483      Y       0.0391      Z      -0.6986
       Tot       0.7153
    Quadrupole Moments (Debye-Ang)
        XX     -89.8768     XY       0.1506     YY    -105.5578
        XZ       1.4669     YZ       1.5193     ZZ    -111.0545
    Octopole Moments (Debye-Ang^2)
       XXX     -14.7485    XXY      16.9330    XYY      10.4702
       YYY     -34.9239    XXZ      -0.9640    XYZ      -6.2434
       YYZ      -8.8017    XZZ     -32.9183    YZZ      -9.4423
       ZZZ     -17.9667
    Hexadecapole Moments (Debye-Ang^3)
      XXXX   -6267.2810   XXXY      65.1397   XXYY   -1309.3685
      XYYY     222.9375   YYYY    -677.2740   XXXZ     119.1656
      XXYZ      -1.0217   XYYZ      26.4903   YYYZ     -46.2885
      XXZZ   -1285.9486   XYZZ      40.4966   YYZZ    -199.4141
      XZZZ     117.4264   YZZZ     -52.3584   ZZZZ    -425.1747
 -----------------------------------------------------------------
 Calculating analytic gradient of the SCF energy
 Gradient of SCF Energy
            1           2           3           4           5           6
    1   0.0000068   0.0000036  -0.0000070   0.0000401   0.0000052  -0.0000250
    2   0.0000038  -0.0000049  -0.0000194   0.0000053   0.0000451  -0.0000513
    3  -0.0000005  -0.0000022   0.0000012  -0.0000066  -0.0000169   0.0000118
            7           8           9          10          11          12
    1  -0.0000033   0.0001028  -0.0000039  -0.0002892   0.0002840   0.0000912
    2  -0.0000033  -0.0000187  -0.0000240   0.0000619   0.0000318   0.0000866
    3  -0.0000071   0.0000666   0.0001088  -0.0000398  -0.0002422  -0.0001709
           13          14          15          16          17          18
    1  -0.0002246  -0.0000595   0.0007760  -0.0012466   0.0000530   0.0007461
    2  -0.0002123   0.0000544   0.0010023  -0.0024870  -0.0001037   0.0018188
    3   0.0019565  -0.0000766  -0.0026214   0.0009644   0.0000278  -0.0000732
           19          20          21          22          23
    1  -0.0001152  -0.0003216   0.0001681   0.0000422  -0.0000232
    2  -0.0000794  -0.0001452  -0.0001528   0.0001149   0.0000770
    3   0.0000451   0.0000766   0.0000453  -0.0000124  -0.0000344
 Max gradient component =       2.621E-03
 RMS gradient           =       6.080E-04
 Gradient time:  CPU 4.60 s  wall 4.57 s
 Geometry Optimization Parameters
   NAtoms,    NIC,     NZ,  NCons,   NDum,   NFix, NCnnct, MaxDiis
       23     166       0       1       0       0       0       0

 Cartesian Hessian Update
 Hessian Updated using BFGS Update


** CONSTRAINED OPTIMIZATION IN DELOCALIZED INTERNAL COORDINATES **
   Searching for a Minimum

   Optimization Cycle:   4

                       Coordinates (Angstroms)
     ATOM                X               Y               Z
      1  H         6.2349044214   -0.2426645539    0.1943716292
      2  H         5.3184392026    2.2168811155   -0.0862495734
      3  C         5.2023951136    0.0629330616    0.0951773327
      4  C         4.6983276431    1.3285220867   -0.0505209672
      5  S         3.9423815365   -1.1289597161    0.1152743557
      6  C         3.2780005354    1.3483134305   -0.1618750433
      7  H         2.6995008280    2.2543637997   -0.3042750470
      8  C         2.7026727768    0.0954154932   -0.0974417365
      9  H         1.3341998345   -2.3728170695   -0.7165888501
     10  C         1.2996662715   -0.2704989812   -0.1806387853
     11  C         0.7406624390   -1.4956741579   -0.4837090009
     12  S         0.0430026723    0.9119033857    0.1255322836
     13  C        -0.6811938919   -1.4908113630   -0.4687913432
     14  H        -1.2928948991   -2.3631132842   -0.6692816717
     15  C        -1.2269716540   -0.2626942243   -0.1748762059
     16  C        -2.6420620489    0.1000304067   -0.0773650430
     17  H        -3.3093253565   -0.0038245801   -2.1276599084
     18  C        -3.5656905541    0.1948400702   -1.0931729016
     19  S        -3.3822380558    0.5186895894    1.4588971393
     20  C        -4.8644592579    0.5840075943   -0.6475469493
     21  C        -4.9162667427    0.7996210021    0.7049160474
     22  H        -5.7168578418    0.7101900800   -1.3053173584
     23  H        -5.7648587718    1.1076618446    1.3008063372
   Point Group: c1    Number of degrees of freedom:    63


   Energy is  -1656.661035472

              Constraints and their Current Values
                                        Value     Constraint
   Dihedral:       13  15  16  18      -70.000      -70.000
 Hessian Updated using BFGS Update

 61 Hessian modes will be used to form the next step
  Hessian Eigenvalues:
     0.015683    0.044688    0.045000    0.045000    0.045000    0.045000
     0.045000    0.045000    0.045001    0.045001    0.045002    0.045003
     0.045007    0.045009    0.045013    0.045015    0.045055    0.048300
     0.159462    0.159924    0.159950    0.159958    0.159982    0.159998
     0.160101    0.161032    0.221289    0.222468    0.227094    0.236657
     0.238463    0.242470    0.249982    0.249999    0.250771    0.279922
     0.293633    0.294056    0.295187    0.295690    0.312573    0.313700
     0.354741    0.354746    0.354793    0.354839    0.355164    0.355404
     0.358372    0.358633    0.384564    0.391094    0.405917    0.409826
     0.443094    0.458439    0.461345    0.462542    0.486631    0.497271
     0.501419

 Minimum Search - Taking Simple RFO Step
 Searching for Lamda that Minimizes Along All modes
 Value Taken    Lamda =  -0.00000841
 Step Taken.  Stepsize is  0.019712

                             Maximum     Tolerance    Cnvgd?
         Gradient           0.000394      0.000300      NO
         Displacement       0.008525      0.001200      NO
         Energy change     -0.000014      0.000001      NO


 New Cartesian Coordinates Obtained by Inverse Iteration

 Displacement from previous Coordinates is:  0.031664
 ----------------------------------------------------------------
             Standard Nuclear Orientation (Angstroms)
    I     Atom           X                Y                Z
 ----------------------------------------------------------------
    1      H       6.2344816523    -0.2417077189     0.1956774650
    2      H       5.3171326500     2.2177011522    -0.0835774277
    3      C       5.2019049414     0.0635590200     0.0962500572
    4      C       4.6973850336     1.3290524817    -0.0487593028
    5      S       3.9423903153    -1.1289414496     0.1150959921
    6      C       3.2771188369     1.3483835010    -0.1606337226
    7      H       2.6983214375     2.2543394697    -0.3024253931
    8      C       2.7023659050     0.0951433608    -0.0972713108
    9      H       1.3345104961    -2.3727183286    -0.7197594239
   10      C       1.2995927114    -0.2712558957    -0.1809780613
   11      C       0.7407132852    -1.4960732706    -0.4857433783
   12      S       0.0424959652     0.9104843844     0.1262712718
   13      C      -0.6810357065    -1.4912252888    -0.4725211574
   14      H      -1.2922892093    -2.3643051328    -0.6708617109
   15      C      -1.2271533893    -0.2628896525    -0.1782537558
   16      C      -2.6416935046     0.0979937884    -0.0781392838
   17      H      -3.3124461894    -0.0083236023    -2.1278018672
   18      C      -3.5671989702     0.1907106344    -1.0930133806
   19      S      -3.3782155189     0.5240852194     1.4574696668
   20      C      -4.8643917057     0.5832211234    -0.6462738092
   21      C      -4.9135600032     0.8039394496     0.7054608562
   22      H      -5.7182290786     0.7070935328    -1.3026160175
   23      H      -5.7608657541     1.1140482523     1.3020684338
 ----------------------------------------------------------------
 Nuclear Repulsion Energy =  1174.1004293048 hartrees
 There are       64 alpha and       64 beta electrons
 Applying Cartesian multipole field
    Component          Value
    ---------          -----
     (2,0,0)        1.00000E-12
     (0,2,0)        2.00000E-11
     (0,0,2)       -3.00000E-11
 Nucleus-field energy     =     0.0000000070 hartrees
 Requested basis set is 6-31++G(d,p)
 There are 110 shells and 345 basis functions
 A cutoff of  1.0D-12 yielded   4674 shell pairs
 There are     47661 function pairs

 Q-Chem warning in module /project/projectdirs/jcesr/qchem/qc44/cnl_qc441/compile/cori/qc_src/libqints/qchem/aobasis.C, line 68:

 Using reconstructed effective core potential

 Smallest overlap matrix eigenvalue = 9.28E-08
 Linear dependence detected in AO basis
 Number of orthogonalized atomic orbitals = 343
 Maximum deviation from orthogonality = 1.684E-10
 Guess MOs from SCF MO coefficient file
 Reading MOs from coefficient file
 Reading MOs from coefficient file
 A restricted hybrid HF-DFT SCF calculation will be
 performed using Pulay DIIS extrapolation
 Exchange:     0.2000 Hartree-Fock + 0.0800 Slater + 0.7200 B88
 Correlation:  0.1900 VWN1RPA + 0.8100 LYP
 Using SG-1 standard quadrature grid
 SCF converges when DIIS error is below 1.0E-08
 Geometry optimization detected.  Setting ReadMinima to 0
 Setting SaveMinima to 0
 ---------------------------------------
  Cycle       Energy         DIIS Error
 ---------------------------------------
    1   -1656.6611135460      9.78E-05
    2   -1656.6610372953      1.37E-05
    3   -1656.6610250705      3.08E-05
    4   -1656.6610407311      3.25E-06
    5   -1656.6610408826      1.32E-06
    6   -1656.6610409041      6.04E-07
    7   -1656.6610409108      1.91E-07
    8   -1656.6610409125      6.11E-08
    9   -1656.6610409113      2.22E-08
   10   -1656.6610409100      6.16E-09 Convergence criterion met
 ---------------------------------------
 SCF time:  CPU 10.93 s  wall 10.17 s
 SCF   energy in the final basis set = -1656.6610409100
 Total energy in the final basis set = -1656.6610409100
 
 --------------------------------------------------------------
 
                    Orbital Energies (a.u.)
 --------------------------------------------------------------
 
 Alpha MOs
 -- Occupied --
-88.921 -88.921 -88.920 -10.241 -10.240 -10.238 -10.237 -10.226
-10.226 -10.206 -10.206 -10.205 -10.205 -10.205 -10.205  -7.980
 -7.980  -7.980  -5.945  -5.944  -5.944  -5.941  -5.940  -5.940
 -5.938  -5.937  -5.937  -0.905  -0.891  -0.876  -0.785  -0.754
 -0.745  -0.743  -0.733  -0.697  -0.615  -0.593  -0.568  -0.564
 -0.537  -0.534  -0.527  -0.499  -0.463  -0.421  -0.418  -0.417
 -0.415  -0.407  -0.403  -0.399  -0.383  -0.376  -0.370  -0.358
 -0.352  -0.345  -0.283  -0.267  -0.262  -0.258  -0.245  -0.212
 -- Virtual --
 -0.063  -0.035  -0.008  -0.006  -0.005   0.002   0.008   0.010
  0.013   0.019   0.023   0.027   0.029   0.032   0.037   0.042
  0.043   0.050   0.053   0.053   0.058   0.067   0.068   0.076
  0.084   0.085   0.092   0.098   0.099   0.102   0.107   0.110
  0.112   0.116   0.119   0.124   0.126   0.127   0.130   0.132
  0.133   0.137   0.140   0.145   0.146   0.152   0.154   0.156
  0.161   0.161   0.169   0.174   0.177   0.182   0.188   0.191
  0.194   0.197   0.200   0.208   0.209   0.216   0.217   0.219
  0.230   0.231   0.234   0.245   0.249   0.257   0.261   0.263
  0.266   0.271   0.275   0.279   0.283   0.287   0.294   0.302
  0.311   0.319   0.323   0.332   0.337   0.344   0.352   0.359
  0.364   0.370   0.381   0.398   0.400   0.450   0.460   0.462
  0.490   0.506   0.521   0.528   0.555   0.562   0.565   0.578
  0.583   0.599   0.603   0.621   0.635   0.650   0.650   0.660
  0.667   0.671   0.675   0.689   0.691   0.699   0.713   0.719
  0.725   0.727   0.738   0.753   0.765   0.773   0.780   0.788
  0.796   0.804   0.807   0.825   0.835   0.838   0.851   0.878
  0.900   0.931   0.939   0.948   0.956   0.960   0.961   0.962
  0.968   0.976   0.980   0.986   0.991   0.995   1.004   1.022
  1.026   1.038   1.044   1.057   1.071   1.079   1.099   1.104
  1.110   1.121   1.145   1.154   1.171   1.186   1.200   1.219
  1.237   1.261   1.266   1.302   1.315   1.333   1.347   1.352
  1.354   1.363   1.366   1.389   1.444   1.456   1.473   1.498
  1.512   1.528   1.547   1.569   1.605   1.684   1.692   1.724
  1.791   1.804   1.830   1.859   1.874   1.882   1.892   1.900
  1.918   1.929   1.939   1.956   1.963   2.012   2.017   2.051
  2.072   2.081   2.101   2.127   2.157   2.171   2.183   2.193
  2.220   2.239   2.240   2.252   2.266   2.294   2.330   2.364
  2.368   2.420   2.437   2.447   2.453   2.467   2.473   2.477
  2.500   2.520   2.527   2.533   2.558   2.582   2.597   2.618
  2.621   2.654   2.673   2.701   2.712   2.743   2.787   2.851
  2.868   2.886   2.903   2.940   2.948   3.136   3.171   3.208
  3.270   3.273   3.326   3.413   3.415   3.674   3.730   3.737
  3.965   3.975   3.985   4.256   4.288   4.309   4.316   4.328
  4.356   4.402   4.480   4.546   4.649   4.693   4.724
 --------------------------------------------------------------
 
          Ground-State Mulliken Net Atomic Charges

     Atom                 Charge (a.u.)
  ----------------------------------------
      1 H                     0.196597
      2 H                     0.119525
      3 C                     0.032231
      4 C                    -0.399152
      5 S                    -0.118902
      6 C                     0.519095
      7 H                     0.126184
      8 C                    -0.450002
      9 H                     0.122867
     10 C                    -0.005513
     11 C                    -0.168201
     12 S                    -0.091800
     13 C                     0.192115
     14 H                     0.131024
     15 C                    -0.320036
     16 C                    -0.418146
     17 H                     0.144215
     18 C                     0.394800
     19 S                     0.039790
     20 C                    -0.385095
     21 C                     0.021567
     22 H                     0.120972
     23 H                     0.195865
  ----------------------------------------
  Sum of atomic charges =     0.000000

 -----------------------------------------------------------------
                    Cartesian Multipole Moments
 -----------------------------------------------------------------
    Charge (ESU x 10^10)
                 0.0000
    Dipole Moment (Debye)
         X      -0.1487      Y       0.0409      Z      -0.6935
       Tot       0.7104
    Quadrupole Moments (Debye-Ang)
        XX     -89.8868     XY       0.1442     YY    -105.5491
        XZ       1.4683     YZ       1.5404     ZZ    -111.0560
    Octopole Moments (Debye-Ang^2)
       XXX     -14.8493    XXY      16.9279    XYY      10.3937
       YYY     -35.0172    XXZ      -0.9114    XYZ      -6.2907
       YYZ      -8.7306    XZZ     -32.9400    YZZ      -9.4676
       ZZZ     -17.8601
    Hexadecapole Moments (Debye-Ang^3)
      XXXX   -6264.8557   XXXY      65.6083   XXYY   -1308.6737
      XYYY     223.4394   YYYY    -677.8297   XXXZ     119.0100
      XXYZ      -0.7853   XYYZ      26.1144   YYYZ     -47.0058
      XXZZ   -1285.4095   XYZZ      40.6096   YYZZ    -199.4250
      XZZZ     116.6194   YZZZ     -53.0794   ZZZZ    -425.0841
 -----------------------------------------------------------------
 Calculating analytic gradient of the SCF energy
 Gradient of SCF Energy
            1           2           3           4           5           6
    1  -0.0000006  -0.0000018  -0.0000144   0.0000192  -0.0000173  -0.0000263
    2   0.0000006  -0.0000018  -0.0000098   0.0000128   0.0000041  -0.0000240
    3   0.0000030   0.0000000  -0.0000038  -0.0000136  -0.0000074  -0.0000021
            7           8           9          10          11          12
    1   0.0000016   0.0001264  -0.0000072  -0.0001896   0.0002116  -0.0000074
    2   0.0000074  -0.0000199   0.0000011   0.0000321   0.0000288  -0.0000549
    3   0.0000037   0.0000434   0.0000833  -0.0000687  -0.0001115  -0.0000586
           13          14          15          16          17          18
    1  -0.0001590  -0.0000228   0.0003479  -0.0007450   0.0000427   0.0005371
    2  -0.0004266   0.0000040   0.0016566  -0.0028678   0.0000395   0.0016858
    3   0.0017498   0.0000665  -0.0028187   0.0014466   0.0000038  -0.0003128
           19          20          21          22          23
    1  -0.0000039  -0.0001772   0.0000766   0.0000303  -0.0000211
    2  -0.0000294  -0.0000635  -0.0000983   0.0000730   0.0000501
    3  -0.0000600   0.0000644   0.0000155   0.0000089  -0.0000318
 Max gradient component =       2.868E-03
 RMS gradient           =       6.415E-04
 Gradient time:  CPU 4.66 s  wall 4.57 s
 Geometry Optimization Parameters
   NAtoms,    NIC,     NZ,  NCons,   NDum,   NFix, NCnnct, MaxDiis
       23     166       0       1       0       0       0       0

 Cartesian Hessian Update
 Hessian Updated using BFGS Update


** CONSTRAINED OPTIMIZATION IN DELOCALIZED INTERNAL COORDINATES **
   Searching for a Minimum

   Optimization Cycle:   5

                       Coordinates (Angstroms)
     ATOM                X               Y               Z
      1  H         6.2344816523   -0.2417077189    0.1956774650
      2  H         5.3171326500    2.2177011522   -0.0835774277
      3  C         5.2019049414    0.0635590200    0.0962500572
      4  C         4.6973850336    1.3290524817   -0.0487593028
      5  S         3.9423903153   -1.1289414496    0.1150959921
      6  C         3.2771188369    1.3483835010   -0.1606337226
      7  H         2.6983214375    2.2543394697   -0.3024253931
      8  C         2.7023659050    0.0951433608   -0.0972713108
      9  H         1.3345104961   -2.3727183286   -0.7197594239
     10  C         1.2995927114   -0.2712558957   -0.1809780613
     11  C         0.7407132852   -1.4960732706   -0.4857433783
     12  S         0.0424959652    0.9104843844    0.1262712718
     13  C        -0.6810357065   -1.4912252888   -0.4725211574
     14  H        -1.2922892093   -2.3643051328   -0.6708617109
     15  C        -1.2271533893   -0.2628896525   -0.1782537558
     16  C        -2.6416935046    0.0979937884   -0.0781392838
     17  H        -3.3124461894   -0.0083236023   -2.1278018672
     18  C        -3.5671989702    0.1907106344   -1.0930133806
     19  S        -3.3782155189    0.5240852194    1.4574696668
     20  C        -4.8643917057    0.5832211234   -0.6462738092
     21  C        -4.9135600032    0.8039394496    0.7054608562
     22  H        -5.7182290786    0.7070935328   -1.3026160175
     23  H        -5.7608657541    1.1140482523    1.3020684338
   Point Group: c1    Number of degrees of freedom:    63


   Energy is  -1656.661040910

              Constraints and their Current Values
                                        Value     Constraint
   Dihedral:       13  15  16  18      -70.000      -70.000
 Hessian Updated using BFGS Update

 61 Hessian modes will be used to form the next step
  Hessian Eigenvalues:
     0.012056    0.040700    0.045000    0.045000    0.045000    0.045000
     0.045000    0.045000    0.045001    0.045002    0.045003    0.045005
     0.045008    0.045009    0.045013    0.045015    0.045564    0.048595
     0.157130    0.159920    0.159957    0.159963    0.159998    0.160009
     0.160172    0.160679    0.221292    0.222381    0.226951    0.233602
     0.238608    0.242389    0.249722    0.249999    0.250116    0.276508
     0.293566    0.294047    0.295383    0.297897    0.312594    0.313697
     0.354725    0.354745    0.354762    0.354886    0.355164    0.355408
     0.358375    0.358649    0.384180    0.403372    0.406073    0.410254
     0.437285    0.459481    0.462428    0.470158    0.484496    0.497264
     0.499679

 Minimum Search - Taking Simple RFO Step
 Searching for Lamda that Minimizes Along All modes
 Value Taken    Lamda =  -0.00000271
 Step Taken.  Stepsize is  0.011797

                             Maximum     Tolerance    Cnvgd?
         Gradient           0.000150      0.000300     YES
         Displacement       0.004851      0.001200      NO
         Energy change     -0.000005      0.000001      NO


 New Cartesian Coordinates Obtained by Inverse Iteration

 Displacement from previous Coordinates is:  0.026254
 ----------------------------------------------------------------
             Standard Nuclear Orientation (Angstroms)
    I     Atom           X                Y                Z
 ----------------------------------------------------------------
    1      H       6.2344580967    -0.2404074440     0.1973249362
    2      H       5.3159937956     2.2185555931    -0.0821077269
    3      C       5.2017670504     0.0643866986     0.0976218960
    4      C       4.6966453276     1.3296181001    -0.0474774043
    5      S       3.9427721881    -1.1286984917     0.1159635079
    6      C       3.2764077201     1.3483128145    -0.1598441281
    7      H       2.6972394771     2.2539889192    -0.3018221788
[...]
    6   -1656.6610433945      3.32E-07
    7   -1656.6610433973      1.00E-07
    8   -1656.6610433987      3.80E-08
    9   -1656.6610433981      1.27E-08
   10   -1656.6610433972      3.54E-09 Convergence criterion met
 ---------------------------------------
 SCF time:  CPU 10.95 s  wall 10.03 s
 SCF   energy in the final basis set = -1656.6610433972
 Total energy in the final basis set = -1656.6610433972
 
 --------------------------------------------------------------
 
                    Orbital Energies (a.u.)
 --------------------------------------------------------------
 
 Alpha MOs
 -- Occupied --
-88.921 -88.921 -88.920 -10.241 -10.240 -10.238 -10.237 -10.226
-10.226 -10.206 -10.206 -10.205 -10.205 -10.205 -10.205  -7.980
 -7.980  -7.980  -5.945  -5.944  -5.944  -5.941  -5.940  -5.940
 -5.938  -5.937  -5.937  -0.905  -0.891  -0.876  -0.785  -0.754
 -0.745  -0.743  -0.733  -0.697  -0.615  -0.593  -0.568  -0.564
 -0.537  -0.534  -0.527  -0.499  -0.463  -0.422  -0.418  -0.417
 -0.415  -0.407  -0.403  -0.399  -0.383  -0.376  -0.370  -0.358
 -0.352  -0.345  -0.283  -0.267  -0.262  -0.259  -0.245  -0.211
 -- Virtual --
 -0.063  -0.035  -0.008  -0.006  -0.005   0.002   0.008   0.010
  0.013   0.019   0.023   0.027   0.029   0.032   0.037   0.042
  0.043   0.050   0.052   0.053   0.058   0.067   0.068   0.076
  0.084   0.085   0.092   0.098   0.099   0.102   0.107   0.110
  0.112   0.116   0.119   0.124   0.126   0.127   0.130   0.132
  0.133   0.137   0.140   0.145   0.146   0.152   0.154   0.156
  0.161   0.161   0.169   0.174   0.177   0.182   0.188   0.191
  0.194   0.197   0.200   0.208   0.209   0.216   0.217   0.219
  0.230   0.231   0.234   0.245   0.248   0.258   0.261   0.263
  0.266   0.271   0.275   0.279   0.283   0.287   0.294   0.302
  0.311   0.319   0.323   0.332   0.337   0.344   0.352   0.359
  0.364   0.370   0.381   0.398   0.400   0.450   0.460   0.462
  0.490   0.506   0.521   0.528   0.555   0.561   0.565   0.578
  0.583   0.599   0.603   0.621   0.635   0.649   0.650   0.660
  0.667   0.671   0.675   0.689   0.691   0.699   0.713   0.719
  0.725   0.727   0.738   0.753   0.765   0.773   0.780   0.788
  0.796   0.804   0.807   0.825   0.835   0.838   0.851   0.878
  0.900   0.931   0.939   0.948   0.956   0.960   0.961   0.962
  0.967   0.976   0.980   0.986   0.991   0.995   1.004   1.022
  1.026   1.038   1.044   1.057   1.071   1.079   1.099   1.104
  1.110   1.121   1.145   1.154   1.171   1.186   1.199   1.219
  1.236   1.261   1.266   1.302   1.316   1.333   1.347   1.352
  1.354   1.363   1.366   1.389   1.443   1.456   1.473   1.498
  1.512   1.529   1.547   1.570   1.604   1.684   1.692   1.724
  1.791   1.803   1.830   1.859   1.874   1.882   1.892   1.900
  1.917   1.929   1.939   1.956   1.963   2.012   2.017   2.051
  2.071   2.081   2.101   2.127   2.157   2.171   2.183   2.193
  2.220   2.239   2.240   2.252   2.266   2.293   2.330   2.364
  2.368   2.420   2.437   2.447   2.453   2.467   2.473   2.477
  2.500   2.520   2.527   2.533   2.558   2.582   2.597   2.619
  2.622   2.654   2.673   2.701   2.712   2.743   2.787   2.851
  2.868   2.886   2.903   2.940   2.948   3.136   3.171   3.208
  3.270   3.273   3.326   3.413   3.415   3.674   3.731   3.737
  3.965   3.976   3.985   4.256   4.288   4.309   4.316   4.328
  4.356   4.402   4.480   4.546   4.649   4.693   4.724
 --------------------------------------------------------------
 
          Ground-State Mulliken Net Atomic Charges

     Atom                 Charge (a.u.)
  ----------------------------------------
      1 H                     0.196591
      2 H                     0.119532
      3 C                     0.032275
      4 C                    -0.398905
      5 S                    -0.118724
      6 C                     0.518290
      7 H                     0.126168
      8 C                    -0.450547
      9 H                     0.123141
     10 C                    -0.007889
     11 C                    -0.160739
     12 S                    -0.094793
     13 C                     0.186735
     14 H                     0.130960
     15 C                    -0.317223
     16 C                    -0.412015
     17 H                     0.144187
     18 C                     0.389039
     19 S                     0.038953
     20 C                    -0.382575
     21 C                     0.020581
     22 H                     0.120990
     23 H                     0.195968
  ----------------------------------------
  Sum of atomic charges =     0.000000

 -----------------------------------------------------------------
                    Cartesian Multipole Moments
 -----------------------------------------------------------------
    Charge (ESU x 10^10)
                 0.0000
    Dipole Moment (Debye)
         X      -0.1501      Y       0.0396      Z      -0.6932
       Tot       0.7103
    Quadrupole Moments (Debye-Ang)
        XX     -89.8832     XY       0.1516     YY    -105.5455
        XZ       1.4701     YZ       1.5766     ZZ    -111.0515
    Octopole Moments (Debye-Ang^2)
       XXX     -15.0203    XXY      16.8956    XYY      10.2882
       YYY     -35.1163    XXZ      -0.8795    XYZ      -6.4040
       YYZ      -8.7179    XZZ     -32.9910    YZZ      -9.5294
       ZZZ     -17.8118
    Hexadecapole Moments (Debye-Ang^3)
      XXXX   -6261.9849   XXXY      66.6111   XXYY   -1308.0312
      XYYY     224.1898   YYYY    -678.7596   XXXZ     118.3632
      XXYZ      -0.4457   XYYZ      25.4671   YYYZ     -47.6697
      XXZZ   -1284.7074   XYZZ      40.8548   YYZZ    -199.4357
      XZZZ     115.0380   YZZZ     -53.7281   ZZZZ    -425.0137
 -----------------------------------------------------------------
 Calculating analytic gradient of the SCF energy
 Gradient of SCF Energy
            1           2           3           4           5           6
    1  -0.0000020   0.0000007   0.0000033  -0.0000047  -0.0000038   0.0000029
    2  -0.0000026  -0.0000005   0.0000069  -0.0000030  -0.0000091   0.0000095
    3   0.0000007  -0.0000054  -0.0000004  -0.0000035  -0.0000070  -0.0000004
            7           8           9          10          11          12
    1   0.0000025  -0.0000151   0.0000005   0.0000535  -0.0000577  -0.0000233
    2   0.0000002  -0.0000087  -0.0000008   0.0000014  -0.0000076  -0.0000259
    3  -0.0000003   0.0000004  -0.0000038  -0.0000164   0.0000480  -0.0000131
           13          14          15          16          17          18
    1   0.0000671   0.0000080   0.0001448  -0.0006001   0.0000000   0.0003862
    2  -0.0004685  -0.0000151   0.0018501  -0.0031796   0.0000420   0.0017984
    3   0.0017990   0.0000522  -0.0030708   0.0015421  -0.0000051  -0.0002749
           19          20          21          22          23
    1   0.0000160   0.0000611  -0.0000367  -0.0000084   0.0000053
    2  -0.0000087   0.0000148   0.0000228  -0.0000150  -0.0000009
    3  -0.0000320  -0.0000190   0.0000040   0.0000034   0.0000023
 Max gradient component =       3.180E-03
 RMS gradient           =       6.880E-04
 Gradient time:  CPU 4.66 s  wall 4.56 s
 Geometry Optimization Parameters
   NAtoms,    NIC,     NZ,  NCons,   NDum,   NFix, NCnnct, MaxDiis
       23     166       0       1       0       0       0       0

 Cartesian Hessian Update
 Hessian Updated using BFGS Update


** CONSTRAINED OPTIMIZATION IN DELOCALIZED INTERNAL COORDINATES **
   Searching for a Minimum

   Optimization Cycle:   7

                       Coordinates (Angstroms)
     ATOM                X               Y               Z
      1  H         6.2343141250   -0.2396267297    0.1988970831
      2  H         5.3153282132    2.2190505468   -0.0813865197
      3  C         5.2015733150    0.0648895782    0.0988985994
      4  C         4.6961853585    1.3299706043   -0.0466324396
      5  S         3.9429143230   -1.1285467662    0.1171534139
      6  C         3.2760118909    1.3482969047   -0.1594323121
      7  H         2.6966584548    2.2537721670   -0.3019325981
      8  C         2.7020596097    0.0946254165   -0.0962470726
      9  H         1.3354535964   -2.3730356097   -0.7240935745
     10  C         1.2998069895   -0.2727653890   -0.1806345879
     11  C         0.7412562112   -1.4972367989   -0.4877344172
     12  S         0.0418456865    0.9083971861    0.1261960898
     13  C        -0.6802173112   -1.4925721243   -0.4770594478
     14  H        -1.2906088604   -2.3658549940   -0.6771928158
     15  C        -1.2273317470   -0.2644924829   -0.1828857655
     16  C        -2.6416204292    0.0955453684   -0.0802887610
     17  H        -3.3188096379   -0.0160417351   -2.1278596390
     18  C        -3.5698664966    0.1869564748   -1.0929313083
     19  S        -3.3730224520    0.5299353460    1.4556173065
     20  C        -4.8647695275    0.5838120293   -0.6442132242
     21  C        -4.9099530374    0.8102316067    0.7067586609
     22  H        -5.7207055712    0.7045145882   -1.2984803163
     23  H        -5.7551685032    1.1224898429    1.3051483861
   Point Group: c1    Number of degrees of freedom:    63


   Energy is  -1656.661043397

              Constraints and their Current Values
                                        Value     Constraint
   Dihedral:       13  15  16  18      -70.000      -70.000
 Hessian Updated using BFGS Update

 62 Hessian modes will be used to form the next step
  Hessian Eigenvalues:
     0.009656    0.024979    0.045000    0.045000    0.045000    0.045000
     0.045000    0.045000    0.045001    0.045002    0.045003    0.045006
     0.045008    0.045010    0.045012    0.045019    0.045155    0.045640
     0.047350    0.159310    0.159929    0.159965    0.159990    0.160004
     0.160020    0.160155    0.160614    0.221439    0.222606    0.227148
     0.227931    0.238847    0.242969    0.249968    0.250007    0.251225
     0.283021    0.291942    0.293680    0.294763    0.295411    0.312609
     0.313677    0.354741    0.354755    0.354848    0.354870    0.355167
     0.355433    0.358387    0.358636    0.384445    0.398932    0.406500
     0.410148    0.442758    0.459127    0.462462    0.464482    0.487551
     0.497408    0.502492

 Minimum Search - Taking Simple RFO Step
 Searching for Lamda that Minimizes Along All modes
 Value Taken    Lamda =   0.00000000
 Step Taken.  Stepsize is  0.003321

                             Maximum     Tolerance    Cnvgd?
         Gradient           0.000068      0.000300     YES
         Displacement       0.001841      0.001200      NO
         Energy change     -0.000001      0.000001     YES

 Final energy is   -1656.66104339721     


 ******************************
 **  OPTIMIZATION CONVERGED  **
 ******************************

                       Coordinates (Angstroms)
     ATOM                X               Y               Z
      1  H         6.2343141250   -0.2396267297    0.1988970831
      2  H         5.3153282132    2.2190505468   -0.0813865197
      3  C         5.2015733150    0.0648895782    0.0988985994
      4  C         4.6961853585    1.3299706043   -0.0466324396
      5  S         3.9429143230   -1.1285467662    0.1171534139
      6  C         3.2760118909    1.3482969047   -0.1594323121
      7  H         2.6966584548    2.2537721670   -0.3019325981
      8  C         2.7020596097    0.0946254165   -0.0962470726
      9  H         1.3354535964   -2.3730356097   -0.7240935745
     10  C         1.2998069895   -0.2727653890   -0.1806345879
     11  C         0.7412562112   -1.4972367989   -0.4877344172
     12  S         0.0418456865    0.9083971861    0.1261960898
     13  C        -0.6802173112   -1.4925721243   -0.4770594478
     14  H        -1.2906088604   -2.3658549940   -0.6771928158
     15  C        -1.2273317470   -0.2644924829   -0.1828857655
     16  C        -2.6416204292    0.0955453684   -0.0802887610
     17  H        -3.3188096379   -0.0160417351   -2.1278596390
     18  C        -3.5698664966    0.1869564748   -1.0929313083
     19  S        -3.3730224520    0.5299353460    1.4556173065
     20  C        -4.8647695275    0.5838120293   -0.6442132242
     21  C        -4.9099530374    0.8102316067    0.7067586609
     22  H        -5.7207055712    0.7045145882   -1.2984803163
     23  H        -5.7551685032    1.1224898429    1.3051483861

Z-matrix Print:
$molecule
0 1
S 
C  1 1.752643
C  2 1.380442 1 110.262349
H  3 1.084417 2 122.898582 1 179.338248 0
C  3 1.421521 2 113.579585 1 -0.047412 0
H  5 1.084091 3 123.986376 2 -178.920529 0
C  5 1.376246 3 113.707103 2 0.935404 0
C  2 1.452036 1 120.827267 3 179.978805 0
C  8 1.380256 2 128.956206 1 -19.911873 0
H  9 1.084363 8 122.839987 2 -0.873173 0
C  9 1.424764 8 113.527132 2 -179.684454 0
H  11 1.083978 9 123.796705 8 179.585853 0
C  11 1.370046 9 112.829018 8 0.142670 0
H  13 1.081334 11 128.474504 9 179.568814 0
C  7 1.462999 5 128.235583 3 -179.616182 0
C  15 1.376750 7 128.063906 5 -70.000000 0
H  16 1.084119 15 122.248235 7 0.161303 0
C  16 1.426750 15 113.519729 7 -179.172704 0
H  18 1.084095 16 123.899638 15 -179.753840 0
C  18 1.370559 16 112.698456 15 0.841290 0
H  20 1.081649 18 128.226104 16 179.703514 0
S  20 1.732487 18 111.721395 16 -0.452512 0
S  13 1.734603 11 111.638812 9 -0.597695 0
$end

 
 --------------------------------------------------------------
 
                    Orbital Energies (a.u.)
 --------------------------------------------------------------
 
 Alpha MOs
 -- Occupied --
-88.921 -88.921 -88.920 -10.241 -10.240 -10.238 -10.237 -10.226
-10.226 -10.206 -10.206 -10.205 -10.205 -10.205 -10.205  -7.980
 -7.980  -7.980  -5.945  -5.944  -5.944  -5.941  -5.940  -5.940
 -5.938  -5.937  -5.937  -0.905  -0.891  -0.876  -0.785  -0.754
 -0.745  -0.743  -0.733  -0.697  -0.615  -0.593  -0.568  -0.564
 -0.537  -0.534  -0.527  -0.499  -0.463  -0.422  -0.418  -0.417
 -0.415  -0.407  -0.403  -0.399  -0.383  -0.376  -0.370  -0.358
 -0.352  -0.345  -0.283  -0.267  -0.262  -0.259  -0.245  -0.211
 -- Virtual --
 -0.063  -0.035  -0.008  -0.006  -0.005   0.002   0.008   0.010
  0.013   0.019   0.023   0.027   0.029   0.032   0.037   0.042
  0.043   0.050   0.052   0.053   0.058   0.067   0.068   0.076
  0.084   0.085   0.092   0.098   0.099   0.102   0.107   0.110
  0.112   0.116   0.119   0.124   0.126   0.127   0.130   0.132
  0.133   0.137   0.140   0.145   0.146   0.152   0.154   0.156
  0.161   0.161   0.169   0.174   0.177   0.182   0.188   0.191
  0.194   0.197   0.200   0.208   0.209   0.216   0.217   0.219
  0.230   0.231   0.234   0.245   0.248   0.258   0.261   0.263
  0.266   0.271   0.275   0.279   0.283   0.287   0.294   0.302
  0.311   0.319   0.323   0.332   0.337   0.344   0.352   0.359
  0.364   0.370   0.381   0.398   0.400   0.450   0.460   0.462
  0.490   0.506   0.521   0.528   0.555   0.561   0.565   0.578
  0.583   0.599   0.603   0.621   0.635   0.649   0.650   0.660
  0.667   0.671   0.675   0.689   0.691   0.699   0.713   0.719
  0.725   0.727   0.738   0.753   0.765   0.773   0.780   0.788
  0.796   0.804   0.807   0.825   0.835   0.838   0.851   0.878
  0.900   0.931   0.939   0.948   0.956   0.960   0.961   0.962
  0.967   0.976   0.980   0.986   0.991   0.995   1.004   1.022
  1.026   1.038   1.044   1.057   1.071   1.079   1.099   1.104
  1.110   1.121   1.145   1.154   1.171   1.186   1.199   1.219
  1.236   1.261   1.266   1.302   1.316   1.333   1.347   1.352
  1.354   1.363   1.366   1.389   1.443   1.456   1.473   1.498
  1.512   1.529   1.547   1.570   1.604   1.684   1.692   1.724
  1.791   1.803   1.830   1.859   1.874   1.882   1.892   1.900
  1.917   1.929   1.939   1.956   1.963   2.012   2.017   2.051
  2.071   2.081   2.101   2.127   2.157   2.171   2.183   2.193
  2.220   2.239   2.240   2.252   2.266   2.293   2.330   2.364
  2.368   2.420   2.437   2.447   2.453   2.467   2.473   2.477
  2.500   2.520   2.527   2.533   2.558   2.582   2.597   2.619
  2.622   2.654   2.673   2.701   2.712   2.743   2.787   2.851
  2.868   2.886   2.903   2.940   2.948   3.136   3.171   3.208
  3.270   3.273   3.326   3.413   3.415   3.674   3.731   3.737
  3.965   3.976   3.985   4.256   4.288   4.309   4.316   4.328
  4.356   4.402   4.480   4.546   4.649   4.693   4.724
 --------------------------------------------------------------
 
          Ground-State Mulliken Net Atomic Charges

     Atom                 Charge (a.u.)
  ----------------------------------------
      1 H                     0.196591
      2 H                     0.119532
      3 C                     0.032275
      4 C                    -0.398905
      5 S                    -0.118724
      6 C                     0.518290
      7 H                     0.126168
      8 C                    -0.450547
      9 H                     0.123141
     10 C                    -0.007889
     11 C                    -0.160739
     12 S                    -0.094793
     13 C                     0.186735
     14 H                     0.130960
     15 C                    -0.317223
     16 C                    -0.412015
     17 H                     0.144187
     18 C                     0.389039
     19 S                     0.038953
     20 C                    -0.382575
     21 C                     0.020581
     22 H                     0.120990
     23 H                     0.195968
  ----------------------------------------
  Sum of atomic charges =     0.000000

 -----------------------------------------------------------------
                    Cartesian Multipole Moments
 -----------------------------------------------------------------
    Charge (ESU x 10^10)
                 0.0000
    Dipole Moment (Debye)
         X      -0.1501      Y       0.0396      Z      -0.6932
       Tot       0.7103
    Quadrupole Moments (Debye-Ang)
        XX     -89.8832     XY       0.1516     YY    -105.5455
        XZ       1.4701     YZ       1.5766     ZZ    -111.0515
    Octopole Moments (Debye-Ang^2)
       XXX     -15.0203    XXY      16.8956    XYY      10.2882
       YYY     -35.1163    XXZ      -0.8795    XYZ      -6.4040
       YYZ      -8.7179    XZZ     -32.9910    YZZ      -9.5294
       ZZZ     -17.8118
    Hexadecapole Moments (Debye-Ang^3)
      XXXX   -6261.9849   XXXY      66.6111   XXYY   -1308.0312
      XYYY     224.1898   YYYY    -678.7596   XXXZ     118.3632
      XXYZ      -0.4457   XYYZ      25.4671   YYYZ     -47.6697
      XXZZ   -1284.7074   XYZZ      40.8548   YYZZ    -199.4357
      XZZZ     115.0380   YZZZ     -53.7281   ZZZZ    -425.0137
 -----------------------------------------------------------------
Archival summary:
1\1\nid00555\OPT\ProcedureUnspecified\BasisUnspecified\3128\bwood\TueMay3010:54:352017TueMay3010:54:352017\0\\#,OPT,ProcedureUnspecified,BasisUnspecified,\\0,1\S\C,1,1.75264\C,2,1.38044,1,110.262\H,3,1.08442,2,122.899,1,179.338,0\C,3,1.42152,2,113.58,1,-0.0474122,0\H,5,1.08409,3,123.986,2,-178.921,0\C,5,1.37625,3,113.707,2,0.935404,0\C,2,1.45204,1,120.827,3,179.979,0\C,8,1.38026,2,128.956,1,-19.9119,0\H,9,1.08436,8,122.84,2,-0.873173,0\C,9,1.42476,8,113.527,2,-179.684,0\H,11,1.08398,9,123.797,8,179.586,0\C,11,1.37005,9,112.829,8,0.14267,0\H,13,1.08133,11,128.475,9,179.569,0\C,7,1.463,5,128.236,3,-179.616,0\C,15,1.37675,7,128.064,5,-70,0\H,16,1.08412,15,122.248,7,0.161303,0\C,16,1.42675,15,113.52,7,-179.173,0\H,18,1.08409,16,123.9,15,-179.754,0\C,18,1.37056,16,112.698,15,0.84129,0\H,20,1.08165,18,128.226,16,179.704,0\S,20,1.73249,18,111.721,16,-0.452512,0\S,13,1.7346,11,111.639,9,-0.597695,0\\\@

 Total job time:  113.54s(wall), 120.24s(cpu) 
 Tue May 30 10:54:35 2017

        *************************************************************
        *                                                           *
        *  Thank you very much for using Q-Chem.  Have a nice day.  *
        *                                                           *
        *************************************************************


0 sent ACK to 0 
now end server 0 ... 
