srun -N 1 --ntasks-per-node 22 --cpus-per-task 2 --cpu_bind=cores --nodelist nid00481 /global/project/projectdirs/jcesr/qchem/qc44/cnl_qc441/dist/exe/qcprog.cori.haswell.exe .pt_nn_neutral_10.0.in.36848.qcin.1 /dev/shm/eg_qchem/qchem36848/
Process 1 of 22 is on nid00481 - thread support 0
Process 2 of 22 is on nid00481 - thread support 0
Process 3 of 22 is on nid00481 - thread support 0
Process 4 of 22 is on nid00481 - thread support 0
Process 5 of 22 is on nid00481 - thread support 0
Process 6 of 22 is on nid00481 - thread support 0
Process 0 of 22 is on nid00481 - thread support 0
initial socket setup ...start
Process 21 of 22 is on nid00481 - thread support 0
initial socket setup ...done 
now start server 0 ... 
nid00481 10.128.1
Q-Chem Developer Version! Running on 10.128.1.*
                  Welcome to Q-Chem
     A Quantum Leap Into The Future Of Chemistry


 Q-Chem 4.4, Q-Chem, Inc., Pleasanton, CA (2016)

 Y. Shao,  Z. Gan,  E. Epifanovsky,  A. T. B. Gilbert,  M. Wormit,  
 J. Kussmann,  A. W. Lange,  A. Behn,  J. Deng,  X. Feng,  D. Ghosh,  
 M. Goldey,  P. R. Horn,  L. D. Jacobson,  I. Kaliman,  F. Rob,  
 R. Z. Khaliullin,  T. Kus,  A. Landau,  J. Liu,  E. I. Proynov,  Y. M. Rhee,  
 R. M. Richard,  M. A. Rohrdanz,  R. P. Steele,  E. J. Sundstrom,  
 H. L. Woodcock III,  P. M. Zimmerman,  D. Zuev,  B. Albrecht,  E. Alguire,  
 B. Austin,  S. A. Baeppler,  G. J. O. Beran,  Y. A. Bernard,  
 E. J. Berquist,  K. Brandhorst,  K. B. Bravaya,  S. T. Brown,  D. Casanova,  
 C.-M. Chang,  Y. Chen,  S. H. Chien,  K. D. Closser,  M. P. Coons,  
 D. L. Crittenden,  S. Dasgupta,  M. Diedenhofen,  R. A. DiStasio Jr.,  
 H. Do,  A. D. Dutoi,  R. G. Edgar,  P.-T. Fang,  S. Fatehi,  Q. Feng,  
 L. Fusti-Molnar,  A. Ghysels,  A. Golubeva-Zadorozhnaya,  J. Gomes,  
 A. Gunina,  M. W. D. Hanson-Heine,  P. H. P. Harbach,  A. W. Hauser,  
 J. E. Herr,  E. G. Hohenstein,  Z. C. Holden,  K. Hui,  T.-C. Jagau,  H. Ji,  
 B. Kaduk,  K. Khistyaev,  Jaehoon Kim,  Jihan Kim,  R. A. King,  
 P. Klunzinger,  K. Koh,  D. Kosenkov,  T. Kowalczyk,  C. M. Krauter,  
 A. Kunitsa,  K. U. Lao,  A. Laurent,  K. V. Lawler,  J. Lee,  D. Lefrancois,  
 S. Lehtola,  S. V. Levchenko,  C. Y. Lin,  Y.-S. Lin,  F. Liu,  E. Livshits,  
 R. C. Lochan,  A. Luenser,  P. Manohar,  S. F. Manzer,  S.-P. Mao,  Y. Mao,  
 N. Mardirossian,  A. V. Marenich,  L. A. Martinez-Martinez,  S. A. Maurer,  
 N. J. Mayhall,  J.-M. Mewes,  A. F. Morrison,  K. Nanda,  T. S. Nguyen-Beck,  
 C. M. Oana,  R. Olivares-Amaya,  D. P. O'Neill,  J. A. Parkhill,  
 T. M. Perrine,  R. Peverati,  P. A. Pieniazek,  F. Plasser,  A. Prociuk,  
 D. R. Rehn,  E. Rosta,  N. J. Russ,  N. Sergueev,  S. M. Sharada,  
 S. Sharma,  D. W. Small,  A. Sodt,  T. Stauch,  T. Stein,  D. Stuck,  
 Y.-C. Su,  A. J. W. Thom,  T. Tsuchimochi,  L. Vogt,  O. Vydrov,  T. Wang,  
 M. A. Watson,  J. Wenzel,  A. White,  C. F. Williams,  V. Vanovschi,  
 K. Yao,  S. Yeganeh,  S. R. Yost,  Z.-Q. You,  I. Y. Zhang,  X. Zhang,  
 Y. Zhao,  B. R. Brooks,  G. K. L. Chan,  D. M. Chipman,  C. J. Cramer,  
 W. A. Goddard III,  M. S. Gordon,  W. J. Hehre,  A. Klamt,  
 H. F. Schaefer III,  M. W. Schmidt,  C. D. Sherrill,  D. G. Truhlar,  
 A. Warshel,  X. Xu,  A. Aspuru-Guzik,  R. Baer,  A. T. Bell,  N. A. Besley,  
 J.-D. Chai,  A. Dreuw,  B. D. Dunietz,  T. R. Furlani,  S. R. Gwaltney,  
 C.-P. Hsu,  Y. Jung,  J. Kong,  D. S. Lambrecht,  W. Liang,  C. Ochsenfeld,  
 V. A. Rassolov,  L. V. Slipchenko,  J. E. Subotnik,  T. Van Voorhis,  
 J. M. Herbert,  A. I. Krylov,  P. M. W. Gill,  M. Head-Gordon

 Contributors to earlier versions of Q-Chem not listed above: 
 R. D. Adamson,  J. Baker,  E. F. C. Byrd,  A. K. Chakraborty,  C.-L. Cheng,  
 H. Dachsel,  R. J. Doerksen,  G. Hawkins,  A. Heyden,  S. Hirata,  
 G. Kedziora,  F. J. Keil,  C. Kelley,  P. P. Korambath,  W. Kurlancheek,  
 A. M. Lee,  M. S. Lee,  D. Liotard,  I. Lotan,  P. E. Maslen,  N. Nair,  
 D. Neuhauser,  R. Olson,  B. Peters,  J. Ritchie,  N. E. Schultz,  
 N. Shenvi,  A. C. Simmonett,  K. S. Thanthiriwatte,  Q. Wu,  W. Zhang

 Please cite Q-Chem as follows:
 Y. Shao et al., Mol. Phys. 113, 184-215 (2015)
 DOI: 10.1080/00268976.2014.952696

 Q-Chem 4.4.2 for Intel X86 EM64T Linux

 Parts of Q-Chem use Armadillo 5.200.1 (Boston Tea Smuggler).
 http://arma.sourceforge.net/

 Q-Chem begins on Tue May 30 10:52:43 2017  

Host: nid00478
0

     Scratch files written to /dev/shm/eg_qchem/qchem36848.0//
 Parallel job on  22  processors

Checking the input file for inconsistencies... 	...done.

--------------------------------------------------------------
User input:
--------------------------------------------------------------
$molecule
 0  1
 H           6.23254100       -0.22338900        0.17638100
 H           5.29752400        2.22850500       -0.10953100
 C           5.19733500        0.07486000        0.08356300
 C           4.68347900        1.33634400       -0.06443600
 S           3.94559900       -1.12581000        0.11905200
 C           3.26267300        1.34659400       -0.16511200
 H           2.67740100        2.24810800       -0.30841700
 C           2.69562400        0.08941900       -0.09094600
 H           1.33241900       -2.39005500       -0.68762600
 C           1.29739300       -0.28590200       -0.16150800
 C           0.73808300       -1.51455700       -0.45078400
 S           0.03601800        0.89451200        0.14982500
 C          -0.68041100       -1.51067300       -0.44936800
 H          -1.28012400       -2.38277100       -0.68510300
 C          -1.23220500       -0.27900200       -0.15852500
 C          -2.62830100        0.10383400       -0.08465000
 H          -3.70045371       -1.78074251       -0.16432263
 C          -3.75171571       -0.69937111       -0.10251585
 S          -3.09421752        1.79172091        0.04604175
 C          -4.97232983        0.02802535       -0.00246932
 C          -4.77906622        1.38109599        0.09314663
 H          -5.95180859       -0.43626878        0.00722806
 H          -5.52144577        2.16179448        0.18588131
$end


$rem
         jobtype = opt
        exchange = b3lyp
           basis = 6-31++g**
  max_scf_cycles = 150
      mem_static = 281
       mem_total = 2818
      sym_ignore = true
        symmetry = false
          thresh = 12
$end


$opt
CONSTRAINT
tors 13 15 16 18 10.0
ENDCONSTRAINT
$end

--------------------------------------------------------------
 ----------------------------------------------------------------
             Standard Nuclear Orientation (Angstroms)
    I     Atom           X                Y                Z
 ----------------------------------------------------------------
    1      H       6.2325410000    -0.2233890000     0.1763810000
    2      H       5.2975240000     2.2285050000    -0.1095310000
    3      C       5.1973350000     0.0748600000     0.0835630000
    4      C       4.6834790000     1.3363440000    -0.0644360000
    5      S       3.9455990000    -1.1258100000     0.1190520000
    6      C       3.2626730000     1.3465940000    -0.1651120000
    7      H       2.6774010000     2.2481080000    -0.3084170000
    8      C       2.6956240000     0.0894190000    -0.0909460000
    9      H       1.3324190000    -2.3900550000    -0.6876260000
   10      C       1.2973930000    -0.2859020000    -0.1615080000
   11      C       0.7380830000    -1.5145570000    -0.4507840000
   12      S       0.0360180000     0.8945120000     0.1498250000
   13      C      -0.6804110000    -1.5106730000    -0.4493680000
   14      H      -1.2801240000    -2.3827710000    -0.6851030000
   15      C      -1.2322050000    -0.2790020000    -0.1585250000
   16      C      -2.6283010000     0.1038340000    -0.0846500000
   17      H      -3.7004537100    -1.7807425100    -0.1643226300
   18      C      -3.7517157100    -0.6993711100    -0.1025158500
   19      S      -3.0942175200     1.7917209100     0.0460417500
   20      C      -4.9723298300     0.0280253500    -0.0024693200
   21      C      -4.7790662200     1.3810959900     0.0931466300
   22      H      -5.9518085900    -0.4362687800     0.0072280600
   23      H      -5.5214457700     2.1617944800     0.1858813100
 ----------------------------------------------------------------
 Nuclear Repulsion Energy =  1179.6991865054 hartrees
 There are       64 alpha and       64 beta electrons
 Requested basis set is 6-31++G(d,p)
 There are 110 shells and 345 basis functions

 Total QAlloc Memory Limit   2818 MB
 Mega-Array Size       275 MB
 MEM_STATIC part       281 MB
 A cutoff of  1.0D-12 yielded   4671 shell pairs
 There are     47573 function pairs

 Q-Chem warning in module /project/projectdirs/jcesr/qchem/qc44/cnl_qc441/compile/cori/qc_src/libqints/qchem/aobasis.C, line 68:

 Using reconstructed effective core potential

 
 -------------------------------------------------------
 OpenMP Integral Computing Module                       
 Release: version 1.0, May 2013, Q-Chem Inc. Pittsburgh 
 -------------------------------------------------------
 Integral Job Info:
 Integral job number is                      11
 Integral operator is                         1
 short-range coefficients                     0
 long-range coefficients              100000000
 Omega coefficients                           0
 if combine SR and LR in K                    0
 Integral screening is                        0
 Integral computing path is                   2
 max size of driver memory is            800000
 size of driver memory is                593474
 size of scratch memory is             15166112
 max col of scratch BK array               1296
 max len of scratch array in speh3          155
 max len of scratch index in speh4           18
 max int batch size is                      520
 min int batch size is                       52
 fixed nKL is                                52
 max L of basis functions is                  2
 order of int derivative is                   0
 number of shells is                        110
 number of basis is                         345
 number of cartesian basis is               345
 number of contracted shell pairs          4671
 number of primitive shell pairs          14614
 maxK2 (contraction) of shell pair           36
 max number of K2 of shell pair               1
 max number of CS2 of shell pair            511
 max number of PS2 of shell pair           3012
 mem total for path MDJ                  101080
 -------------------------------------------------------
 Smallest overlap matrix eigenvalue = 6.59E-08
 Linear dependence detected in AO basis
 Number of orthogonalized atomic orbitals = 342
 Maximum deviation from orthogonality = 4.524E-11

 Scale SEOQF with 1.000000e-02/1.000000e-01/1.000000e-01

 Standard Electronic Orientation quadrupole field applied
 Nucleus-field energy     =     0.0000000172 hartrees
 Guess from superposition of atomic densities
 Warning:  Energy on first SCF cycle will be non-variational
 A restricted hybrid HF-DFT SCF calculation will be
 performed using Pulay DIIS extrapolation
 Exchange:     0.2000 Hartree-Fock + 0.0800 Slater + 0.7200 B88
 Correlation:  0.1900 VWN1RPA + 0.8100 LYP
 Using SG-1 standard quadrature grid
 SCF converges when DIIS error is below 1.0E-08
 ---------------------------------------
  Cycle       Energy         DIIS Error
 ---------------------------------------
    1   -1660.3113552027      3.69E-02
    2   -1656.4316121436      3.73E-03
    3   -1656.1112938297      5.64E-03
    4   -1656.6492313942      8.63E-04
    5   -1656.6588689251      4.81E-04
    6   -1656.6619690072      1.83E-04
    7   -1656.6624658557      7.28E-05
    8   -1656.6625468777      1.43E-05
    9   -1656.6625499573      4.30E-06
   10   -1656.6625502077      1.98E-06
   11   -1656.6625502735      4.74E-07
   12   -1656.6625502779      2.42E-07
   13   -1656.6625502774      7.10E-08
   14   -1656.6625502770      2.51E-08
   15   -1656.6625502774      1.04E-08
   16   -1656.6625502761      2.57E-09 Convergence criterion met
 ---------------------------------------
 SCF time:  CPU 17.20 s  wall 16.09 s
 SCF   energy in the final basis set = -1656.6625502761
 Total energy in the final basis set = -1656.6625502761
 
 --------------------------------------------------------------
 
                    Orbital Energies (a.u.)
 --------------------------------------------------------------
 
 Alpha MOs
 -- Occupied --
-88.921 -88.921 -88.921 -10.242 -10.241 -10.241 -10.240 -10.226
-10.226 -10.207 -10.206 -10.206 -10.206 -10.205 -10.204  -7.980
 -7.980  -7.980  -5.945  -5.945  -5.944  -5.941  -5.941  -5.941
 -5.938  -5.937  -5.937  -0.907  -0.892  -0.876  -0.788  -0.757
 -0.745  -0.745  -0.733  -0.697  -0.618  -0.597  -0.569  -0.564
 -0.538  -0.533  -0.530  -0.498  -0.463  -0.423  -0.421  -0.419
 -0.416  -0.409  -0.402  -0.397  -0.387  -0.376  -0.370  -0.364
 -0.352  -0.341  -0.298  -0.269  -0.263  -0.259  -0.250  -0.199
 -- Virtual --
 -0.073  -0.031  -0.015  -0.006  -0.004   0.003   0.008   0.011
  0.017   0.018   0.025   0.028   0.031   0.034   0.042   0.045
  0.049   0.052   0.055   0.056   0.066   0.069   0.078   0.081
  0.083   0.085   0.089   0.094   0.099   0.106   0.108   0.109
  0.113   0.114   0.121   0.125   0.126   0.129   0.131   0.134
  0.138   0.138   0.142   0.145   0.150   0.153   0.155   0.158
  0.165   0.171   0.172   0.175   0.181   0.186   0.189   0.192
  0.195   0.200   0.202   0.203   0.207   0.214   0.215   0.228
  0.231   0.241   0.242   0.247   0.249   0.258   0.262   0.268
  0.269   0.272   0.283   0.290   0.295   0.304   0.307   0.317
  0.321   0.326   0.333   0.345   0.349   0.358   0.366   0.373
  0.384   0.385   0.388   0.413   0.445   0.452   0.464   0.490
  0.504   0.520   0.530   0.538   0.567   0.572   0.580   0.585
  0.593   0.609   0.618   0.637   0.649   0.655   0.657   0.661
  0.668   0.672   0.680   0.688   0.692   0.715   0.716   0.718
  0.721   0.724   0.739   0.748   0.762   0.774   0.781   0.790
  0.813   0.817   0.824   0.833   0.838   0.851   0.877   0.899
  0.929   0.936   0.942   0.945   0.958   0.959   0.961   0.969
  0.974   0.982   0.992   0.998   1.001   1.008   1.026   1.041
  1.046   1.048   1.072   1.085   1.092   1.104   1.113   1.121
  1.139   1.156   1.165   1.184   1.191   1.208   1.224   1.242
  1.253   1.276   1.282   1.318   1.337   1.338   1.349   1.354
  1.362   1.364   1.376   1.451   1.467   1.488   1.507   1.517
  1.550   1.561   1.581   1.611   1.652   1.687   1.701   1.726
  1.789   1.826   1.856   1.871   1.888   1.899   1.912   1.918
  1.931   1.954   1.979   1.985   2.001   2.024   2.052   2.076
  2.080   2.089   2.121   2.147   2.165   2.177   2.189   2.209
  2.228   2.239   2.264   2.274   2.294   2.328   2.362   2.364
  2.412   2.426   2.452   2.457   2.466   2.478   2.485   2.505
  2.527   2.531   2.542   2.555   2.574   2.584   2.609   2.633
  2.666   2.689   2.705   2.722   2.728   2.785   2.852   2.867
  2.903   2.937   2.973   2.995   3.125   3.181   3.230   3.271
  3.272   3.323   3.412   3.418   3.664   3.733   3.744   3.943
  3.979   4.021   4.246   4.270   4.301   4.319   4.340   4.342
  4.385   4.477   4.561   4.636   4.701   4.745
 --------------------------------------------------------------
 
          Ground-State Mulliken Net Atomic Charges

     Atom                 Charge (a.u.)
  ----------------------------------------
      1 H                     0.194689
      2 H                     0.119807
      3 C                     0.006266
      4 C                    -0.368298
      5 S                    -0.060039
      6 C                     0.390367
      7 H                     0.128199
      8 C                    -0.262799
      9 H                     0.121718
     10 C                    -0.128573
     11 C                    -0.052740
     12 S                    -0.342271
     13 C                     0.154315
     14 H                     0.108242
     15 C                    -0.106360
     16 C                    -0.161449
     17 H                     0.107485
     18 C                     0.293134
     19 S                    -0.116559
     20 C                    -0.363756
     21 C                     0.015357
     22 H                     0.120841
     23 H                     0.202424
  ----------------------------------------
  Sum of atomic charges =     0.000000

 -----------------------------------------------------------------
                    Cartesian Multipole Moments
 -----------------------------------------------------------------
    Charge (ESU x 10^10)
                 0.0000
    Dipole Moment (Debye)
         X      -0.2667      Y      -0.4138      Z      -0.2426
       Tot       0.5488
    Quadrupole Moments (Debye-Ang)
        XX     -89.2939     XY       2.3868     YY    -100.6768
        XZ      -0.0970     YZ       1.3195     ZZ    -116.4568
    Octopole Moments (Debye-Ang^2)
       XXX     -26.3094    XXY      -4.2128    XYY     -15.6002
       YYY     -58.5995    XXZ      11.8403    XYZ      -4.5902
       YYZ       1.1768    XZZ     -10.0797    YZZ     -22.4825
       ZZZ      17.6903
    Hexadecapole Moments (Debye-Ang^3)
      XXXX   -6144.1383   XXXY     208.8816   XXYY   -1225.6158
      XYYY     259.2360   YYYY    -944.8809   XXXZ       7.1574
      XXYZ      -4.7512   XYYZ      -8.2867   YYYZ     -19.5454
      XXZZ   -1350.0218   XYZZ      83.8677   YYZZ    -208.5101
      XZZZ      -2.4507   YZZZ     -33.1021   ZZZZ    -178.6118
 -----------------------------------------------------------------
 Calculating analytic gradient of the SCF energy
 Gradient of SCF Energy
            1           2           3           4           5           6
    1  -0.0000055   0.0000105  -0.0000667   0.0000307  -0.0000429   0.0000148
    2  -0.0000002  -0.0000013  -0.0000015   0.0000244   0.0000552  -0.0000291
    3   0.0000298  -0.0000076  -0.0000005  -0.0000049  -0.0000311  -0.0000047
            7           8           9          10          11          12
    1   0.0000140   0.0001966   0.0000196  -0.0005833   0.0008049  -0.0021117
    2  -0.0000126   0.0000792   0.0000321  -0.0004735  -0.0000482   0.0015016
    3  -0.0000140  -0.0001378  -0.0000264  -0.0003917   0.0001780   0.0003419
           13          14          15          16          17          18
    1   0.0007032  -0.0002993  -0.0004511  -0.0002403   0.0001161  -0.0000592
    2   0.0008202  -0.0001255  -0.0014208  -0.0013500  -0.0002789   0.0013526
    3   0.0007711  -0.0000839  -0.0004997   0.0002113   0.0000617  -0.0006682
           19          20          21          22          23
    1   0.0024351  -0.0009040   0.0004556  -0.0000013  -0.0000357
    2   0.0002597   0.0005191  -0.0008557  -0.0000058  -0.0000411
    3  -0.0001354  -0.0000170   0.0002324   0.0000598   0.0001366
 Max gradient component =       2.435E-03
 RMS gradient           =       6.029E-04
 Gradient time:  CPU 4.60 s  wall 4.61 s
 Geometry Optimization Parameters
   NAtoms,    NIC,     NZ,  NCons,   NDum,   NFix, NCnnct, MaxDiis
       23     166       0       1       0       0       0       0


** CONSTRAINED OPTIMIZATION IN DELOCALIZED INTERNAL COORDINATES **
   Searching for a Minimum

   Optimization Cycle:   1

                       Coordinates (Angstroms)
     ATOM                X               Y               Z
      1  H         6.2325410000   -0.2233890000    0.1763810000
      2  H         5.2975240000    2.2285050000   -0.1095310000
      3  C         5.1973350000    0.0748600000    0.0835630000
      4  C         4.6834790000    1.3363440000   -0.0644360000
      5  S         3.9455990000   -1.1258100000    0.1190520000
      6  C         3.2626730000    1.3465940000   -0.1651120000
      7  H         2.6774010000    2.2481080000   -0.3084170000
      8  C         2.6956240000    0.0894190000   -0.0909460000
      9  H         1.3324190000   -2.3900550000   -0.6876260000
     10  C         1.2973930000   -0.2859020000   -0.1615080000
     11  C         0.7380830000   -1.5145570000   -0.4507840000
     12  S         0.0360180000    0.8945120000    0.1498250000
     13  C        -0.6804110000   -1.5106730000   -0.4493680000
     14  H        -1.2801240000   -2.3827710000   -0.6851030000
     15  C        -1.2322050000   -0.2790020000   -0.1585250000
     16  C        -2.6283010000    0.1038340000   -0.0846500000
     17  H        -3.7004537100   -1.7807425100   -0.1643226300
     18  C        -3.7517157100   -0.6993711100   -0.1025158500
     19  S        -3.0942175200    1.7917209100    0.0460417500
     20  C        -4.9723298300    0.0280253500   -0.0024693200
     21  C        -4.7790662200    1.3810959900    0.0931466300
     22  H        -5.9518085900   -0.4362687800    0.0072280600
     23  H        -5.5214457700    2.1617944800    0.1858813100
   Point Group: c1    Number of degrees of freedom:    63


   Energy is  -1656.662550276

              Constraints and their Current Values
                                        Value     Constraint
   Dihedral:       13  15  16  18       10.000       10.000

 Attempting to Generate Delocalized Internal Coordinates

 62 Hessian modes will be used to form the next step
  Hessian Eigenvalues:
     0.045000    0.045000    0.045000    0.045000    0.045000    0.045000
     0.045000    0.045000    0.045000    0.045001    0.045002    0.045002
     0.045003    0.045003    0.045009    0.045010    0.045011    0.045018
     0.045019    0.159886    0.159939    0.159955    0.159957    0.159992
     0.159993    0.160000    0.160000    0.221281    0.221281    0.226855
     0.237826    0.237826    0.245311    0.249998    0.249998    0.250000
     0.250000    0.293636    0.293684    0.294746    0.294936    0.312571
     0.312615    0.354732    0.354740    0.354742    0.354756    0.355161
     0.355164    0.358372    0.358373    0.383080    0.383176    0.405793
     0.405832    0.413732    0.458107    0.461989    0.461995    0.485493
     0.497291    0.497294

 Minimum Search - Taking Simple RFO Step
 Searching for Lamda that Minimizes Along All modes
 Value Taken    Lamda =  -0.00045330
 Step Taken.  Stepsize is  0.049082

                             Maximum     Tolerance    Cnvgd?
         Gradient           0.006631      0.000300      NO
         Displacement       0.027398      0.001200      NO
         Energy change     *********      0.000001      NO


 New Cartesian Coordinates Obtained by Inverse Iteration

 Displacement from previous Coordinates is:  0.373716
 ----------------------------------------------------------------
             Standard Nuclear Orientation (Angstroms)
    I     Atom           X                Y                Z
 ----------------------------------------------------------------
    1      H       6.2382393381    -0.2621187079     0.1743968698
    2      H       5.3310228581     2.2004436589    -0.1095676887
    3      C       5.2064406094     0.0479701810     0.0824020468
    4      C       4.7068793702     1.3153173787    -0.0646579877
    5      S       3.9409695790    -1.1382970854     0.1180262395
    6      C       3.2862657467     1.3419856187    -0.1649478078
    7      H       2.7113251546     2.2502330938    -0.3077449021
    8      C       2.7048726660     0.0913464488    -0.0914714198
    9      H       1.3113307068    -2.3715153410    -0.6897750624
   10      C       1.3025945400    -0.2674624822    -0.1628555011
   11      C       0.7277295909    -1.4887958808    -0.4529796260
   12      S       0.0543451217     0.9260646608     0.1472375448
   13      C      -0.6901456560    -1.4695200450    -0.4487532291
   14      H      -1.2977038177    -2.3364795286    -0.6813807745
   15      C      -1.2307410614    -0.2326220307    -0.1561369395
   16      C      -2.6326356544     0.1373574877    -0.0775846111
   17      H      -3.6538518471    -1.7757599665    -0.1472098397
   18      C      -3.7344019367    -0.6962895238    -0.0909784603
   19      S      -3.1508297614     1.8123329240     0.0429685082
   20      C      -4.9751474540    -0.0034346694    -0.0006227228
   21      C      -4.8235018314     1.3559162835     0.0839129791
   22      H      -5.9406322555    -0.4961802207     0.0076662010
   23      H      -5.5884133560     2.1157790763     0.1658611337
 ----------------------------------------------------------------
 Nuclear Repulsion Energy =  1177.6634166448 hartrees
 There are       64 alpha and       64 beta electrons
 Applying Cartesian multipole field
    Component          Value
    ---------          -----
     (2,0,0)        1.00000E-12
     (0,2,0)        2.00000E-11
     (0,0,2)       -3.00000E-11
 Nucleus-field energy     =     0.0000000172 hartrees
 Requested basis set is 6-31++G(d,p)
 There are 110 shells and 345 basis functions
 A cutoff of  1.0D-12 yielded   4667 shell pairs
 There are     47537 function pairs

 Q-Chem warning in module /project/projectdirs/jcesr/qchem/qc44/cnl_qc441/compile/cori/qc_src/libqints/qchem/aobasis.C, line 68:

 Using reconstructed effective core potential

 Smallest overlap matrix eigenvalue = 6.23E-08
 Linear dependence detected in AO basis
 Number of orthogonalized atomic orbitals = 342
 Maximum deviation from orthogonality = 1.141E-10
 Guess MOs from SCF MO coefficient file
 Reading MOs from coefficient file
 Reading MOs from coefficient file
 A restricted hybrid HF-DFT SCF calculation will be
 performed using Pulay DIIS extrapolation
 Exchange:     0.2000 Hartree-Fock + 0.0800 Slater + 0.7200 B88
 Correlation:  0.1900 VWN1RPA + 0.8100 LYP
 Using SG-1 standard quadrature grid
 SCF converges when DIIS error is below 1.0E-08
 Geometry optimization detected.  Setting ReadMinima to 0
 Setting SaveMinima to 0
 ---------------------------------------
  Cycle       Energy         DIIS Error
 ---------------------------------------
    1   -1656.6384462410      1.15E-03
    2   -1656.6615351293      2.69E-04
    3   -1656.6570254860      5.87E-04
    4   -1656.6627555536      5.05E-05
    5   -1656.6627905725      1.81E-05
    6   -1656.6627953628      5.71E-06
    7   -1656.6627958320      2.27E-06
    8   -1656.6627959078      8.41E-07
    9   -1656.6627959196      2.60E-07
   10   -1656.6627959216      5.91E-08
   11   -1656.6627959233      1.92E-08
   12   -1656.6627959234      1.05E-08
   13   -1656.6627959235      2.42E-09 Convergence criterion met
 ---------------------------------------
 SCF time:  CPU 14.45 s  wall 13.21 s
 SCF   energy in the final basis set = -1656.6627959235
 Total energy in the final basis set = -1656.6627959235
 
 --------------------------------------------------------------
 
                    Orbital Energies (a.u.)
 --------------------------------------------------------------
 
 Alpha MOs
 -- Occupied --
-88.922 -88.921 -88.921 -10.242 -10.241 -10.241 -10.240 -10.226
-10.226 -10.207 -10.206 -10.206 -10.206 -10.205 -10.205  -7.981
 -7.981  -7.980  -5.945  -5.945  -5.945  -5.942  -5.941  -5.941
 -5.938  -5.938  -5.938  -0.907  -0.892  -0.876  -0.788  -0.757
 -0.745  -0.745  -0.733  -0.697  -0.618  -0.597  -0.569  -0.564
 -0.538  -0.533  -0.530  -0.499  -0.463  -0.423  -0.421  -0.419
 -0.416  -0.409  -0.401  -0.397  -0.388  -0.376  -0.370  -0.363
 -0.351  -0.341  -0.298  -0.269  -0.263  -0.259  -0.250  -0.199
 -- Virtual --
 -0.073  -0.031  -0.014  -0.006  -0.004   0.003   0.008   0.011
  0.017   0.018   0.025   0.028   0.031   0.034   0.042   0.045
  0.049   0.052   0.055   0.056   0.066   0.068   0.077   0.080
  0.083   0.085   0.088   0.093   0.099   0.106   0.108   0.109
  0.113   0.114   0.121   0.125   0.126   0.130   0.131   0.133
  0.138   0.138   0.142   0.145   0.149   0.152   0.155   0.158
  0.165   0.171   0.172   0.175   0.181   0.185   0.189   0.192
  0.195   0.200   0.202   0.203   0.207   0.214   0.216   0.228
  0.230   0.241   0.243   0.247   0.249   0.259   0.261   0.268
  0.269   0.272   0.282   0.290   0.295   0.304   0.307   0.316
  0.321   0.326   0.333   0.346   0.349   0.358   0.366   0.373
  0.382   0.385   0.389   0.412   0.443   0.452   0.463   0.491
  0.503   0.519   0.530   0.536   0.566   0.572   0.579   0.584
  0.592   0.609   0.618   0.638   0.649   0.654   0.657   0.661
  0.667   0.671   0.678   0.687   0.691   0.715   0.715   0.718
  0.721   0.725   0.739   0.748   0.760   0.775   0.781   0.790
  0.810   0.817   0.824   0.831   0.838   0.850   0.877   0.898
  0.929   0.936   0.942   0.945   0.958   0.959   0.962   0.969
  0.974   0.983   0.994   0.998   1.001   1.009   1.027   1.040
  1.045   1.048   1.070   1.084   1.093   1.104   1.111   1.119
  1.138   1.156   1.164   1.184   1.191   1.208   1.224   1.240
  1.255   1.276   1.281   1.319   1.337   1.339   1.349   1.353
  1.361   1.363   1.375   1.447   1.467   1.487   1.506   1.516
  1.548   1.560   1.579   1.609   1.655   1.687   1.701   1.726
  1.789   1.827   1.856   1.871   1.888   1.898   1.911   1.917
  1.930   1.955   1.977   1.985   2.001   2.022   2.051   2.076
  2.079   2.088   2.122   2.147   2.164   2.177   2.189   2.209
  2.227   2.239   2.263   2.273   2.294   2.329   2.362   2.364
  2.413   2.426   2.452   2.457   2.465   2.479   2.485   2.505
  2.527   2.531   2.541   2.553   2.574   2.584   2.608   2.633
  2.665   2.688   2.705   2.721   2.727   2.787   2.852   2.869
  2.903   2.937   2.968   2.992   3.126   3.181   3.229   3.271
  3.272   3.323   3.412   3.418   3.664   3.733   3.744   3.944
  3.979   4.018   4.247   4.268   4.301   4.319   4.338   4.341
  4.385   4.475   4.558   4.635   4.700   4.742
 --------------------------------------------------------------
 
          Ground-State Mulliken Net Atomic Charges

     Atom                 Charge (a.u.)
  ----------------------------------------
      1 H                     0.194820
      2 H                     0.119913
      3 C                     0.007409
      4 C                    -0.364702
      5 S                    -0.064343
      6 C                     0.395121
      7 H                     0.127585
      8 C                    -0.265948
      9 H                     0.121466
     10 C                    -0.139708
     11 C                    -0.038843
     12 S                    -0.320416
     13 C                     0.121882
     14 H                     0.106330
     15 C                    -0.075544
     16 C                    -0.183161
     17 H                     0.105489
     18 C                     0.275089
     19 S                    -0.093430
     20 C                    -0.359506
     21 C                     0.007847
     22 H                     0.120753
     23 H                     0.201897
  ----------------------------------------
  Sum of atomic charges =     0.000000

 -----------------------------------------------------------------
                    Cartesian Multipole Moments
 -----------------------------------------------------------------
    Charge (ESU x 10^10)
                 0.0000
    Dipole Moment (Debye)
         X      -0.2560      Y      -0.4415      Z      -0.2448
       Tot       0.5660
    Quadrupole Moments (Debye-Ang)
        XX     -89.1406     XY       2.4044     YY    -100.8525
        XZ      -0.0629     YZ       1.2426     ZZ    -116.4846
    Octopole Moments (Debye-Ang^2)
       XXX     -25.3968    XXY      -5.1040    XYY     -14.7898
       YYY     -61.2465    XXZ      11.5801    XYZ      -4.3803
       YYZ       1.2576    XZZ      -9.5564    YZZ     -23.2690
       ZZZ      17.8138
    Hexadecapole Moments (Debye-Ang^3)
      XXXX   -6185.0817   XXXY     212.1930   XXYY   -1234.0403
      XYYY     268.9809   YYYY    -946.6641   XXXZ       8.3958
      XXYZ      -5.9435   XYYZ      -7.6346   YYYZ     -18.9971
      XXZZ   -1360.4910   XYZZ      86.9430   YYZZ    -208.1543
      XZZZ      -1.9356   YZZZ     -31.5872   ZZZZ    -178.3418
 -----------------------------------------------------------------
 Calculating analytic gradient of the SCF energy
 Gradient of SCF Energy
            1           2           3           4           5           6
    1   0.0000007   0.0000023  -0.0000254   0.0000313   0.0000518  -0.0000100
    2   0.0000096  -0.0000036  -0.0000282  -0.0000018   0.0000389  -0.0000130
    3   0.0000163  -0.0000100  -0.0000281   0.0000094   0.0000160   0.0000096
            7           8           9          10          11          12
    1   0.0000064   0.0000489   0.0000035   0.0002115   0.0005121   0.0003144
    2   0.0000065  -0.0001017   0.0000433  -0.0000934   0.0002701   0.0003609
    3  -0.0000136  -0.0000498   0.0000111  -0.0001716   0.0000053   0.0000223
           13          14          15          16          17          18
    1   0.0000853  -0.0001822  -0.0003113  -0.0003066   0.0001471   0.0003363
    2   0.0005706  -0.0000255  -0.0013114  -0.0012790  -0.0000651   0.0006722
    3   0.0006700   0.0000560  -0.0004860   0.0000850  -0.0000213  -0.0005463
           19          20          21          22          23
    1  -0.0002512  -0.0002854  -0.0002935   0.0000248  -0.0001111
    2   0.0004567   0.0004786   0.0000071   0.0000428  -0.0000348
    3   0.0001362   0.0001570   0.0001075   0.0000183   0.0000066
 Max gradient component =       1.311E-03
 RMS gradient           =       3.165E-04
 Gradient time:  CPU 4.72 s  wall 4.61 s
 Geometry Optimization Parameters
   NAtoms,    NIC,     NZ,  NCons,   NDum,   NFix, NCnnct, MaxDiis
       23     166       0       1       0       0       0       0

 Cartesian Hessian Update
 Hessian Updated using BFGS Update


** CONSTRAINED OPTIMIZATION IN DELOCALIZED INTERNAL COORDINATES **
   Searching for a Minimum

   Optimization Cycle:   2

                       Coordinates (Angstroms)
     ATOM                X               Y               Z
      1  H         6.2382393381   -0.2621187079    0.1743968698
      2  H         5.3310228581    2.2004436589   -0.1095676887
      3  C         5.2064406094    0.0479701810    0.0824020468
      4  C         4.7068793702    1.3153173787   -0.0646579877
      5  S         3.9409695790   -1.1382970854    0.1180262395
      6  C         3.2862657467    1.3419856187   -0.1649478078
      7  H         2.7113251546    2.2502330938   -0.3077449021
      8  C         2.7048726660    0.0913464488   -0.0914714198
      9  H         1.3113307068   -2.3715153410   -0.6897750624
     10  C         1.3025945400   -0.2674624822   -0.1628555011
     11  C         0.7277295909   -1.4887958808   -0.4529796260
     12  S         0.0543451217    0.9260646608    0.1472375448
     13  C        -0.6901456560   -1.4695200450   -0.4487532291
     14  H        -1.2977038177   -2.3364795286   -0.6813807745
     15  C        -1.2307410614   -0.2326220307   -0.1561369395
     16  C        -2.6326356544    0.1373574877   -0.0775846111
     17  H        -3.6538518471   -1.7757599665   -0.1472098397
     18  C        -3.7344019367   -0.6962895238   -0.0909784603
     19  S        -3.1508297614    1.8123329240    0.0429685082
     20  C        -4.9751474540   -0.0034346694   -0.0006227228
     21  C        -4.8235018314    1.3559162835    0.0839129791
     22  H        -5.9406322555   -0.4961802207    0.0076662010
     23  H        -5.5884133560    2.1157790763    0.1658611337
   Point Group: c1    Number of degrees of freedom:    63


   Energy is  -1656.662795923

              Constraints and their Current Values
                                        Value     Constraint
   Dihedral:       13  15  16  18       10.000       10.000
 Hessian Updated using BFGS Update

 58 Hessian modes will be used to form the next step
  Hessian Eigenvalues:
     0.041425    0.045000    0.045000    0.045000    0.045000    0.045000
     0.045001    0.045001    0.045002    0.045003    0.045008    0.045009
     0.045010    0.045015    0.045018    0.045156    0.158971    0.159897
     0.159950    0.159957    0.159990    0.159993    0.159995    0.160000
     0.207616    0.221282    0.221590    0.226978    0.237826    0.241210
     0.249544    0.249999    0.260054    0.293635    0.294356    0.294650
     0.311142    0.312554    0.313218    0.354633    0.354737    0.354743
     0.354752    0.355164    0.355172    0.358372    0.358387    0.383144
     0.393962    0.405831    0.408334    0.416315    0.458002    0.461989
     0.462049    0.485758    0.497289    0.497377

 Minimum Search - Taking Simple RFO Step
 Searching for Lamda that Minimizes Along All modes
 Value Taken    Lamda =  -0.00003607
 Step Taken.  Stepsize is  0.020875

                             Maximum     Tolerance    Cnvgd?
         Gradient           0.001049      0.000300      NO
         Displacement       0.009740      0.001200      NO
         Energy change     -0.000246      0.000001      NO


 New Cartesian Coordinates Obtained by Inverse Iteration

 Displacement from previous Coordinates is:  0.076001
 ----------------------------------------------------------------
             Standard Nuclear Orientation (Angstroms)
    I     Atom           X                Y                Z
 ----------------------------------------------------------------
    1      H       6.2365287969    -0.2687024551     0.1749564392
    2      H       5.3337649984     2.1957795182    -0.1072965882
    3      C       5.2053098456     0.0433422992     0.0830730640
    4      C       4.7080599127     1.3117096104    -0.0632207676
    5      S       3.9376770608    -1.1407861476     0.1173324099
    6      C       3.2875784979     1.3409881602    -0.1639546657
    7      H       2.7142257507     2.2503126820    -0.3062682529
    8      C       2.7039934726     0.0913222339    -0.0916065262
    9      H       1.3047492807    -2.3689393791    -0.6929115273
   10      C       1.3011932174    -0.2646846473    -0.1640545438
   11      C       0.7234964127    -1.4846936219    -0.4557608716
   12      S       0.0570677359     0.9327000134     0.1457842615
   13      C      -0.6935396978    -1.4613273025    -0.4520261477
   14      H      -1.3029054774    -2.3266756235    -0.6849349606
   15      C      -1.2295744141    -0.2222510589    -0.1574803624
   16      C      -2.6309407895     0.1446877927    -0.0743815463
   17      H      -3.6419633310    -1.7756822665    -0.1364856476
   18      C      -3.7277407303    -0.6965790165    -0.0840276482
   19      S      -3.1563042111     1.8163825385     0.0394826506
   20      C      -4.9714795892    -0.0102966390     0.0015873412
   21      C      -4.8261694116     1.3504584606     0.0799659457
   22      H      -5.9344965461    -0.5079847390     0.0106571507
   23      H      -5.5945201341     2.1071909180     0.1573757431
 ----------------------------------------------------------------
 Nuclear Repulsion Energy =  1177.8090328619 hartrees
 There are       64 alpha and       64 beta electrons
 Applying Cartesian multipole field
    Component          Value
    ---------          -----
     (2,0,0)        1.00000E-12
     (0,2,0)        2.00000E-11
     (0,0,2)       -3.00000E-11
 Nucleus-field energy     =     0.0000000172 hartrees
 Requested basis set is 6-31++G(d,p)
 There are 110 shells and 345 basis functions
 A cutoff of  1.0D-12 yielded   4668 shell pairs
 There are     47541 function pairs

 Q-Chem warning in module /project/projectdirs/jcesr/qchem/qc44/cnl_qc441/compile/cori/qc_src/libqints/qchem/aobasis.C, line 68:

 Using reconstructed effective core potential

 Smallest overlap matrix eigenvalue = 6.07E-08
 Linear dependence detected in AO basis
 Number of orthogonalized atomic orbitals = 342
 Maximum deviation from orthogonality = 7.688E-11
 Guess MOs from SCF MO coefficient file
 Reading MOs from coefficient file
 Reading MOs from coefficient file
 A restricted hybrid HF-DFT SCF calculation will be
 performed using Pulay DIIS extrapolation
 Exchange:     0.2000 Hartree-Fock + 0.0800 Slater + 0.7200 B88
 Correlation:  0.1900 VWN1RPA + 0.8100 LYP
 Using SG-1 standard quadrature grid
 SCF converges when DIIS error is below 1.0E-08
 Geometry optimization detected.  Setting ReadMinima to 0
 Setting SaveMinima to 0
 ---------------------------------------
  Cycle       Energy         DIIS Error
 ---------------------------------------
    1   -1656.6606730300      2.79E-04
    2   -1656.6627654283      5.43E-05
    3   -1656.6625839683      1.18E-04
    4   -1656.6628141506      1.17E-05
    5   -1656.6628161265      4.13E-06
    6   -1656.6628163778      1.29E-06
    7   -1656.6628164040      4.74E-07
    8   -1656.6628164087      2.01E-07
    9   -1656.6628164095      6.24E-08
   10   -1656.6628164121      1.52E-08
   11   -1656.6628164116      5.52E-09 Convergence criterion met
 ---------------------------------------
 SCF time:  CPU 12.34 s  wall 11.26 s
 SCF   energy in the final basis set = -1656.6628164116
 Total energy in the final basis set = -1656.6628164116
 
 --------------------------------------------------------------
 
                    Orbital Energies (a.u.)
 --------------------------------------------------------------
 
 Alpha MOs
 -- Occupied --
-88.922 -88.921 -88.921 -10.242 -10.241 -10.241 -10.240 -10.226
-10.226 -10.207 -10.206 -10.206 -10.206 -10.205 -10.204  -7.981
 -7.981  -7.980  -5.945  -5.945  -5.945  -5.942  -5.941  -5.941
 -5.938  -5.938  -5.937  -0.907  -0.892  -0.876  -0.788  -0.757
 -0.745  -0.745  -0.733  -0.697  -0.618  -0.597  -0.569  -0.564
 -0.538  -0.533  -0.530  -0.499  -0.463  -0.423  -0.421  -0.419
 -0.416  -0.409  -0.401  -0.397  -0.388  -0.376  -0.370  -0.363
 -0.352  -0.342  -0.298  -0.269  -0.263  -0.259  -0.250  -0.199
 -- Virtual --
 -0.073  -0.031  -0.014  -0.006  -0.004   0.003   0.008   0.011
  0.017   0.018   0.025   0.028   0.031   0.034   0.042   0.045
  0.049   0.052   0.055   0.056   0.066   0.068   0.077   0.080
  0.083   0.085   0.089   0.093   0.099   0.105   0.108   0.109
  0.113   0.114   0.121   0.125   0.126   0.130   0.131   0.133
  0.138   0.139   0.142   0.145   0.149   0.152   0.155   0.158
  0.165   0.171   0.172   0.175   0.181   0.185   0.189   0.192
  0.195   0.200   0.202   0.203   0.207   0.215   0.216   0.228
  0.230   0.241   0.243   0.247   0.249   0.259   0.261   0.268
  0.269   0.272   0.282   0.290   0.295   0.304   0.307   0.316
  0.321   0.327   0.333   0.346   0.349   0.358   0.366   0.373
  0.381   0.385   0.389   0.412   0.443   0.452   0.462   0.492
  0.503   0.519   0.530   0.536   0.565   0.572   0.579   0.584
  0.592   0.609   0.618   0.638   0.650   0.654   0.657   0.661
  0.667   0.672   0.678   0.686   0.691   0.715   0.716   0.718
  0.721   0.725   0.739   0.748   0.760   0.776   0.781   0.790
  0.809   0.817   0.824   0.831   0.838   0.851   0.877   0.897
  0.929   0.936   0.942   0.945   0.958   0.959   0.962   0.970
  0.974   0.983   0.995   0.998   1.001   1.009   1.027   1.040
  1.044   1.048   1.070   1.084   1.093   1.104   1.111   1.119
  1.138   1.156   1.164   1.184   1.191   1.208   1.224   1.240
  1.255   1.276   1.281   1.319   1.337   1.340   1.349   1.353
  1.360   1.364   1.374   1.446   1.467   1.487   1.506   1.516
  1.547   1.560   1.579   1.609   1.656   1.688   1.701   1.726
  1.790   1.828   1.855   1.872   1.888   1.899   1.911   1.917
  1.930   1.955   1.977   1.986   2.001   2.022   2.051   2.076
  2.080   2.088   2.123   2.148   2.164   2.177   2.189   2.209
  2.227   2.239   2.263   2.272   2.296   2.329   2.362   2.364
  2.414   2.427   2.452   2.457   2.465   2.479   2.486   2.505
  2.527   2.531   2.541   2.552   2.574   2.584   2.609   2.633
  2.665   2.688   2.705   2.721   2.727   2.788   2.853   2.869
  2.903   2.937   2.966   2.991   3.126   3.181   3.229   3.272
  3.273   3.324   3.412   3.418   3.664   3.733   3.744   3.944
  3.979   4.018   4.248   4.268   4.301   4.319   4.338   4.341
  4.385   4.475   4.558   4.635   4.700   4.742
 --------------------------------------------------------------
 
          Ground-State Mulliken Net Atomic Charges

     Atom                 Charge (a.u.)
  ----------------------------------------
      1 H                     0.194777
      2 H                     0.119913
      3 C                     0.007419
      4 C                    -0.363805
      5 S                    -0.065251
      6 C                     0.396684
      7 H                     0.127230
      8 C                    -0.266794
      9 H                     0.121530
     10 C                    -0.140518
     11 C                    -0.033084
     12 S                    -0.315507
     13 C                     0.113309
     14 H                     0.106017
     15 C                    -0.077716
     16 C                    -0.186166
     17 H                     0.105365
     18 C                     0.271780
     19 S                    -0.089692
     20 C                    -0.353384
     21 C                     0.005705
     22 H                     0.120701
     23 H                     0.201488
  ----------------------------------------
  Sum of atomic charges =     0.000000

 -----------------------------------------------------------------
                    Cartesian Multipole Moments
 -----------------------------------------------------------------
    Charge (ESU x 10^10)
                 0.0000
    Dipole Moment (Debye)
         X      -0.2616      Y      -0.4415      Z      -0.2452
       Tot       0.5687
    Quadrupole Moments (Debye-Ang)
        XX     -89.2275     XY       2.4152     YY    -100.8513
        XZ      -0.0425     YZ       1.2234     ZZ    -116.4785
    Octopole Moments (Debye-Ang^2)
       XXX     -25.1942    XXY      -5.4683    XYY     -14.7147
       YYY     -61.7183    XXZ      11.5345    XYZ      -4.2371
       YYZ       1.2993    XZZ      -9.4994    YZZ     -23.4291
       ZZZ      17.9782
    Hexadecapole Moments (Debye-Ang^3)
      XXXX   -6186.1499   XXXY     213.4696   XXYY   -1233.9304
      XYYY     270.1565   YYYY    -946.9779   XXXZ       8.9708
      XXYZ      -6.4854   XYYZ      -7.4495   YYYZ     -18.7904
      XXZZ   -1360.2904   XYZZ      87.3157   YYZZ    -208.1149
      XZZZ      -2.0989   YZZZ     -31.1694   ZZZZ    -178.3831
 -----------------------------------------------------------------
 Calculating analytic gradient of the SCF energy
 Gradient of SCF Energy
            1           2           3           4           5           6
    1   0.0000001  -0.0000041  -0.0000503  -0.0000016   0.0000239  -0.0000193
    2   0.0000053   0.0000030  -0.0000260   0.0000200  -0.0000135  -0.0000075
    3   0.0000068  -0.0000117  -0.0000191  -0.0000023   0.0000232   0.0000009
            7           8           9          10          11          12
    1  -0.0000034  -0.0000099  -0.0000376  -0.0001455   0.0000239   0.0003008
    2   0.0000003  -0.0000315  -0.0000404   0.0000271   0.0000090   0.0004350
    3  -0.0000068   0.0000249   0.0000015  -0.0000843  -0.0000591  -0.0000486
           13          14          15          16          17          18
    1   0.0000007  -0.0000163  -0.0001709  -0.0000732  -0.0000068   0.0000317
    2   0.0000551  -0.0000561  -0.0003436  -0.0004261  -0.0000335   0.0001673
    3   0.0004616   0.0000733  -0.0004564   0.0003026  -0.0000488  -0.0004216
           19          20          21          22          23
    1  -0.0000187  -0.0000020   0.0001579   0.0000101   0.0000106
    2   0.0005389  -0.0000563  -0.0001433  -0.0000560  -0.0000272
    3   0.0002111   0.0000808   0.0000308  -0.0000117  -0.0000473
 Max gradient component =       5.389E-04
 RMS gradient           =       1.612E-04
 Gradient time:  CPU 4.71 s  wall 4.59 s
 Geometry Optimization Parameters
   NAtoms,    NIC,     NZ,  NCons,   NDum,   NFix, NCnnct, MaxDiis
       23     166       0       1       0       0       0       0

 Cartesian Hessian Update
 Hessian Updated using BFGS Update


** CONSTRAINED OPTIMIZATION IN DELOCALIZED INTERNAL COORDINATES **
   Searching for a Minimum

   Optimization Cycle:   3

                       Coordinates (Angstroms)
     ATOM                X               Y               Z
      1  H         6.2365287969   -0.2687024551    0.1749564392
      2  H         5.3337649984    2.1957795182   -0.1072965882
      3  C         5.2053098456    0.0433422992    0.0830730640
      4  C         4.7080599127    1.3117096104   -0.0632207676
      5  S         3.9376770608   -1.1407861476    0.1173324099
      6  C         3.2875784979    1.3409881602   -0.1639546657
      7  H         2.7142257507    2.2503126820   -0.3062682529
      8  C         2.7039934726    0.0913222339   -0.0916065262
      9  H         1.3047492807   -2.3689393791   -0.6929115273
     10  C         1.3011932174   -0.2646846473   -0.1640545438
     11  C         0.7234964127   -1.4846936219   -0.4557608716
     12  S         0.0570677359    0.9327000134    0.1457842615
     13  C        -0.6935396978   -1.4613273025   -0.4520261477
     14  H        -1.3029054774   -2.3266756235   -0.6849349606
     15  C        -1.2295744141   -0.2222510589   -0.1574803624
     16  C        -2.6309407895    0.1446877927   -0.0743815463
     17  H        -3.6419633310   -1.7756822665   -0.1364856476
     18  C        -3.7277407303   -0.6965790165   -0.0840276482
     19  S        -3.1563042111    1.8163825385    0.0394826506
     20  C        -4.9714795892   -0.0102966390    0.0015873412
     21  C        -4.8261694116    1.3504584606    0.0799659457
     22  H        -5.9344965461   -0.5079847390    0.0106571507
     23  H        -5.5945201341    2.1071909180    0.1573757431
   Point Group: c1    Number of degrees of freedom:    63


   Energy is  -1656.662816412

              Constraints and their Current Values
                                        Value     Constraint
   Dihedral:       13  15  16  18       10.000       10.000
 Hessian Updated using BFGS Update

 57 Hessian modes will be used to form the next step
  Hessian Eigenvalues:
     0.027324    0.045000    0.045000    0.045001    0.045001    0.045001
     0.045003    0.045005    0.045009    0.045010    0.045013    0.045017
     0.045043    0.045929    0.158920    0.159927    0.159957    0.159960
     0.159987    0.159993    0.160000    0.160973    0.217981    0.221284
     0.226076    0.230470    0.238038    0.241821    0.249994    0.249999
     0.251203    0.287133    0.293649    0.294251    0.295148    0.301286
     0.312546    0.313686    0.354451    0.354743    0.354746    0.354764
     0.355164    0.355211    0.358372    0.358481    0.383317    0.394007
     0.405827    0.410507    0.446701    0.459142    0.460501    0.462623
     0.485205    0.497290    0.499483

 Minimum Search - Taking Simple RFO Step
 Searching for Lamda that Minimizes Along All modes
 Value Taken    Lamda =  -0.00000964
 Step Taken.  Stepsize is  0.016476

                             Maximum     Tolerance    Cnvgd?
         Gradient           0.000305      0.000300      NO
         Displacement       0.008789      0.001200      NO
         Energy change     -0.000020      0.000001      NO


 New Cartesian Coordinates Obtained by Inverse Iteration

 Displacement from previous Coordinates is:  0.033253
 ----------------------------------------------------------------
             Standard Nuclear Orientation (Angstroms)
    I     Atom           X                Y                Z
 ----------------------------------------------------------------
    1      H       6.2369423353    -0.2692678809     0.1748871070
    2      H       5.3340639632     2.1955164168    -0.1045489481
    3      C       5.2057260670     0.0428902840     0.0833592572
    4      C       4.7083908870     1.3113665209    -0.0615690886
    5      S       3.9379881229    -1.1412849287     0.1159263943
    6      C       3.2879059568     1.3407175573    -0.1624754182
    7      H       2.7145788346     2.2502047553    -0.3038350584
    8      C       2.7042392248     0.0909697175    -0.0915763281
    9      H       1.3039156180    -2.3685272080    -0.6959298446
   10      C       1.3013786398    -0.2650113694    -0.1646600256
   11      C       0.7228759359    -1.4843426632    -0.4580607509
   12      S       0.0574597391     0.9322714774     0.1456134452
   13      C      -0.6941639389    -1.4598788570    -0.4553603569
   14      H      -1.3038375348    -2.3244747328    -0.6896737920
   15      C      -1.2293719133    -0.2203053019    -0.1595885470
   16      C      -2.6306727096     0.1457699796    -0.0726001536
   17      H      -3.6403946924    -1.7760072235    -0.1273106730
   18      C      -3.7269127312    -0.6968809425    -0.0788014771
   19      S      -3.1576708790     1.8162468629     0.0342685184
   20      C      -4.9712709647    -0.0112061261     0.0039326840
   21      C      -4.8272674716     1.3500551923     0.0769641721
   22      H      -5.9340081168    -0.5093701969     0.0150856632
   23      H      -5.5958837221     2.1068199971     0.1517581705
 ----------------------------------------------------------------
 Nuclear Repulsion Energy =  1177.8202691822 hartrees
 There are       64 alpha and       64 beta electrons
 Applying Cartesian multipole field
    Component          Value
    ---------          -----
     (2,0,0)        1.00000E-12
     (0,2,0)        2.00000E-11
     (0,0,2)       -3.00000E-11
 Nucleus-field energy     =     0.0000000172 hartrees
 Requested basis set is 6-31++G(d,p)
 There are 110 shells and 345 basis functions
 A cutoff of  1.0D-12 yielded   4668 shell pairs
 There are     47541 function pairs

 Q-Chem warning in module /project/projectdirs/jcesr/qchem/qc44/cnl_qc441/compile/cori/qc_src/libqints/qchem/aobasis.C, line 68:

 Using reconstructed effective core potential

 Smallest overlap matrix eigenvalue = 6.08E-08
 Linear dependence detected in AO basis
 Number of orthogonalized atomic orbitals = 342
 Maximum deviation from orthogonality = 4.700E-11
 Guess MOs from SCF MO coefficient file
 Reading MOs from coefficient file
 Reading MOs from coefficient file
 A restricted hybrid HF-DFT SCF calculation will be
 performed using Pulay DIIS extrapolation
 Exchange:     0.2000 Hartree-Fock + 0.0800 Slater + 0.7200 B88
 Correlation:  0.1900 VWN1RPA + 0.8100 LYP
 Using SG-1 standard quadrature grid
 SCF converges when DIIS error is below 1.0E-08
 Geometry optimization detected.  Setting ReadMinima to 0
 Setting SaveMinima to 0
 ---------------------------------------
  Cycle       Energy         DIIS Error
 ---------------------------------------
    1   -1656.6631572369      1.23E-04
    2   -1656.6628202145      1.25E-05
    3   -1656.6628134936      2.38E-05
    4   -1656.6628232205      3.34E-06
    5   -1656.6628233695      1.53E-06
    6   -1656.6628234002      7.00E-07
    7   -1656.6628234056      1.90E-07
    8   -1656.6628234067      8.05E-08
    9   -1656.6628234075      2.35E-08
   10   -1656.6628234078      6.57E-09 Convergence criterion met
 ---------------------------------------
 SCF time:  CPU 11.14 s  wall 10.16 s
 SCF   energy in the final basis set = -1656.6628234078
 Total energy in the final basis set = -1656.6628234078
 
 --------------------------------------------------------------
 
                    Orbital Energies (a.u.)
 --------------------------------------------------------------
 
 Alpha MOs
 -- Occupied --
-88.922 -88.921 -88.921 -10.242 -10.241 -10.241 -10.240 -10.226
-10.226 -10.207 -10.206 -10.206 -10.206 -10.205 -10.204  -7.981
 -7.981  -7.980  -5.945  -5.945  -5.945  -5.942  -5.941  -5.941
 -5.938  -5.938  -5.937  -0.907  -0.892  -0.877  -0.788  -0.757
 -0.745  -0.745  -0.734  -0.697  -0.618  -0.597  -0.569  -0.564
 -0.538  -0.533  -0.530  -0.499  -0.463  -0.423  -0.421  -0.419
 -0.416  -0.409  -0.401  -0.397  -0.388  -0.376  -0.370  -0.363
 -0.352  -0.342  -0.298  -0.269  -0.263  -0.259  -0.250  -0.199
 -- Virtual --
 -0.073  -0.031  -0.014  -0.006  -0.004   0.003   0.008   0.011
  0.017   0.018   0.025   0.028   0.031   0.035   0.042   0.045
  0.049   0.052   0.055   0.056   0.066   0.068   0.077   0.080
  0.083   0.085   0.089   0.093   0.099   0.105   0.108   0.109
  0.113   0.114   0.121   0.125   0.126   0.130   0.131   0.133
  0.138   0.139   0.142   0.145   0.149   0.153   0.155   0.158
  0.165   0.171   0.172   0.175   0.181   0.185   0.189   0.192
  0.195   0.201   0.202   0.203   0.207   0.215   0.216   0.228
  0.230   0.241   0.243   0.247   0.249   0.259   0.261   0.268
  0.269   0.272   0.282   0.290   0.295   0.304   0.307   0.316
  0.321   0.327   0.333   0.346   0.349   0.358   0.366   0.373
  0.380   0.385   0.389   0.412   0.443   0.452   0.462   0.492
  0.503   0.519   0.530   0.536   0.566   0.572   0.579   0.584
  0.591   0.609   0.619   0.638   0.650   0.654   0.658   0.661
  0.667   0.672   0.678   0.686   0.691   0.715   0.716   0.718
  0.721   0.725   0.739   0.748   0.760   0.776   0.781   0.790
  0.809   0.817   0.824   0.831   0.838   0.851   0.877   0.897
  0.929   0.936   0.942   0.946   0.958   0.959   0.962   0.969
  0.974   0.983   0.995   0.998   1.001   1.010   1.027   1.041
  1.044   1.048   1.070   1.084   1.093   1.105   1.110   1.119
  1.138   1.155   1.163   1.184   1.191   1.208   1.224   1.239
  1.256   1.276   1.280   1.319   1.337   1.340   1.349   1.353
  1.360   1.364   1.374   1.445   1.468   1.487   1.507   1.516
  1.547   1.560   1.578   1.609   1.657   1.688   1.702   1.726
  1.790   1.828   1.855   1.872   1.888   1.898   1.911   1.917
  1.930   1.955   1.977   1.985   2.002   2.022   2.051   2.075
  2.081   2.088   2.123   2.149   2.164   2.177   2.190   2.208
  2.227   2.239   2.263   2.272   2.296   2.329   2.362   2.364
  2.414   2.427   2.452   2.457   2.465   2.479   2.486   2.505
  2.527   2.531   2.541   2.552   2.574   2.584   2.608   2.633
  2.665   2.688   2.705   2.721   2.727   2.788   2.852   2.869
  2.903   2.937   2.966   2.991   3.126   3.181   3.229   3.272
  3.273   3.324   3.412   3.418   3.664   3.733   3.744   3.944
  3.979   4.018   4.248   4.268   4.301   4.319   4.337   4.341
  4.385   4.475   4.558   4.635   4.700   4.742
 --------------------------------------------------------------
 
          Ground-State Mulliken Net Atomic Charges

     Atom                 Charge (a.u.)
  ----------------------------------------
      1 H                     0.194797
      2 H                     0.119936
      3 C                     0.007831
      4 C                    -0.364150
      5 S                    -0.065730
      6 C                     0.397955
      7 H                     0.127127
      8 C                    -0.266809
      9 H                     0.121590
     10 C                    -0.140638
     11 C                    -0.029933
     12 S                    -0.312082
     13 C                     0.108434
     14 H                     0.106161
     15 C                    -0.083761
     16 C                    -0.187595
     17 H                     0.105806
     18 C                     0.272850
     19 S                    -0.090513
     20 C                    -0.350320
     21 C                     0.006909
     22 H                     0.120667
     23 H                     0.201467
  ----------------------------------------
  Sum of atomic charges =     0.000000

 -----------------------------------------------------------------
                    Cartesian Multipole Moments
 -----------------------------------------------------------------
    Charge (ESU x 10^10)
                 0.0000
    Dipole Moment (Debye)
         X      -0.2618      Y      -0.4392      Z      -0.2446
       Tot       0.5669
    Quadrupole Moments (Debye-Ang)
        XX     -89.2274     XY       2.4081     YY    -100.8586
        XZ      -0.0387     YZ       1.2132     ZZ    -116.4760
    Octopole Moments (Debye-Ang^2)
       XXX     -25.1967    XXY      -5.4199    XYY     -14.7163
       YYY     -61.6875    XXZ      11.6137    XYZ      -4.1048
       YYZ       1.3566    XZZ      -9.4941    YZZ     -23.4318
       ZZZ      18.2088
    Hexadecapole Moments (Debye-Ang^3)
      XXXX   -6187.0000   XXXY     213.3395   XXYY   -1234.0188
      XYYY     270.3587   YYYY    -946.7816   XXXZ       8.7436
      XXYZ      -6.7941   XYYZ      -7.3930   YYYZ     -18.6161
      XXZZ   -1360.6114   XYZZ      87.3914   YYZZ    -208.0615
      XZZZ      -2.4527   YZZZ     -30.8988   ZZZZ    -178.4643
 -----------------------------------------------------------------
 Calculating analytic gradient of the SCF energy
 Gradient of SCF Energy
            1           2           3           4           5           6
    1   0.0000041   0.0000008   0.0000053   0.0000075   0.0000044   0.0000035
    2   0.0000074   0.0000010  -0.0000044   0.0000103   0.0000139  -0.0000035
    3   0.0000010  -0.0000114  -0.0000033  -0.0000034   0.0000089  -0.0000069
            7           8           9          10          11          12
    1  -0.0000050  -0.0000175  -0.0000071  -0.0000679  -0.0000260   0.0000652
    2  -0.0000025  -0.0000120  -0.0000138   0.0000258  -0.0000363   0.0000063
    3  -0.0000071   0.0000563   0.0000126  -0.0000580  -0.0000319  -0.0001672
           13          14          15          16          17          18
    1  -0.0000542   0.0000498  -0.0001154   0.0001973  -0.0000352  -0.0000122
    2  -0.0001762  -0.0000115   0.0003001   0.0000389   0.0000238  -0.0000628
    3   0.0004130   0.0000782  -0.0005890   0.0006242  -0.0000540  -0.0004244
           19          20          21          22          23
    1  -0.0000419   0.0000003   0.0000412   0.0000001   0.0000029
    2  -0.0000277  -0.0000395  -0.0000380  -0.0000094   0.0000100
    3   0.0001602   0.0000329   0.0000465  -0.0000180  -0.0000593
 Max gradient component =       6.242E-04
 RMS gradient           =       1.410E-04
 Gradient time:  CPU 4.58 s  wall 4.59 s
 Geometry Optimization Parameters
   NAtoms,    NIC,     NZ,  NCons,   NDum,   NFix, NCnnct, MaxDiis
       23     166       0       1       0       0       0       0

 Cartesian Hessian Update
 Hessian Updated using BFGS Update


** CONSTRAINED OPTIMIZATION IN DELOCALIZED INTERNAL COORDINATES **
   Searching for a Minimum

   Optimization Cycle:   4

                       Coordinates (Angstroms)
     ATOM                X               Y               Z
      1  H         6.2369423353   -0.2692678809    0.1748871070
      2  H         5.3340639632    2.1955164168   -0.1045489481
      3  C         5.2057260670    0.0428902840    0.0833592572
      4  C         4.7083908870    1.3113665209   -0.0615690886
      5  S         3.9379881229   -1.1412849287    0.1159263943
      6  C         3.2879059568    1.3407175573   -0.1624754182
      7  H         2.7145788346    2.2502047553   -0.3038350584
      8  C         2.7042392248    0.0909697175   -0.0915763281
      9  H         1.3039156180   -2.3685272080   -0.6959298446
     10  C         1.3013786398   -0.2650113694   -0.1646600256
     11  C         0.7228759359   -1.4843426632   -0.4580607509
     12  S         0.0574597391    0.9322714774    0.1456134452
     13  C        -0.6941639389   -1.4598788570   -0.4553603569
     14  H        -1.3038375348   -2.3244747328   -0.6896737920
     15  C        -1.2293719133   -0.2203053019   -0.1595885470
     16  C        -2.6306727096    0.1457699796   -0.0726001536
     17  H        -3.6403946924   -1.7760072235   -0.1273106730
     18  C        -3.7269127312   -0.6968809425   -0.0788014771
     19  S        -3.1576708790    1.8162468629    0.0342685184
     20  C        -4.9712709647   -0.0112061261    0.0039326840
     21  C        -4.8272674716    1.3500551923    0.0769641721
     22  H        -5.9340081168   -0.5093701969    0.0150856632
     23  H        -5.5958837221    2.1068199971    0.1517581705
   Point Group: c1    Number of degrees of freedom:    63


   Energy is  -1656.662823408

              Constraints and their Current Values
                                        Value     Constraint
   Dihedral:       13  15  16  18       10.000       10.000
 Hessian Updated using BFGS Update

 62 Hessian modes will be used to form the next step
  Hessian Eigenvalues:
     0.012128    0.045000    0.045000    0.045000    0.045000    0.045000
     0.045000    0.045001    0.045001    0.045002    0.045002    0.045003
     0.045004    0.045009    0.045009    0.045013    0.045018    0.045018
     0.046555    0.159915    0.159923    0.159957    0.159965    0.159991
     0.159998    0.160540    0.160906    0.221276    0.221716    0.226603
     0.238000    0.241523    0.245517    0.249956    0.249999    0.250619
     0.288535    0.293653    0.294450    0.295554    0.309967    0.312577
     0.319907    0.354740    0.354743    0.354758    0.355163    0.355167
     0.356054    0.358372    0.358839    0.384328    0.397311    0.405962
     0.410529    0.441653    0.459888    0.462103    0.475080    0.488904
     0.497290    0.499027

 Minimum Search - Taking Simple RFO Step
 Searching for Lamda that Minimizes Along All modes
 Value Taken    Lamda =  -0.00000889
 Step Taken.  Stepsize is  0.025351

                             Maximum     Tolerance    Cnvgd?
         Gradient           0.000256      0.000300     YES
         Displacement       0.013861      0.001200      NO
         Energy change     -0.000007      0.000001      NO


 New Cartesian Coordinates Obtained by Inverse Iteration

 Displacement from previous Coordinates is:  0.050244
 ----------------------------------------------------------------
             Standard Nuclear Orientation (Angstroms)
    I     Atom           X                Y                Z
 ----------------------------------------------------------------
    1      H       6.2369822233    -0.2691259979     0.1737974264
    2      H       5.3332609914     2.1960334754    -0.1000855847
    3      C       5.2056749862     0.0429667588     0.0831634647
    4      C       4.7078929622     1.3115758226    -0.0589889801
    5      S       3.9382967126    -1.1417261192     0.1131596791
    6      C       3.2874141702     1.3407305539    -0.1596980975
    7      H       2.7138211040     2.2503646191    -0.2990211226
    8      C       2.7041826760     0.0906277885    -0.0913428365
    9      H       1.3041054907    -2.3680233291    -0.7005626925
   10      C       1.3014496094    -0.2657629298    -0.1649195810
   11      C       0.7228002659    -1.4844283371    -0.4611829352
   12      S       0.0571836496     0.9306257508     0.1469373397
   13      C      -0.6942382096    -1.4596364223    -0.4600730444
   14      H      -1.3040577535    -2.3233493613    -0.6971946371
   15      C      -1.2291686075    -0.2199913242    -0.1631668048
   16      C      -2.6304794402     0.1454859456    -0.0708142005
   17      H      -3.6400982242    -1.7768927397    -0.1135265773
   18      C      -3.7267214612    -0.6975062613    -0.0718364002
   19      S      -3.1573668534     1.8159185057     0.0243930236
   20      C      -4.9709367064    -0.0111827347     0.0075832036
   21      C      -4.8269769813     1.3506118712     0.0720515315
   22      H      -5.9337642141    -0.5090471772     0.0232116996
   23      H      -5.5952457398     2.1080029723     0.1439210760
 ----------------------------------------------------------------
 Nuclear Repulsion Energy =  1177.8720569031 hartrees
 There are       64 alpha and       64 beta electrons
 Applying Cartesian multipole field
    Component          Value
    ---------          -----
     (2,0,0)        1.00000E-12
     (0,2,0)        2.00000E-11
     (0,0,2)       -3.00000E-11
 Nucleus-field energy     =     0.0000000172 hartrees
 Requested basis set is 6-31++G(d,p)
 There are 110 shells and 345 basis functions
 A cutoff of  1.0D-12 yielded   4669 shell pairs
 There are     47553 function pairs

 Q-Chem warning in module /project/projectdirs/jcesr/qchem/qc44/cnl_qc441/compile/cori/qc_src/libqints/qchem/aobasis.C, line 68:

 Using reconstructed effective core potential

 Smallest overlap matrix eigenvalue = 6.28E-08
 Linear dependence detected in AO basis
 Number of orthogonalized atomic orbitals = 342
 Maximum deviation from orthogonality = 8.839E-11
 Guess MOs from SCF MO coefficient file
 Reading MOs from coefficient file
 Reading MOs from coefficient file
 A restricted hybrid HF-DFT SCF calculation will be
 performed using Pulay DIIS extrapolation
 Exchange:     0.2000 Hartree-Fock + 0.0800 Slater + 0.7200 B88
 Correlation:  0.1900 VWN1RPA + 0.8100 LYP
 Using SG-1 standard quadrature grid
 SCF converges when DIIS error is below 1.0E-08
 Geometry optimization detected.  Setting ReadMinima to 0
 Setting SaveMinima to 0
 ---------------------------------------
  Cycle       Energy         DIIS Error
 ---------------------------------------
    1   -1656.6644362407      1.81E-04
    2   -1656.6628235918      1.57E-05
    3   -1656.6628119767      3.12E-05
    4   -1656.6628290901      4.50E-06
    5   -1656.6628293620      1.75E-06
    6   -1656.6628293919      1.11E-06
    7   -1656.6628294122      2.92E-07
    8   -1656.6628294129      1.23E-07
    9   -1656.6628294148      3.28E-08
   10   -1656.6628294141      9.40E-09 Convergence criterion met
 ---------------------------------------
 SCF time:  CPU 11.12 s  wall 10.22 s
 SCF   energy in the final basis set = -1656.6628294141
 Total energy in the final basis set = -1656.6628294141
 
 --------------------------------------------------------------
 
                    Orbital Energies (a.u.)
 --------------------------------------------------------------
 
 Alpha MOs
 -- Occupied --
-88.922 -88.921 -88.921 -10.242 -10.241 -10.241 -10.240 -10.226
-10.226 -10.207 -10.206 -10.206 -10.206 -10.205 -10.204  -7.981
 -7.981  -7.980  -5.945  -5.945  -5.945  -5.942  -5.941  -5.941
 -5.938  -5.938  -5.937  -0.907  -0.892  -0.877  -0.788  -0.757
 -0.745  -0.745  -0.734  -0.697  -0.618  -0.597  -0.569  -0.564
 -0.538  -0.533  -0.530  -0.499  -0.463  -0.423  -0.421  -0.419
 -0.416  -0.409  -0.401  -0.397  -0.388  -0.376  -0.370  -0.363
 -0.352  -0.342  -0.298  -0.269  -0.263  -0.259  -0.250  -0.199
 -- Virtual --
 -0.073  -0.031  -0.014  -0.006  -0.004   0.003   0.008   0.011
  0.017   0.018   0.025   0.028   0.031   0.035   0.042   0.045
  0.049   0.052   0.055   0.056   0.066   0.068   0.077   0.080
  0.083   0.085   0.089   0.093   0.099   0.105   0.108   0.109
  0.113   0.114   0.122   0.125   0.126   0.130   0.131   0.133
  0.138   0.139   0.142   0.146   0.149   0.153   0.155   0.157
  0.165   0.171   0.172   0.175   0.181   0.186   0.189   0.192
  0.195   0.201   0.202   0.203   0.207   0.215   0.216   0.228
  0.230   0.241   0.243   0.247   0.249   0.259   0.261   0.268
  0.269   0.272   0.281   0.290   0.294   0.304   0.306   0.315
  0.320   0.327   0.333   0.346   0.349   0.357   0.365   0.373
  0.380   0.385   0.389   0.411   0.443   0.452   0.462   0.492
  0.503   0.519   0.530   0.536   0.566   0.572   0.579   0.584
  0.591   0.609   0.619   0.638   0.650   0.654   0.658   0.661
  0.667   0.672   0.679   0.685   0.691   0.715   0.716   0.719
  0.721   0.725   0.739   0.748   0.760   0.776   0.781   0.790
  0.808   0.817   0.824   0.831   0.838   0.851   0.877   0.898
  0.929   0.936   0.942   0.946   0.958   0.959   0.962   0.969
  0.974   0.983   0.995   0.998   1.000   1.009   1.027   1.041
  1.044   1.048   1.070   1.084   1.093   1.105   1.110   1.118
  1.138   1.155   1.163   1.184   1.191   1.208   1.224   1.238
  1.256   1.276   1.279   1.319   1.337   1.340   1.349   1.353
  1.360   1.364   1.374   1.444   1.468   1.487   1.507   1.516
  1.548   1.560   1.577   1.610   1.658   1.688   1.702   1.726
  1.790   1.828   1.855   1.872   1.888   1.898   1.911   1.917
  1.930   1.955   1.977   1.985   2.002   2.022   2.050   2.075
  2.081   2.088   2.123   2.150   2.164   2.177   2.190   2.208
  2.227   2.240   2.263   2.272   2.296   2.329   2.362   2.364
  2.414   2.427   2.452   2.457   2.465   2.478   2.486   2.505
  2.528   2.531   2.541   2.552   2.574   2.584   2.608   2.633
  2.665   2.688   2.705   2.721   2.727   2.788   2.852   2.869
  2.904   2.936   2.966   2.990   3.126   3.181   3.229   3.271
  3.273   3.324   3.412   3.418   3.664   3.733   3.744   3.944
  3.979   4.018   4.248   4.268   4.301   4.319   4.337   4.341
  4.385   4.475   4.558   4.635   4.700   4.742
 --------------------------------------------------------------
 
          Ground-State Mulliken Net Atomic Charges

     Atom                 Charge (a.u.)
  ----------------------------------------
      1 H                     0.194809
      2 H                     0.119943
      3 C                     0.008557
      4 C                    -0.365665
      5 S                    -0.066666
      6 C                     0.401166
      7 H                     0.127042
      8 C                    -0.267336
      9 H                     0.121675
     10 C                    -0.141086
     11 C                    -0.026356
     12 S                    -0.306531
     13 C                     0.102887
     14 H                     0.106518
     15 C                    -0.094439
     16 C                    -0.188677
     17 H                     0.106667
     18 C                     0.276732
     19 S                    -0.093196
     20 C                    -0.346559
     21 C                     0.008516
     22 H                     0.120605
     23 H                     0.201395
  ----------------------------------------
  Sum of atomic charges =     0.000000

 -----------------------------------------------------------------
                    Cartesian Multipole Moments
 -----------------------------------------------------------------
    Charge (ESU x 10^10)
                 0.0000
    Dipole Moment (Debye)
         X      -0.2619      Y      -0.4368      Z      -0.2422
       Tot       0.5639
    Quadrupole Moments (Debye-Ang)
        XX     -89.2341     XY       2.4011     YY    -100.8580
        XZ      -0.0455     YZ       1.2030     ZZ    -116.4724
    Octopole Moments (Debye-Ang^2)
       XXX     -25.2085    XXY      -5.3621    XYY     -14.7399
       YYY     -61.5515    XXZ      11.8078    XYZ      -3.8941
       YYZ       1.4640    XZZ      -9.4986    YZZ     -23.4198
       ZZZ      18.6121
    Hexadecapole Moments (Debye-Ang^3)
      XXXX   -6186.7835   XXXY     213.1469   XXYY   -1233.7576
      XYYY     270.3706   YYYY    -946.6292   XXXZ       7.6068
      XXYZ      -7.1851   XYYZ      -7.3901   YYYZ     -18.2985
      XXZZ   -1360.6221   XYZZ      87.4271   YYZZ    -208.0364
      XZZZ      -3.2456   YZZZ     -30.4644   ZZZZ    -178.5945
 -----------------------------------------------------------------
 Calculating analytic gradient of the SCF energy
 Gradient of SCF Energy
            1           2           3           4           5           6
    1  -0.0000017  -0.0000013   0.0000190  -0.0000181  -0.0000183   0.0000218
    2   0.0000029   0.0000034   0.0000123   0.0000035  -0.0000041   0.0000114
    3  -0.0000039  -0.0000099   0.0000090  -0.0000063  -0.0000032  -0.0000197
            7           8           9          10          11          12
    1  -0.0000023   0.0000024   0.0000162   0.0000510  -0.0001148  -0.0001659
    2   0.0000036   0.0000229   0.0000097   0.0000332  -0.0000435  -0.0002789
    3  -0.0000073   0.0000649   0.0000217  -0.0000331   0.0000054  -0.0001806
           13          14          15          16          17          18
    1  -0.0000147   0.0000515   0.0001105   0.0001701  -0.0000400  -0.0001239
    2  -0.0003474  -0.0000030   0.0007192   0.0003396   0.0000279  -0.0001719
    3   0.0004982   0.0000575  -0.0010253   0.0011963  -0.0000476  -0.0005515
           19          20          21          22          23
    1   0.0000113   0.0000731  -0.0000384  -0.0000052   0.0000176
    2  -0.0003856  -0.0000745   0.0000771   0.0000163   0.0000260
    3   0.0000592  -0.0000158   0.0000606  -0.0000134  -0.0000552
 Max gradient component =       1.196E-03
 RMS gradient           =       2.476E-04
 Gradient time:  CPU 4.59 s  wall 4.59 s
 Geometry Optimization Parameters
   NAtoms,    NIC,     NZ,  NCons,   NDum,   NFix, NCnnct, MaxDiis
       23     166       0       1       0       0       0       0

 Cartesian Hessian Update
 Hessian Updated using BFGS Update


** CONSTRAINED OPTIMIZATION IN DELOCALIZED INTERNAL COORDINATES **
   Searching for a Minimum

   Optimization Cycle:   5

                       Coordinates (Angstroms)
     ATOM                X               Y               Z
      1  H         6.2369822233   -0.2691259979    0.1737974264
      2  H         5.3332609914    2.1960334754   -0.1000855847
      3  C         5.2056749862    0.0429667588    0.0831634647
      4  C         4.7078929622    1.3115758226   -0.0589889801
      5  S         3.9382967126   -1.1417261192    0.1131596791
      6  C         3.2874141702    1.3407305539   -0.1596980975
      7  H         2.7138211040    2.2503646191   -0.2990211226
      8  C         2.7041826760    0.0906277885   -0.0913428365
      9  H         1.3041054907   -2.3680233291   -0.7005626925
     10  C         1.3014496094   -0.2657629298   -0.1649195810
     11  C         0.7228002659   -1.4844283371   -0.4611829352
     12  S         0.0571836496    0.9306257508    0.1469373397
     13  C        -0.6942382096   -1.4596364223   -0.4600730444
     14  H        -1.3040577535   -2.3233493613   -0.6971946371
     15  C        -1.2291686075   -0.2199913242   -0.1631668048
     16  C        -2.6304794402    0.1454859456   -0.0708142005
     17  H        -3.6400982242   -1.7768927397   -0.1135265773
     18  C        -3.7267214612   -0.6975062613   -0.0718364002
     19  S        -3.1573668534    1.8159185057    0.0243930236
     20  C        -4.9709367064   -0.0111827347    0.0075832036
     21  C        -4.8269769813    1.3506118712    0.0720515315
     22  H        -5.9337642141   -0.5090471772    0.0232116996
     23  H        -5.5952457398    2.1080029723    0.1439210760
   Point Group: c1    Number of degrees of freedom:    63


   Energy is  -1656.662829414

              Constraints and their Current Values
                                        Value     Constraint
   Dihedral:       13  15  16  18       10.000       10.000
 Hessian Updated using BFGS Update

 59 Hessian modes will be used to form the next step
  Hessian Eigenvalues:
     0.007550    0.044835    0.045000    0.045000    0.045001    0.045001
     0.045001    0.045002    0.045003    0.045004    0.045009    0.045009
     0.045015    0.045016    0.045105    0.045680    0.159914    0.159953
     0.159963    0.159983    0.159998    0.160049    0.160177    0.160845
     0.221277    0.222690    0.226601    0.228299    0.238370    0.242159
     0.249999    0.250071    0.250810    0.288917    0.293672    0.294425
     0.295622    0.312484    0.313135    0.345267    0.354738    0.354746
     0.354761    0.355153    0.355165    0.356974    0.358377    0.359305
     0.384455    0.396226    0.406039    0.410560    0.440627    0.459922
     0.462095    0.479665    0.495524    0.497309    0.502989

 Minimum Search - Taking Simple RFO Step
 Searching for Lamda that Minimizes Along All modes
 Value Taken    Lamda =  -0.00000440
 Step Taken.  Stepsize is  0.019962

                             Maximum     Tolerance    Cnvgd?
         Gradient           0.000316      0.000300      NO
         Displacement       0.010863      0.001200      NO
         Energy change     -0.000006      0.000001      NO


 New Cartesian Coordinates Obtained by Inverse Iteration

 Displacement from previous Coordinates is:  0.039774
 ----------------------------------------------------------------
             Standard Nuclear Orientation (Angstroms)
    I     Atom           X                Y                Z
 ----------------------------------------------------------------
    1      H       6.2370431646    -0.2691516025     0.1727849844
    2      H       5.3328186022     2.1963210327    -0.0965842114
    3      C       5.2056684812     0.0429330058     0.0828675980
    4      C       4.7076169188     1.3116773163    -0.0569826605
    5      S       3.9384859246    -1.1420166975     0.1109708136
[...]
    5   -1656.6628331745      7.52E-07
    6   -1656.6628331811      3.31E-07
    7   -1656.6628331813      1.23E-07
    8   -1656.6628331825      3.76E-08
    9   -1656.6628331833      1.03E-08
   10   -1656.6628331840      3.26E-09 Convergence criterion met
 ---------------------------------------
 SCF time:  CPU 10.96 s  wall 9.99 s
 SCF   energy in the final basis set = -1656.6628331840
 Total energy in the final basis set = -1656.6628331840
 
 --------------------------------------------------------------
 
                    Orbital Energies (a.u.)
 --------------------------------------------------------------
 
 Alpha MOs
 -- Occupied --
-88.922 -88.921 -88.921 -10.242 -10.241 -10.241 -10.240 -10.226
-10.226 -10.207 -10.206 -10.206 -10.206 -10.205 -10.204  -7.981
 -7.981  -7.980  -5.945  -5.945  -5.945  -5.942  -5.941  -5.941
 -5.938  -5.938  -5.937  -0.907  -0.892  -0.876  -0.788  -0.757
 -0.745  -0.745  -0.734  -0.697  -0.618  -0.597  -0.569  -0.564
 -0.538  -0.533  -0.530  -0.499  -0.463  -0.423  -0.421  -0.419
 -0.416  -0.409  -0.401  -0.397  -0.388  -0.376  -0.370  -0.363
 -0.352  -0.342  -0.298  -0.269  -0.263  -0.259  -0.250  -0.199
 -- Virtual --
 -0.073  -0.031  -0.014  -0.006  -0.004   0.003   0.008   0.011
  0.017   0.018   0.025   0.028   0.031   0.035   0.042   0.044
  0.049   0.052   0.055   0.056   0.066   0.068   0.077   0.080
  0.083   0.086   0.089   0.094   0.099   0.105   0.108   0.109
  0.113   0.114   0.122   0.125   0.126   0.130   0.131   0.133
  0.138   0.139   0.142   0.146   0.149   0.153   0.155   0.157
  0.164   0.171   0.173   0.175   0.181   0.186   0.189   0.192
  0.195   0.201   0.202   0.203   0.207   0.215   0.216   0.228
  0.230   0.241   0.243   0.246   0.249   0.259   0.261   0.268
  0.269   0.272   0.281   0.290   0.294   0.304   0.306   0.315
  0.320   0.327   0.333   0.346   0.349   0.357   0.365   0.373
  0.379   0.385   0.389   0.411   0.443   0.452   0.461   0.492
  0.503   0.519   0.530   0.536   0.566   0.571   0.579   0.583
  0.591   0.609   0.619   0.638   0.650   0.654   0.658   0.661
  0.667   0.672   0.679   0.683   0.691   0.715   0.716   0.719
  0.721   0.725   0.739   0.748   0.759   0.776   0.781   0.790
  0.808   0.817   0.824   0.831   0.838   0.851   0.877   0.898
  0.929   0.936   0.942   0.946   0.957   0.959   0.961   0.969
  0.975   0.983   0.995   0.998   1.000   1.009   1.027   1.040
  1.044   1.048   1.070   1.084   1.092   1.105   1.110   1.118
  1.138   1.155   1.163   1.184   1.191   1.208   1.224   1.237
  1.256   1.276   1.279   1.318   1.337   1.340   1.349   1.353
  1.360   1.364   1.375   1.442   1.468   1.486   1.506   1.515
  1.548   1.560   1.576   1.611   1.659   1.688   1.702   1.726
  1.790   1.828   1.855   1.872   1.888   1.898   1.911   1.917
  1.930   1.955   1.976   1.984   2.002   2.022   2.050   2.075
  2.081   2.088   2.123   2.150   2.165   2.177   2.190   2.207
  2.227   2.240   2.263   2.272   2.295   2.329   2.362   2.364
  2.413   2.427   2.452   2.457   2.465   2.478   2.486   2.505
  2.528   2.531   2.541   2.551   2.574   2.584   2.608   2.633
  2.665   2.688   2.705   2.721   2.727   2.788   2.852   2.869
  2.904   2.936   2.965   2.990   3.126   3.181   3.229   3.271
  3.273   3.324   3.412   3.418   3.664   3.733   3.744   3.944
  3.979   4.018   4.248   4.267   4.301   4.319   4.337   4.340
  4.385   4.475   4.558   4.635   4.700   4.742
 --------------------------------------------------------------
 
          Ground-State Mulliken Net Atomic Charges

     Atom                 Charge (a.u.)
  ----------------------------------------
      1 H                     0.194835
      2 H                     0.119937
      3 C                     0.009677
      4 C                    -0.367956
      5 S                    -0.068116
      6 C                     0.406243
      7 H                     0.126994
      8 C                    -0.269225
      9 H                     0.121801
     10 C                    -0.141981
     11 C                    -0.022885
     12 S                    -0.300154
     13 C                     0.098334
     14 H                     0.106971
     15 C                    -0.105920
     16 C                    -0.189911
     17 H                     0.107652
     18 C                     0.282378
     19 S                    -0.096703
     20 C                    -0.343598
     21 C                     0.009827
     22 H                     0.120539
     23 H                     0.201261
  ----------------------------------------
  Sum of atomic charges =     0.000000

 -----------------------------------------------------------------
                    Cartesian Multipole Moments
 -----------------------------------------------------------------
    Charge (ESU x 10^10)
                 0.0000
    Dipole Moment (Debye)
         X      -0.2614      Y      -0.4378      Z      -0.2368
       Tot       0.5622
    Quadrupole Moments (Debye-Ang)
        XX     -89.2262     XY       2.4024     YY    -100.8595
        XZ      -0.0690     YZ       1.1948     ZZ    -116.4701
    Octopole Moments (Debye-Ang^2)
       XXX     -25.2142    XXY      -5.3472    XYY     -14.7412
       YYY     -61.4620    XXZ      12.1522    XYZ      -3.6644
       YYZ       1.6147    XZZ      -9.4928    YZZ     -23.4347
       ZZZ      19.1229
    Hexadecapole Moments (Debye-Ang^3)
      XXXX   -6186.3650   XXXY     213.2074   XXYY   -1233.6407
      XYYY     270.5535   YYYY    -946.7647   XXXZ       5.4791
      XXYZ      -7.5499   XYYZ      -7.5267   YYYZ     -17.8401
      XXZZ   -1360.6691   XYZZ      87.5231   YYZZ    -208.0617
      XZZZ      -4.4441   YZZZ     -29.8832   ZZZZ    -178.7880
 -----------------------------------------------------------------
 Calculating analytic gradient of the SCF energy
 Gradient of SCF Energy
            1           2           3           4           5           6
    1  -0.0000016  -0.0000010   0.0000064  -0.0000054  -0.0000073   0.0000028
    2   0.0000023   0.0000039   0.0000110  -0.0000018  -0.0000043   0.0000053
    3  -0.0000023  -0.0000069   0.0000044  -0.0000075   0.0000010  -0.0000134
            7           8           9          10          11          12
    1   0.0000010  -0.0000041   0.0000111   0.0000489  -0.0000427  -0.0000832
    2   0.0000019   0.0000077   0.0000027   0.0000055  -0.0000028  -0.0000776
    3  -0.0000069   0.0000133   0.0000135  -0.0000044   0.0000078  -0.0000192
           13          14          15          16          17          18
    1   0.0000190   0.0000008   0.0000649   0.0000378   0.0000010  -0.0000783
    2  -0.0002420   0.0000015   0.0004367  -0.0000759   0.0000036   0.0000154
    3   0.0007945   0.0000178  -0.0017562   0.0018200  -0.0000071  -0.0008152
           19          20          21          22          23
    1   0.0000264   0.0000346  -0.0000299  -0.0000044   0.0000033
    2  -0.0001129  -0.0000227   0.0000342   0.0000061   0.0000023
    3  -0.0000220  -0.0000164   0.0000142   0.0000095  -0.0000186
 Max gradient component =       1.820E-03
 RMS gradient           =       3.405E-04
 Gradient time:  CPU 4.58 s  wall 4.59 s
 Geometry Optimization Parameters
   NAtoms,    NIC,     NZ,  NCons,   NDum,   NFix, NCnnct, MaxDiis
       23     166       0       1       0       0       0       0

 Cartesian Hessian Update
 Hessian Updated using BFGS Update


** CONSTRAINED OPTIMIZATION IN DELOCALIZED INTERNAL COORDINATES **
   Searching for a Minimum

   Optimization Cycle:   7

                       Coordinates (Angstroms)
     ATOM                X               Y               Z
      1  H         6.2369485919   -0.2693834043    0.1726237709
      2  H         5.3327699739    2.1962788117   -0.0950964871
      3  C         5.2055750722    0.0427519171    0.0828668884
      4  C         4.7075652818    1.3116111029   -0.0561099192
      5  S         3.9384475819   -1.1422417330    0.1102193538
      6  C         3.2870397398    1.3407587501   -0.1564514544
      7  H         2.7132586506    2.2506229312   -0.2934180571
      8  C         2.7040607685    0.0904011818   -0.0910923003
      9  H         1.3049348024   -2.3669303167   -0.7058531127
     10  C         1.3013547791   -0.2660233019   -0.1649299195
     11  C         0.7233048713   -1.4840776200   -0.4645148268
     12  S         0.0566906879    0.9295993173    0.1488883085
     13  C        -0.6938569194   -1.4595655433   -0.4649328123
     14  H        -1.3035783638   -2.3224635704   -0.7055833462
     15  C        -1.2294023618   -0.2205801028   -0.1678228296
     16  C        -2.6305831726    0.1443830469   -0.0700888864
     17  H        -3.6400161125   -1.7776981919   -0.0981144600
     18  C        -3.7268965301   -0.6979737711   -0.0651067244
     19  S        -3.1571661371    1.8164096776    0.0119805070
     20  C        -4.9709780956   -0.0109133117    0.0118432543
     21  C        -4.8267000665    1.3512045110    0.0663062060
     22  H        -5.9337561783   -0.5086401492    0.0338455153
     23  H        -5.5950062137    2.1087410986    0.1363462817
   Point Group: c1    Number of degrees of freedom:    63


   Energy is  -1656.662833184

              Constraints and their Current Values
                                        Value     Constraint
   Dihedral:       13  15  16  18       10.000       10.000
 Hessian Updated using BFGS Update

 59 Hessian modes will be used to form the next step
  Hessian Eigenvalues:
     0.007256    0.041818    0.045000    0.045000    0.045000    0.045001
     0.045001    0.045002    0.045003    0.045004    0.045006    0.045009
     0.045010    0.045015    0.045017    0.045055    0.045647    0.155393
     0.159924    0.159957    0.159965    0.159998    0.160006    0.160172
     0.160665    0.189560    0.221352    0.224022    0.228976    0.238737
     0.242195    0.249998    0.250045    0.250649    0.274114    0.289259
     0.293680    0.294470    0.296113    0.312556    0.314728    0.354720
     0.354760    0.354910    0.355165    0.355303    0.358378    0.358672
     0.384197    0.397241    0.406219    0.410497    0.441120    0.459928
     0.461493    0.464523    0.482293    0.497340    0.497713

 Minimum Search - Taking Simple RFO Step
 Searching for Lamda that Minimizes Along All modes
 Value Taken    Lamda =   0.00000000
 Step Taken.  Stepsize is  0.001124

                             Maximum     Tolerance    Cnvgd?
         Gradient           0.000076      0.000300     YES
         Displacement       0.000363      0.001200     YES
         Energy change     -0.000001      0.000001     YES

 Final energy is   -1656.66283318398     


 ******************************
 **  OPTIMIZATION CONVERGED  **
 ******************************

                       Coordinates (Angstroms)
     ATOM                X               Y               Z
      1  H         6.2369485919   -0.2693834043    0.1726237709
      2  H         5.3327699739    2.1962788117   -0.0950964871
      3  C         5.2055750722    0.0427519171    0.0828668884
      4  C         4.7075652818    1.3116111029   -0.0561099192
      5  S         3.9384475819   -1.1422417330    0.1102193538
      6  C         3.2870397398    1.3407587501   -0.1564514544
      7  H         2.7132586506    2.2506229312   -0.2934180571
      8  C         2.7040607685    0.0904011818   -0.0910923003
      9  H         1.3049348024   -2.3669303167   -0.7058531127
     10  C         1.3013547791   -0.2660233019   -0.1649299195
     11  C         0.7233048713   -1.4840776200   -0.4645148268
     12  S         0.0566906879    0.9295993173    0.1488883085
     13  C        -0.6938569194   -1.4595655433   -0.4649328123
     14  H        -1.3035783638   -2.3224635704   -0.7055833462
     15  C        -1.2294023618   -0.2205801028   -0.1678228296
     16  C        -2.6305831726    0.1443830469   -0.0700888864
     17  H        -3.6400161125   -1.7776981919   -0.0981144600
     18  C        -3.7268965301   -0.6979737711   -0.0651067244
     19  S        -3.1571661371    1.8164096776    0.0119805070
     20  C        -4.9709780956   -0.0109133117    0.0118432543
     21  C        -4.8267000665    1.3512045110    0.0663062060
     22  H        -5.9337561783   -0.5086401492    0.0338455153
     23  H        -5.5950062137    2.1087410986    0.1363462817

Z-matrix Print:
$molecule
0 1
S 
C  1 1.754190
C  2 1.381141 1 110.056126
H  3 1.084420 2 122.805312 1 179.189670 0
C  3 1.417374 2 113.783406 1 0.943432 0
H  5 1.083636 3 123.289728 2 178.308940 0
C  5 1.382088 3 113.757846 2 0.112370 0
C  2 1.449163 1 120.666494 3 179.983005 0
C  8 1.381134 2 128.963274 1 -19.664210 0
H  9 1.084360 8 122.837228 2 -0.923048 0
C  9 1.424363 8 113.522224 2 -179.632707 0
H  11 1.083992 9 123.777765 8 179.532133 0
C  11 1.370158 9 112.866536 8 0.109612 0
H  13 1.081303 11 128.493775 9 179.522584 0
C  7 1.451226 5 127.883054 3 -179.232674 0
C  15 1.382567 7 127.779876 5 10.000000 0
H  16 1.083717 15 122.911655 7 2.514487 0
C  16 1.423275 15 113.528213 7 -178.563133 0
H  18 1.084047 16 123.763909 15 -179.547816 0
C  18 1.370820 16 112.943131 15 -0.037154 0
H  20 1.081232 18 128.605986 16 -179.467338 0
S  20 1.733987 18 111.510754 16 0.427199 0
S  13 1.735099 11 111.630720 9 -0.600054 0
$end

 
 --------------------------------------------------------------
 
                    Orbital Energies (a.u.)
 --------------------------------------------------------------
 
 Alpha MOs
 -- Occupied --
-88.922 -88.921 -88.921 -10.242 -10.241 -10.241 -10.240 -10.226
-10.226 -10.207 -10.206 -10.206 -10.206 -10.205 -10.204  -7.981
 -7.981  -7.980  -5.945  -5.945  -5.945  -5.942  -5.941  -5.941
 -5.938  -5.938  -5.937  -0.907  -0.892  -0.876  -0.788  -0.757
 -0.745  -0.745  -0.734  -0.697  -0.618  -0.597  -0.569  -0.564
 -0.538  -0.533  -0.530  -0.499  -0.463  -0.423  -0.421  -0.419
 -0.416  -0.409  -0.401  -0.397  -0.388  -0.376  -0.370  -0.363
 -0.352  -0.342  -0.298  -0.269  -0.263  -0.259  -0.250  -0.199
 -- Virtual --
 -0.073  -0.031  -0.014  -0.006  -0.004   0.003   0.008   0.011
  0.017   0.018   0.025   0.028   0.031   0.035   0.042   0.044
  0.049   0.052   0.055   0.056   0.066   0.068   0.077   0.080
  0.083   0.086   0.089   0.094   0.099   0.105   0.108   0.109
  0.113   0.114   0.122   0.125   0.126   0.130   0.131   0.133
  0.138   0.139   0.142   0.146   0.149   0.153   0.155   0.157
  0.164   0.171   0.173   0.175   0.181   0.186   0.189   0.192
  0.195   0.201   0.202   0.203   0.207   0.215   0.216   0.228
  0.230   0.241   0.243   0.246   0.249   0.259   0.261   0.268
  0.269   0.272   0.281   0.290   0.294   0.304   0.306   0.315
  0.320   0.327   0.333   0.346   0.349   0.357   0.365   0.373
  0.379   0.385   0.389   0.411   0.443   0.452   0.461   0.492
  0.503   0.519   0.530   0.536   0.566   0.571   0.579   0.583
  0.591   0.609   0.619   0.638   0.650   0.654   0.658   0.661
  0.667   0.672   0.679   0.683   0.691   0.715   0.716   0.719
  0.721   0.725   0.739   0.748   0.759   0.776   0.781   0.790
  0.808   0.817   0.824   0.831   0.838   0.851   0.877   0.898
  0.929   0.936   0.942   0.946   0.957   0.959   0.961   0.969
  0.975   0.983   0.995   0.998   1.000   1.009   1.027   1.040
  1.044   1.048   1.070   1.084   1.092   1.105   1.110   1.118
  1.138   1.155   1.163   1.184   1.191   1.208   1.224   1.237
  1.256   1.276   1.279   1.318   1.337   1.340   1.349   1.353
  1.360   1.364   1.375   1.442   1.468   1.486   1.506   1.515
  1.548   1.560   1.576   1.611   1.659   1.688   1.702   1.726
  1.790   1.828   1.855   1.872   1.888   1.898   1.911   1.917
  1.930   1.955   1.976   1.984   2.002   2.022   2.050   2.075
  2.081   2.088   2.123   2.150   2.165   2.177   2.190   2.207
  2.227   2.240   2.263   2.272   2.295   2.329   2.362   2.364
  2.413   2.427   2.452   2.457   2.465   2.478   2.486   2.505
  2.528   2.531   2.541   2.551   2.574   2.584   2.608   2.633
  2.665   2.688   2.705   2.721   2.727   2.788   2.852   2.869
  2.904   2.936   2.965   2.990   3.126   3.181   3.229   3.271
  3.273   3.324   3.412   3.418   3.664   3.733   3.744   3.944
  3.979   4.018   4.248   4.267   4.301   4.319   4.337   4.340
  4.385   4.475   4.558   4.635   4.700   4.742
 --------------------------------------------------------------
 
          Ground-State Mulliken Net Atomic Charges

     Atom                 Charge (a.u.)
  ----------------------------------------
      1 H                     0.194835
      2 H                     0.119937
      3 C                     0.009677
      4 C                    -0.367956
      5 S                    -0.068116
      6 C                     0.406243
      7 H                     0.126994
      8 C                    -0.269225
      9 H                     0.121801
     10 C                    -0.141981
     11 C                    -0.022885
     12 S                    -0.300154
     13 C                     0.098334
     14 H                     0.106971
     15 C                    -0.105920
     16 C                    -0.189911
     17 H                     0.107652
     18 C                     0.282378
     19 S                    -0.096703
     20 C                    -0.343598
     21 C                     0.009827
     22 H                     0.120539
     23 H                     0.201261
  ----------------------------------------
  Sum of atomic charges =     0.000000

 -----------------------------------------------------------------
                    Cartesian Multipole Moments
 -----------------------------------------------------------------
    Charge (ESU x 10^10)
                 0.0000
    Dipole Moment (Debye)
         X      -0.2614      Y      -0.4378      Z      -0.2368
       Tot       0.5622
    Quadrupole Moments (Debye-Ang)
        XX     -89.2262     XY       2.4024     YY    -100.8595
        XZ      -0.0690     YZ       1.1948     ZZ    -116.4701
    Octopole Moments (Debye-Ang^2)
       XXX     -25.2142    XXY      -5.3472    XYY     -14.7412
       YYY     -61.4620    XXZ      12.1522    XYZ      -3.6644
       YYZ       1.6147    XZZ      -9.4928    YZZ     -23.4347
       ZZZ      19.1229
    Hexadecapole Moments (Debye-Ang^3)
      XXXX   -6186.3650   XXXY     213.2074   XXYY   -1233.6407
      XYYY     270.5535   YYYY    -946.7647   XXXZ       5.4791
      XXYZ      -7.5499   XYYZ      -7.5267   YYYZ     -17.8401
      XXZZ   -1360.6691   XYZZ      87.5231   YYZZ    -208.0617
      XZZZ      -4.4441   YZZZ     -29.8832   ZZZZ    -178.7880
 -----------------------------------------------------------------
Archival summary:
1\1\nid00481\OPT\ProcedureUnspecified\BasisUnspecified\3128\bwood\TueMay3010:54:382017TueMay3010:54:382017\0\\#,OPT,ProcedureUnspecified,BasisUnspecified,\\0,1\S\C,1,1.75419\C,2,1.38114,1,110.056\H,3,1.08442,2,122.805,1,179.19,0\C,3,1.41737,2,113.783,1,0.943432,0\H,5,1.08364,3,123.29,2,178.309,0\C,5,1.38209,3,113.758,2,0.11237,0\C,2,1.44916,1,120.666,3,179.983,0\C,8,1.38113,2,128.963,1,-19.6642,0\H,9,1.08436,8,122.837,2,-0.923048,0\C,9,1.42436,8,113.522,2,-179.633,0\H,11,1.08399,9,123.778,8,179.532,0\C,11,1.37016,9,112.867,8,0.109612,0\H,13,1.0813,11,128.494,9,179.523,0\C,7,1.45123,5,127.883,3,-179.233,0\C,15,1.38257,7,127.78,5,10,0\H,16,1.08372,15,122.912,7,2.51449,0\C,16,1.42328,15,113.528,7,-178.563,0\H,18,1.08405,16,123.764,15,-179.548,0\C,18,1.37082,16,112.943,15,-0.0371542,0\H,20,1.08123,18,128.606,16,-179.467,0\S,20,1.73399,18,111.511,16,0.427199,0\S,13,1.7351,11,111.631,9,-0.600054,0\\\@

 Total job time:  115.86s(wall), 123.07s(cpu) 
 Tue May 30 10:54:38 2017

        *************************************************************
        *                                                           *
        *  Thank you very much for using Q-Chem.  Have a nice day.  *
        *                                                           *
        *************************************************************


0 sent ACK to 0 
now end server 0 ... 
