srun -N 1 --ntasks-per-node 22 --cpus-per-task 2 --cpu_bind=cores --nodelist nid00480 /global/project/projectdirs/jcesr/qchem/qc44/cnl_qc441/dist/exe/qcprog.cori.haswell.exe .pt_nn_neutral_-120.0.in.37436.qcin.1 /dev/shm/eg_qchem/qchem37436/
Process 1 of 22 is on nid00480 - thread support 0
Process 2 of 22 is on nid00480 - thread support 0
Process 3 of 22 is on nid00480 - thread support 0
Process 4 of 22 is on nid00480 - thread support 0
Process 5 of 22 is on nid00480 - thread support 0
Process 6 of 22 is on nid00480 - thread support 0
Process 21 of 22 is on nid00480 - thread support 0
Process 0 of 22 is on nid00480 - thread support 0
initial socket setup ...start
initial socket setup ...done 
now start server 0 ... 
nid00480 10.128.1
Q-Chem Developer Version! Running on 10.128.1.*
                  Welcome to Q-Chem
     A Quantum Leap Into The Future Of Chemistry


 Q-Chem 4.4, Q-Chem, Inc., Pleasanton, CA (2016)

 Y. Shao,  Z. Gan,  E. Epifanovsky,  A. T. B. Gilbert,  M. Wormit,  
 J. Kussmann,  A. W. Lange,  A. Behn,  J. Deng,  X. Feng,  D. Ghosh,  
 M. Goldey,  P. R. Horn,  L. D. Jacobson,  I. Kaliman,  F. Rob,  
 R. Z. Khaliullin,  T. Kus,  A. Landau,  J. Liu,  E. I. Proynov,  Y. M. Rhee,  
 R. M. Richard,  M. A. Rohrdanz,  R. P. Steele,  E. J. Sundstrom,  
 H. L. Woodcock III,  P. M. Zimmerman,  D. Zuev,  B. Albrecht,  E. Alguire,  
 B. Austin,  S. A. Baeppler,  G. J. O. Beran,  Y. A. Bernard,  
 E. J. Berquist,  K. Brandhorst,  K. B. Bravaya,  S. T. Brown,  D. Casanova,  
 C.-M. Chang,  Y. Chen,  S. H. Chien,  K. D. Closser,  M. P. Coons,  
 D. L. Crittenden,  S. Dasgupta,  M. Diedenhofen,  R. A. DiStasio Jr.,  
 H. Do,  A. D. Dutoi,  R. G. Edgar,  P.-T. Fang,  S. Fatehi,  Q. Feng,  
 L. Fusti-Molnar,  A. Ghysels,  A. Golubeva-Zadorozhnaya,  J. Gomes,  
 A. Gunina,  M. W. D. Hanson-Heine,  P. H. P. Harbach,  A. W. Hauser,  
 J. E. Herr,  E. G. Hohenstein,  Z. C. Holden,  K. Hui,  T.-C. Jagau,  H. Ji,  
 B. Kaduk,  K. Khistyaev,  Jaehoon Kim,  Jihan Kim,  R. A. King,  
 P. Klunzinger,  K. Koh,  D. Kosenkov,  T. Kowalczyk,  C. M. Krauter,  
 A. Kunitsa,  K. U. Lao,  A. Laurent,  K. V. Lawler,  J. Lee,  D. Lefrancois,  
 S. Lehtola,  S. V. Levchenko,  C. Y. Lin,  Y.-S. Lin,  F. Liu,  E. Livshits,  
 R. C. Lochan,  A. Luenser,  P. Manohar,  S. F. Manzer,  S.-P. Mao,  Y. Mao,  
 N. Mardirossian,  A. V. Marenich,  L. A. Martinez-Martinez,  S. A. Maurer,  
 N. J. Mayhall,  J.-M. Mewes,  A. F. Morrison,  K. Nanda,  T. S. Nguyen-Beck,  
 C. M. Oana,  R. Olivares-Amaya,  D. P. O'Neill,  J. A. Parkhill,  
 T. M. Perrine,  R. Peverati,  P. A. Pieniazek,  F. Plasser,  A. Prociuk,  
 D. R. Rehn,  E. Rosta,  N. J. Russ,  N. Sergueev,  S. M. Sharada,  
 S. Sharma,  D. W. Small,  A. Sodt,  T. Stauch,  T. Stein,  D. Stuck,  
 Y.-C. Su,  A. J. W. Thom,  T. Tsuchimochi,  L. Vogt,  O. Vydrov,  T. Wang,  
 M. A. Watson,  J. Wenzel,  A. White,  C. F. Williams,  V. Vanovschi,  
 K. Yao,  S. Yeganeh,  S. R. Yost,  Z.-Q. You,  I. Y. Zhang,  X. Zhang,  
 Y. Zhao,  B. R. Brooks,  G. K. L. Chan,  D. M. Chipman,  C. J. Cramer,  
 W. A. Goddard III,  M. S. Gordon,  W. J. Hehre,  A. Klamt,  
 H. F. Schaefer III,  M. W. Schmidt,  C. D. Sherrill,  D. G. Truhlar,  
 A. Warshel,  X. Xu,  A. Aspuru-Guzik,  R. Baer,  A. T. Bell,  N. A. Besley,  
 J.-D. Chai,  A. Dreuw,  B. D. Dunietz,  T. R. Furlani,  S. R. Gwaltney,  
 C.-P. Hsu,  Y. Jung,  J. Kong,  D. S. Lambrecht,  W. Liang,  C. Ochsenfeld,  
 V. A. Rassolov,  L. V. Slipchenko,  J. E. Subotnik,  T. Van Voorhis,  
 J. M. Herbert,  A. I. Krylov,  P. M. W. Gill,  M. Head-Gordon

 Contributors to earlier versions of Q-Chem not listed above: 
 R. D. Adamson,  J. Baker,  E. F. C. Byrd,  A. K. Chakraborty,  C.-L. Cheng,  
 H. Dachsel,  R. J. Doerksen,  G. Hawkins,  A. Heyden,  S. Hirata,  
 G. Kedziora,  F. J. Keil,  C. Kelley,  P. P. Korambath,  W. Kurlancheek,  
 A. M. Lee,  M. S. Lee,  D. Liotard,  I. Lotan,  P. E. Maslen,  N. Nair,  
 D. Neuhauser,  R. Olson,  B. Peters,  J. Ritchie,  N. E. Schultz,  
 N. Shenvi,  A. C. Simmonett,  K. S. Thanthiriwatte,  Q. Wu,  W. Zhang

 Please cite Q-Chem as follows:
 Y. Shao et al., Mol. Phys. 113, 184-215 (2015)
 DOI: 10.1080/00268976.2014.952696

 Q-Chem 4.4.2 for Intel X86 EM64T Linux

 Parts of Q-Chem use Armadillo 5.200.1 (Boston Tea Smuggler).
 http://arma.sourceforge.net/

 Q-Chem begins on Tue May 30 10:52:40 2017  

Host: nid00478
0

     Scratch files written to /dev/shm/eg_qchem/qchem37436.0//
 Parallel job on  22  processors

Checking the input file for inconsistencies... 	...done.

--------------------------------------------------------------
User input:
--------------------------------------------------------------
$molecule
 0  1
 H           6.23254100       -0.22338900        0.17638100
 H           5.29752400        2.22850500       -0.10953100
 C           5.19733500        0.07486000        0.08356300
 C           4.68347900        1.33634400       -0.06443600
 S           3.94559900       -1.12581000        0.11905200
 C           3.26267300        1.34659400       -0.16511200
 H           2.67740100        2.24810800       -0.30841700
 C           2.69562400        0.08941900       -0.09094600
 H           1.33241900       -2.39005500       -0.68762600
 C           1.29739300       -0.28590200       -0.16150800
 C           0.73808300       -1.51455700       -0.45078400
 S           0.03601800        0.89451200        0.14982500
 C          -0.68041100       -1.51067300       -0.44936800
 H          -1.28012400       -2.38277100       -0.68510300
 C          -1.23220500       -0.27900200       -0.15852500
 C          -2.62830100        0.10383400       -0.08465000
 H          -2.83650467        1.64617837       -1.59637513
 C          -3.30883812        1.05419234       -0.82031738
 S          -3.71527204       -0.66834231        1.05787284
 C          -4.68825170        1.15611937       -0.47996050
 C          -5.05762338        0.28469474        0.51073475
 H          -5.37815628        1.84197104       -0.95816640
 H          -6.03376993        0.14518064        0.95445874
$end


$rem
         jobtype = opt
        exchange = b3lyp
           basis = 6-31++g**
  max_scf_cycles = 150
      mem_static = 281
       mem_total = 2818
      sym_ignore = true
        symmetry = false
          thresh = 12
$end


$opt
CONSTRAINT
tors 13 15 16 18 -120.0
ENDCONSTRAINT
$end

--------------------------------------------------------------
 ----------------------------------------------------------------
             Standard Nuclear Orientation (Angstroms)
    I     Atom           X                Y                Z
 ----------------------------------------------------------------
    1      H       6.2325410000    -0.2233890000     0.1763810000
    2      H       5.2975240000     2.2285050000    -0.1095310000
    3      C       5.1973350000     0.0748600000     0.0835630000
    4      C       4.6834790000     1.3363440000    -0.0644360000
    5      S       3.9455990000    -1.1258100000     0.1190520000
    6      C       3.2626730000     1.3465940000    -0.1651120000
    7      H       2.6774010000     2.2481080000    -0.3084170000
    8      C       2.6956240000     0.0894190000    -0.0909460000
    9      H       1.3324190000    -2.3900550000    -0.6876260000
   10      C       1.2973930000    -0.2859020000    -0.1615080000
   11      C       0.7380830000    -1.5145570000    -0.4507840000
   12      S       0.0360180000     0.8945120000     0.1498250000
   13      C      -0.6804110000    -1.5106730000    -0.4493680000
   14      H      -1.2801240000    -2.3827710000    -0.6851030000
   15      C      -1.2322050000    -0.2790020000    -0.1585250000
   16      C      -2.6283010000     0.1038340000    -0.0846500000
   17      H      -2.8365046700     1.6461783700    -1.5963751300
   18      C      -3.3088381200     1.0541923400    -0.8203173800
   19      S      -3.7152720400    -0.6683423100     1.0578728400
   20      C      -4.6882517000     1.1561193700    -0.4799605000
   21      C      -5.0576233800     0.2846947400     0.5107347500
   22      H      -5.3781562800     1.8419710400    -0.9581664000
   23      H      -6.0337699300     0.1451806400     0.9544587400
 ----------------------------------------------------------------
 Nuclear Repulsion Energy =  1172.7611049190 hartrees
 There are       64 alpha and       64 beta electrons
 Requested basis set is 6-31++G(d,p)
 There are 110 shells and 345 basis functions

 Total QAlloc Memory Limit   2818 MB
 Mega-Array Size       275 MB
 MEM_STATIC part       281 MB
 A cutoff of  1.0D-12 yielded   4683 shell pairs
 There are     47656 function pairs

 Q-Chem warning in module /project/projectdirs/jcesr/qchem/qc44/cnl_qc441/compile/cori/qc_src/libqints/qchem/aobasis.C, line 68:

 Using reconstructed effective core potential

 
 -------------------------------------------------------
 OpenMP Integral Computing Module                       
 Release: version 1.0, May 2013, Q-Chem Inc. Pittsburgh 
 -------------------------------------------------------
 Integral Job Info:
 Integral job number is                      11
 Integral operator is                         1
 short-range coefficients                     0
 long-range coefficients              100000000
 Omega coefficients                           0
 if combine SR and LR in K                    0
 Integral screening is                        0
 Integral computing path is                   2
 max size of driver memory is            800000
 size of driver memory is                593474
 size of scratch memory is             15166112
 max col of scratch BK array               1296
 max len of scratch array in speh3          155
 max len of scratch index in speh4           18
 max int batch size is                      520
 min int batch size is                       52
 fixed nKL is                                52
 max L of basis functions is                  2
 order of int derivative is                   0
 number of shells is                        110
 number of basis is                         345
 number of cartesian basis is               345
 number of contracted shell pairs          4683
 number of primitive shell pairs          14623
 maxK2 (contraction) of shell pair           36
 max number of K2 of shell pair               1
 max number of CS2 of shell pair            520
 max number of PS2 of shell pair           3030
 mem total for path MDJ                  101496
 -------------------------------------------------------
 Smallest overlap matrix eigenvalue = 8.25E-08
 Linear dependence detected in AO basis
 Number of orthogonalized atomic orbitals = 343
 Maximum deviation from orthogonality = 1.108E-10

 Scale SEOQF with 1.000000e-02/1.000000e-01/1.000000e-01

 Standard Electronic Orientation quadrupole field applied
 Nucleus-field energy     =     0.0000000110 hartrees
 Guess from superposition of atomic densities
 Warning:  Energy on first SCF cycle will be non-variational
 A restricted hybrid HF-DFT SCF calculation will be
 performed using Pulay DIIS extrapolation
 Exchange:     0.2000 Hartree-Fock + 0.0800 Slater + 0.7200 B88
 Correlation:  0.1900 VWN1RPA + 0.8100 LYP
 Using SG-1 standard quadrature grid
 SCF converges when DIIS error is below 1.0E-08
 ---------------------------------------
  Cycle       Energy         DIIS Error
 ---------------------------------------
    1   -1660.2832823033      3.67E-02
    2   -1656.4115330608      3.87E-03
    3   -1656.0547178273      5.92E-03
    4   -1656.6405065318      1.13E-03
    5   -1656.6562261309      5.95E-04
    6   -1656.6614145217      1.84E-04
    7   -1656.6619339218      6.87E-05
    8   -1656.6620044825      1.39E-05
    9   -1656.6620072669      4.44E-06
   10   -1656.6620075379      2.18E-06
   11   -1656.6620076213      3.57E-07
   12   -1656.6620076220      2.55E-07
   13   -1656.6620076234      6.13E-08
   14   -1656.6620076239      2.41E-08
   15   -1656.6620076247      8.90E-09 Convergence criterion met
 ---------------------------------------
 SCF time:  CPU 16.04 s  wall 15.16 s
 SCF   energy in the final basis set = -1656.6620076247
 Total energy in the final basis set = -1656.6620076247
 
 --------------------------------------------------------------
 
                    Orbital Energies (a.u.)
 --------------------------------------------------------------
 
 Alpha MOs
 -- Occupied --
-88.921 -88.921 -88.921 -10.241 -10.240 -10.238 -10.238 -10.226
-10.226 -10.206 -10.206 -10.205 -10.205 -10.205 -10.205  -7.980
 -7.980  -7.980  -5.945  -5.944  -5.944  -5.941  -5.941  -5.941
 -5.938  -5.937  -5.937  -0.906  -0.892  -0.876  -0.786  -0.755
 -0.745  -0.744  -0.733  -0.697  -0.617  -0.595  -0.569  -0.561
 -0.537  -0.534  -0.528  -0.501  -0.462  -0.421  -0.420  -0.417
 -0.416  -0.407  -0.403  -0.399  -0.385  -0.376  -0.370  -0.359
 -0.351  -0.344  -0.284  -0.267  -0.262  -0.260  -0.248  -0.208
 -- Virtual --
 -0.065  -0.032  -0.010  -0.007  -0.005   0.003   0.007   0.009
  0.010   0.019   0.023   0.025   0.030   0.035   0.038   0.042
  0.045   0.050   0.052   0.054   0.057   0.062   0.074   0.076
  0.080   0.087   0.093   0.093   0.100   0.104   0.106   0.109
  0.110   0.118   0.123   0.124   0.125   0.127   0.128   0.130
  0.135   0.138   0.141   0.146   0.148   0.150   0.152   0.155
  0.160   0.168   0.171   0.175   0.176   0.178   0.183   0.194
  0.198   0.201   0.203   0.206   0.210   0.214   0.218   0.220
  0.229   0.234   0.237   0.239   0.250   0.253   0.260   0.260
  0.266   0.268   0.272   0.277   0.278   0.288   0.298   0.307
  0.312   0.319   0.328   0.330   0.337   0.349   0.355   0.358
  0.366   0.377   0.381   0.396   0.399   0.452   0.455   0.459
  0.493   0.510   0.521   0.524   0.538   0.560   0.567   0.576
  0.582   0.600   0.615   0.625   0.635   0.639   0.656   0.660
  0.662   0.667   0.679   0.692   0.698   0.711   0.717   0.724
  0.725   0.730   0.745   0.748   0.758   0.770   0.780   0.786
  0.791   0.809   0.814   0.824   0.830   0.837   0.845   0.873
  0.892   0.931   0.932   0.936   0.952   0.958   0.963   0.965
  0.967   0.975   0.979   0.982   0.993   0.997   1.004   1.022
  1.035   1.043   1.047   1.060   1.079   1.085   1.095   1.108
  1.110   1.121   1.152   1.157   1.171   1.184   1.198   1.221
  1.254   1.262   1.271   1.290   1.309   1.332   1.346   1.351
  1.353   1.362   1.367   1.384   1.448   1.461   1.476   1.497
  1.508   1.529   1.552   1.558   1.603   1.684   1.693   1.726
  1.761   1.799   1.838   1.856   1.872   1.881   1.895   1.902
  1.922   1.927   1.952   1.962   1.996   2.006   2.022   2.054
  2.070   2.081   2.105   2.120   2.152   2.173   2.179   2.190
  2.193   2.236   2.244   2.258   2.286   2.297   2.333   2.363
  2.367   2.421   2.436   2.442   2.453   2.458   2.473   2.482
  2.499   2.518   2.524   2.534   2.565   2.584   2.596   2.599
  2.620   2.658   2.682   2.699   2.713   2.734   2.808   2.855
  2.874   2.896   2.913   2.939   2.944   3.136   3.173   3.210
  3.271   3.273   3.326   3.414   3.415   3.674   3.730   3.737
  3.973   3.976   3.984   4.253   4.286   4.304   4.319   4.331
  4.356   4.401   4.482   4.546   4.648   4.693   4.726
 --------------------------------------------------------------
 
          Ground-State Mulliken Net Atomic Charges

     Atom                 Charge (a.u.)
  ----------------------------------------
      1 H                     0.196875
      2 H                     0.119140
      3 C                     0.035670
      4 C                    -0.407058
      5 S                    -0.130842
      6 C                     0.529241
      7 H                     0.127078
      8 C                    -0.365612
      9 H                     0.125888
     10 C                    -0.112954
     11 C                    -0.082056
     12 S                    -0.049635
     13 C                     0.022631
     14 H                     0.126284
     15 C                    -0.110615
     16 C                    -0.462190
     17 H                     0.140268
     18 C                     0.300425
     19 S                     0.062087
     20 C                    -0.384451
     21 C                     0.007163
     22 H                     0.119122
     23 H                     0.193543
  ----------------------------------------
  Sum of atomic charges =     0.000000

 -----------------------------------------------------------------
                    Cartesian Multipole Moments
 -----------------------------------------------------------------
    Charge (ESU x 10^10)
                 0.0000
    Dipole Moment (Debye)
         X      -0.0495      Y       0.4160      Z      -0.6059
       Tot       0.7366
    Quadrupole Moments (Debye-Ang)
        XX     -90.4729     XY      -0.2587     YY    -103.3227
        XZ       0.2218     YZ      -1.6861     ZZ    -113.3996
    Octopole Moments (Debye-Ang^2)
       XXX      -8.8299    XXY      21.7768    XYY       4.7364
       YYY      -1.0055    XXZ       9.7594    XYZ       8.2599
       YYZ     -11.8405    XZZ     -18.5261    YZZ       0.5989
       ZZZ      -7.1621
    Hexadecapole Moments (Debye-Ang^3)
      XXXX   -6326.1375   XXXY       9.7801   XXYY   -1305.8557
      XYYY      90.7086   YYYY    -753.7670   XXXZ      45.4165
      XXYZ     -43.5558   XYYZ      47.7982   YYYZ      34.0173
      XXZZ   -1339.3270   XYZZ      10.9590   YYZZ    -185.1410
      XZZZ      97.8618   YZZZ      26.4256   ZZZZ    -317.5302
 -----------------------------------------------------------------
 Calculating analytic gradient of the SCF energy
 Gradient of SCF Energy
            1           2           3           4           5           6
    1  -0.0000121   0.0000024   0.0000568  -0.0001412   0.0000337   0.0002113
    2  -0.0000108  -0.0000055   0.0000239   0.0000574  -0.0001956   0.0004354
    3  -0.0000234  -0.0000125  -0.0000181   0.0000123   0.0000281   0.0001119
            7           8           9          10          11          12
    1   0.0000144  -0.0013623  -0.0000843   0.0016318  -0.0012638  -0.0005748
    2   0.0000013  -0.0002992   0.0000194  -0.0012593  -0.0000971   0.0007631
    3  -0.0000479   0.0000279   0.0001463  -0.0006586   0.0000781   0.0012392
           13          14          15          16          17          18
    1   0.0016910   0.0007263  -0.0075959   0.0082833  -0.0008346  -0.0018158
    2  -0.0013236  -0.0005086   0.0038230  -0.0027925   0.0003025   0.0003864
    3  -0.0017486  -0.0003402   0.0016367   0.0015558  -0.0003298  -0.0018778
           19          20          21          22          23
    1   0.0007467   0.0007679  -0.0009186   0.0000888   0.0003490
    2  -0.0001156  -0.0002340   0.0011223   0.0000117  -0.0001047
    3   0.0012311  -0.0000568  -0.0012461   0.0000947   0.0001978
 Max gradient component =       8.283E-03
 RMS gradient           =       1.650E-03
 Gradient time:  CPU 4.66 s  wall 4.62 s
 Geometry Optimization Parameters
   NAtoms,    NIC,     NZ,  NCons,   NDum,   NFix, NCnnct, MaxDiis
       23     166       0       1       0       0       0       0


** CONSTRAINED OPTIMIZATION IN DELOCALIZED INTERNAL COORDINATES **
   Searching for a Minimum

   Optimization Cycle:   1

                       Coordinates (Angstroms)
     ATOM                X               Y               Z
      1  H         6.2325410000   -0.2233890000    0.1763810000
      2  H         5.2975240000    2.2285050000   -0.1095310000
      3  C         5.1973350000    0.0748600000    0.0835630000
      4  C         4.6834790000    1.3363440000   -0.0644360000
      5  S         3.9455990000   -1.1258100000    0.1190520000
      6  C         3.2626730000    1.3465940000   -0.1651120000
      7  H         2.6774010000    2.2481080000   -0.3084170000
      8  C         2.6956240000    0.0894190000   -0.0909460000
      9  H         1.3324190000   -2.3900550000   -0.6876260000
     10  C         1.2973930000   -0.2859020000   -0.1615080000
     11  C         0.7380830000   -1.5145570000   -0.4507840000
     12  S         0.0360180000    0.8945120000    0.1498250000
     13  C        -0.6804110000   -1.5106730000   -0.4493680000
     14  H        -1.2801240000   -2.3827710000   -0.6851030000
     15  C        -1.2322050000   -0.2790020000   -0.1585250000
     16  C        -2.6283010000    0.1038340000   -0.0846500000
     17  H        -2.8365046700    1.6461783700   -1.5963751300
     18  C        -3.3088381200    1.0541923400   -0.8203173800
     19  S        -3.7152720400   -0.6683423100    1.0578728400
     20  C        -4.6882517000    1.1561193700   -0.4799605000
     21  C        -5.0576233800    0.2846947400    0.5107347500
     22  H        -5.3781562800    1.8419710400   -0.9581664000
     23  H        -6.0337699300    0.1451806400    0.9544587400
   Point Group: c1    Number of degrees of freedom:    63


   Energy is  -1656.662007625

              Constraints and their Current Values
                                        Value     Constraint
   Dihedral:       13  15  16  18     -120.000     -120.000

 Attempting to Generate Delocalized Internal Coordinates

 62 Hessian modes will be used to form the next step
  Hessian Eigenvalues:
     0.045000    0.045000    0.045000    0.045000    0.045000    0.045000
     0.045000    0.045000    0.045000    0.045001    0.045002    0.045002
     0.045003    0.045003    0.045009    0.045010    0.045011    0.045018
     0.045019    0.159886    0.159939    0.159955    0.159957    0.159992
     0.159993    0.160000    0.160000    0.221281    0.221281    0.226855
     0.237826    0.237826    0.245311    0.249998    0.249998    0.250000
     0.250000    0.293636    0.293684    0.294746    0.294936    0.312571
     0.312615    0.354732    0.354740    0.354742    0.354756    0.355161
     0.355164    0.358372    0.358373    0.383080    0.383176    0.405793
     0.405832    0.413732    0.458107    0.461989    0.461995    0.485493
     0.497291    0.497294

 Minimum Search - Taking Simple RFO Step
 Searching for Lamda that Minimizes Along All modes
 Value Taken    Lamda =  -0.00028475
 Step Taken.  Stepsize is  0.049206

                             Maximum     Tolerance    Cnvgd?
         Gradient           0.003059      0.000300      NO
         Displacement       0.021755      0.001200      NO
         Energy change     *********      0.000001      NO


 New Cartesian Coordinates Obtained by Inverse Iteration

 Displacement from previous Coordinates is:  0.143916
 ----------------------------------------------------------------
             Standard Nuclear Orientation (Angstroms)
    I     Atom           X                Y                Z
 ----------------------------------------------------------------
    1      H       6.2373992023    -0.2250724576     0.1657205966
    2      H       5.3036581038     2.2271315289    -0.1220473473
    3      C       5.2021778056     0.0739743631     0.0755035138
    4      C       4.6890314157     1.3355534939    -0.0733587116
    5      S       3.9492678261    -1.1250793076     0.1171486387
    6      C       3.2677488425     1.3467936464    -0.1691845950
    7      H       2.6827260905     2.2485864084    -0.3117686310
    8      C       2.6997956169     0.0907910349    -0.0904328044
    9      H       1.3334377025    -2.3877054904    -0.6834280259
   10      C       1.2994191963    -0.2836975991    -0.1552578193
   11      C       0.7393729309    -1.5127619735    -0.4432409165
   12      S       0.0388193998     0.8945937504     0.1562895548
   13      C      -0.6809258019    -1.5090308369    -0.4374009357
   14      H      -1.2867249019    -2.3773687969    -0.6708841126
   15      C      -1.2301408815    -0.2803417449    -0.1433820182
   16      C      -2.6349251988     0.1073393144    -0.0743827707
   17      H      -2.8205669204     1.6588094996    -1.5707868984
   18      C      -3.3067011727     1.0612606290    -0.8077030689
   19      S      -3.7339388486    -0.6820665624     1.0441058086
   20      C      -4.6913718993     1.1579439524    -0.4820148039
   21      C      -5.0706752647     0.2748619158     0.4954423202
   22      H      -5.3772686166     1.8469205379    -0.9617959989
   23      H      -6.0529827465     0.1285758843     0.9239209458
 ----------------------------------------------------------------
 Nuclear Repulsion Energy =  1172.0871111305 hartrees
 There are       64 alpha and       64 beta electrons
 Applying Cartesian multipole field
    Component          Value
    ---------          -----
     (2,0,0)        1.00000E-12
     (0,2,0)        2.00000E-11
     (0,0,2)       -3.00000E-11
 Nucleus-field energy     =     0.0000000111 hartrees
 Requested basis set is 6-31++G(d,p)
 There are 110 shells and 345 basis functions
 A cutoff of  1.0D-12 yielded   4683 shell pairs
 There are     47656 function pairs

 Q-Chem warning in module /project/projectdirs/jcesr/qchem/qc44/cnl_qc441/compile/cori/qc_src/libqints/qchem/aobasis.C, line 68:

 Using reconstructed effective core potential

 Smallest overlap matrix eigenvalue = 8.41E-08
 Linear dependence detected in AO basis
 Number of orthogonalized atomic orbitals = 343
 Maximum deviation from orthogonality = 9.038E-11
 Guess MOs from SCF MO coefficient file
 Reading MOs from coefficient file
 Reading MOs from coefficient file
 A restricted hybrid HF-DFT SCF calculation will be
 performed using Pulay DIIS extrapolation
 Exchange:     0.2000 Hartree-Fock + 0.0800 Slater + 0.7200 B88
 Correlation:  0.1900 VWN1RPA + 0.8100 LYP
 Using SG-1 standard quadrature grid
 SCF converges when DIIS error is below 1.0E-08
 Geometry optimization detected.  Setting ReadMinima to 0
 Setting SaveMinima to 0
 ---------------------------------------
  Cycle       Energy         DIIS Error
 ---------------------------------------
    1   -1656.6618598901      3.60E-04
    2   -1656.6621415925      5.02E-05
    3   -1656.6620160425      1.02E-04
    4   -1656.6621855062      1.50E-05
    5   -1656.6621887432      5.90E-06
    6   -1656.6621892488      2.21E-06
    7   -1656.6621893238      7.99E-07
    8   -1656.6621893341      3.35E-07
    9   -1656.6621893386      8.44E-08
   10   -1656.6621893373      2.29E-08
   11   -1656.6621893365      8.92E-09 Convergence criterion met
 ---------------------------------------
 SCF time:  CPU 12.21 s  wall 11.25 s
 SCF   energy in the final basis set = -1656.6621893365
 Total energy in the final basis set = -1656.6621893365
 
 --------------------------------------------------------------
 
                    Orbital Energies (a.u.)
 --------------------------------------------------------------
 
 Alpha MOs
 -- Occupied --
-88.921 -88.921 -88.921 -10.241 -10.240 -10.239 -10.238 -10.226
-10.226 -10.206 -10.206 -10.205 -10.205 -10.205 -10.205  -7.981
 -7.980  -7.980  -5.945  -5.944  -5.944  -5.941  -5.941  -5.941
 -5.938  -5.937  -5.937  -0.906  -0.892  -0.876  -0.786  -0.754
 -0.745  -0.744  -0.733  -0.697  -0.616  -0.595  -0.569  -0.561
 -0.537  -0.535  -0.528  -0.501  -0.462  -0.421  -0.420  -0.417
 -0.415  -0.407  -0.403  -0.399  -0.385  -0.376  -0.370  -0.359
 -0.351  -0.344  -0.284  -0.266  -0.262  -0.260  -0.248  -0.209
 -- Virtual --
 -0.065  -0.032  -0.009  -0.007  -0.005   0.003   0.007   0.009
  0.010   0.019   0.023   0.025   0.030   0.035   0.038   0.042
  0.045   0.050   0.052   0.054   0.057   0.061   0.074   0.076
  0.080   0.087   0.092   0.093   0.100   0.104   0.106   0.109
  0.110   0.118   0.123   0.124   0.125   0.127   0.128   0.131
  0.135   0.138   0.141   0.146   0.148   0.150   0.151   0.155
  0.160   0.168   0.170   0.175   0.176   0.178   0.182   0.194
  0.197   0.201   0.203   0.206   0.210   0.214   0.218   0.220
  0.228   0.234   0.237   0.239   0.250   0.253   0.260   0.260
  0.266   0.267   0.272   0.276   0.278   0.288   0.299   0.307
  0.312   0.318   0.327   0.329   0.337   0.350   0.355   0.358
  0.366   0.377   0.380   0.396   0.399   0.453   0.455   0.460
  0.493   0.510   0.520   0.525   0.537   0.560   0.567   0.577
  0.582   0.600   0.615   0.625   0.633   0.639   0.656   0.660
  0.662   0.668   0.679   0.693   0.696   0.711   0.717   0.724
  0.725   0.730   0.745   0.748   0.759   0.771   0.780   0.786
  0.791   0.808   0.814   0.823   0.830   0.837   0.845   0.873
  0.892   0.931   0.932   0.937   0.951   0.957   0.963   0.965
  0.967   0.975   0.979   0.982   0.994   0.997   1.004   1.022
  1.036   1.043   1.047   1.061   1.079   1.084   1.095   1.108
  1.110   1.120   1.152   1.157   1.170   1.184   1.198   1.220
  1.254   1.261   1.271   1.290   1.309   1.332   1.346   1.350
  1.353   1.362   1.366   1.385   1.448   1.461   1.475   1.497
  1.508   1.529   1.551   1.557   1.602   1.684   1.693   1.726
  1.759   1.795   1.836   1.861   1.870   1.880   1.894   1.901
  1.921   1.927   1.952   1.960   1.994   2.006   2.022   2.055
  2.071   2.082   2.105   2.121   2.152   2.174   2.179   2.190
  2.192   2.235   2.243   2.256   2.283   2.296   2.332   2.363
  2.367   2.420   2.436   2.442   2.453   2.458   2.472   2.482
  2.499   2.518   2.524   2.533   2.565   2.583   2.597   2.599
  2.620   2.657   2.681   2.698   2.713   2.732   2.806   2.854
  2.872   2.895   2.912   2.938   2.943   3.135   3.172   3.209
  3.270   3.272   3.325   3.414   3.415   3.673   3.730   3.737
  3.973   3.975   3.985   4.252   4.284   4.304   4.318   4.330
  4.356   4.400   4.482   4.546   4.647   4.692   4.725
 --------------------------------------------------------------
 
          Ground-State Mulliken Net Atomic Charges

     Atom                 Charge (a.u.)
  ----------------------------------------
      1 H                     0.196899
      2 H                     0.119093
      3 C                     0.036806
      4 C                    -0.409314
      5 S                    -0.130098
      6 C                     0.532731
      7 H                     0.127283
      8 C                    -0.364435
      9 H                     0.125841
     10 C                    -0.122360
     11 C                    -0.082637
     12 S                    -0.051871
     13 C                     0.027059
     14 H                     0.126927
     15 C                    -0.099922
     16 C                    -0.467982
     17 H                     0.140761
     18 C                     0.306594
     19 S                     0.058669
     20 C                    -0.394664
     21 C                     0.011991
     22 H                     0.118780
     23 H                     0.193848
  ----------------------------------------
  Sum of atomic charges =     0.000000

 -----------------------------------------------------------------
                    Cartesian Multipole Moments
 -----------------------------------------------------------------
    Charge (ESU x 10^10)
                 0.0000
    Dipole Moment (Debye)
         X      -0.0477      Y       0.4140      Z      -0.6233
       Tot       0.7498
    Quadrupole Moments (Debye-Ang)
        XX     -90.3653     XY      -0.1748     YY    -103.3199
        XZ       0.2362     YZ      -1.7157     ZZ    -113.5067
    Octopole Moments (Debye-Ang^2)
       XXX      -8.9203    XXY      21.3343    XYY       4.7707
       YYY      -0.4538    XXZ       9.1320    XYZ       8.2606
       YYZ     -11.8536    XZZ     -17.9252    YZZ       0.7064
       ZZZ      -7.1973
    Hexadecapole Moments (Debye-Ang^3)
      XXXX   -6339.8998   XXXY      10.3622   XXYY   -1309.9159
      XYYY      87.5628   YYYY    -755.3913   XXXZ      46.5016
      XXYZ     -43.9539   XYYZ      47.7175   YYYZ      34.6340
      XXZZ   -1345.4117   XYZZ      10.1872   YYZZ    -184.6952
      XZZZ      99.1399   YZZZ      27.8276   ZZZZ    -313.2832
 -----------------------------------------------------------------
 Calculating analytic gradient of the SCF energy
 Gradient of SCF Energy
            1           2           3           4           5           6
    1   0.0000033   0.0000121   0.0000783  -0.0000761   0.0000882   0.0001665
    2   0.0000020  -0.0000051   0.0000122  -0.0000226   0.0000120   0.0000967
    3  -0.0000092  -0.0000059   0.0000148   0.0000081  -0.0000483   0.0000862
            7           8           9          10          11          12
    1  -0.0000014  -0.0004260   0.0000246   0.0009699  -0.0005936   0.0001813
    2  -0.0000222   0.0000575  -0.0000167  -0.0002439   0.0001178  -0.0002210
    3  -0.0000439   0.0000301   0.0000473  -0.0000748   0.0001252   0.0005286
           13          14          15          16          17          18
    1   0.0004404   0.0001278  -0.0016043   0.0018339  -0.0001763  -0.0007172
    2   0.0003030  -0.0000235  -0.0002992   0.0009901  -0.0000578  -0.0011204
    3  -0.0016271  -0.0002062   0.0012792   0.0006270  -0.0001385  -0.0011350
           19          20          21          22          23
    1  -0.0001866   0.0004157  -0.0005915  -0.0000110   0.0000420
    2   0.0003932  -0.0001658   0.0002745   0.0000226  -0.0000834
    3   0.0004029   0.0000441  -0.0000635  -0.0000006   0.0001591
 Max gradient component =       1.834E-03
 RMS gradient           =       5.131E-04
 Gradient time:  CPU 4.70 s  wall 4.64 s
 Geometry Optimization Parameters
   NAtoms,    NIC,     NZ,  NCons,   NDum,   NFix, NCnnct, MaxDiis
       23     166       0       1       0       0       0       0

 Cartesian Hessian Update
 Hessian Updated using BFGS Update


** CONSTRAINED OPTIMIZATION IN DELOCALIZED INTERNAL COORDINATES **
   Searching for a Minimum

   Optimization Cycle:   2

                       Coordinates (Angstroms)
     ATOM                X               Y               Z
      1  H         6.2373992023   -0.2250724576    0.1657205966
      2  H         5.3036581038    2.2271315289   -0.1220473473
      3  C         5.2021778056    0.0739743631    0.0755035138
      4  C         4.6890314157    1.3355534939   -0.0733587116
      5  S         3.9492678261   -1.1250793076    0.1171486387
      6  C         3.2677488425    1.3467936464   -0.1691845950
      7  H         2.6827260905    2.2485864084   -0.3117686310
      8  C         2.6997956169    0.0907910349   -0.0904328044
      9  H         1.3334377025   -2.3877054904   -0.6834280259
     10  C         1.2994191963   -0.2836975991   -0.1552578193
     11  C         0.7393729309   -1.5127619735   -0.4432409165
     12  S         0.0388193998    0.8945937504    0.1562895548
     13  C        -0.6809258019   -1.5090308369   -0.4374009357
     14  H        -1.2867249019   -2.3773687969   -0.6708841126
     15  C        -1.2301408815   -0.2803417449   -0.1433820182
     16  C        -2.6349251988    0.1073393144   -0.0743827707
     17  H        -2.8205669204    1.6588094996   -1.5707868984
     18  C        -3.3067011727    1.0612606290   -0.8077030689
     19  S        -3.7339388486   -0.6820665624    1.0441058086
     20  C        -4.6913718993    1.1579439524   -0.4820148039
     21  C        -5.0706752647    0.2748619158    0.4954423202
     22  H        -5.3772686166    1.8469205379   -0.9617959989
     23  H        -6.0529827465    0.1285758843    0.9239209458
   Point Group: c1    Number of degrees of freedom:    63


   Energy is  -1656.662189337

              Constraints and their Current Values
                                        Value     Constraint
   Dihedral:       13  15  16  18     -120.000     -120.000
 Hessian Updated using BFGS Update

 57 Hessian modes will be used to form the next step
  Hessian Eigenvalues:
     0.028744    0.045000    0.045000    0.045000    0.045000    0.045000
     0.045001    0.045002    0.045007    0.045009    0.045010    0.045018
     0.045019    0.045296    0.157796    0.159900    0.159947    0.159958
     0.159992    0.159993    0.160000    0.160619    0.221278    0.221513
     0.226867    0.235892    0.237922    0.243570    0.249750    0.249999
     0.250000    0.250864    0.291518    0.293640    0.294573    0.295631
     0.312569    0.313301    0.354736    0.354739    0.354742    0.354762
     0.355164    0.355165    0.358372    0.358397    0.383161    0.404198
     0.405831    0.410576    0.426809    0.459574    0.461750    0.475874
     0.488495    0.497283    0.498739

 Minimum Search - Taking Simple RFO Step
 Searching for Lamda that Minimizes Along All modes
 Value Taken    Lamda =  -0.00009832
 Step Taken.  Stepsize is  0.055308

                             Maximum     Tolerance    Cnvgd?
         Gradient           0.000824      0.000300      NO
         Displacement       0.027991      0.001200      NO
         Energy change     -0.000182      0.000001      NO


 New Cartesian Coordinates Obtained by Inverse Iteration

 Displacement from previous Coordinates is:  0.187315
 ----------------------------------------------------------------
             Standard Nuclear Orientation (Angstroms)
    I     Atom           X                Y                Z
 ----------------------------------------------------------------
    1      H       6.2368667649    -0.2263409968     0.1486826344
    2      H       5.3035606084     2.2261684931    -0.1389617255
    3      C       5.2014294845     0.0733001644     0.0630469512
    4      C       4.6886420642     1.3350632066    -0.0855844541
    5      S       3.9480219118    -1.1248194908     0.1136969049
    6      C       3.2668103370     1.3470650970    -0.1738911271
    7      H       2.6815421323     2.2490443866    -0.3144859846
    8      C       2.6989234513     0.0917110125    -0.0897944855
    9      H       1.3322624520    -2.3860222137    -0.6770024053
   10      C       1.2973820424    -0.2820114986    -0.1466506406
   11      C       0.7384412103    -1.5120885813    -0.4325817462
   12      S       0.0393485979     0.8963377205     0.1694924765
   13      C      -0.6824024331    -1.5086674640    -0.4202796136
   14      H      -1.2920889653    -2.3749323119    -0.6512747937
   15      C      -1.2282199238    -0.2810390850    -0.1213496125
   16      C      -2.6353520892     0.1114125149    -0.0597334666
   17      H      -2.7966405570     1.6802949263    -1.5374164156
   18      C      -3.2962980252     1.0724807709    -0.7913468157
   19      S      -3.7476671242    -0.7001880463     1.0275860136
   20      C      -4.6865804530     1.1611485666    -0.4861734059
   21      C      -5.0771515466     0.2616437950     0.4720159617
   22      H      -5.3675003059     1.8542481692    -0.9670701086
   23      H      -6.0666977537     0.1062020548     0.8801377787
 ----------------------------------------------------------------
 Nuclear Repulsion Energy =  1172.1756203309 hartrees
 There are       64 alpha and       64 beta electrons
 Applying Cartesian multipole field
    Component          Value
    ---------          -----
     (2,0,0)        1.00000E-12
     (0,2,0)        2.00000E-11
     (0,0,2)       -3.00000E-11
 Nucleus-field energy     =     0.0000000113 hartrees
 Requested basis set is 6-31++G(d,p)
 There are 110 shells and 345 basis functions
 A cutoff of  1.0D-12 yielded   4685 shell pairs
 There are     47704 function pairs

 Q-Chem warning in module /project/projectdirs/jcesr/qchem/qc44/cnl_qc441/compile/cori/qc_src/libqints/qchem/aobasis.C, line 68:

 Using reconstructed effective core potential

 Smallest overlap matrix eigenvalue = 8.41E-08
 Linear dependence detected in AO basis
 Number of orthogonalized atomic orbitals = 343
 Maximum deviation from orthogonality = 1.239E-10
 Guess MOs from SCF MO coefficient file
 Reading MOs from coefficient file
 Reading MOs from coefficient file
 A restricted hybrid HF-DFT SCF calculation will be
 performed using Pulay DIIS extrapolation
 Exchange:     0.2000 Hartree-Fock + 0.0800 Slater + 0.7200 B88
 Correlation:  0.1900 VWN1RPA + 0.8100 LYP
 Using SG-1 standard quadrature grid
 SCF converges when DIIS error is below 1.0E-08
 Geometry optimization detected.  Setting ReadMinima to 0
 Setting SaveMinima to 0
 ---------------------------------------
  Cycle       Energy         DIIS Error
 ---------------------------------------
    1   -1656.6629891237      4.51E-04
    2   -1656.6621873304      5.94E-05
    3   -1656.6620230564      1.18E-04
    4   -1656.6622501823      1.81E-05
    5   -1656.6622549246      7.11E-06
    6   -1656.6622556195      3.00E-06
    7   -1656.6622557568      9.61E-07
    8   -1656.6622557706      3.96E-07
    9   -1656.6622557741      1.07E-07
   10   -1656.6622557740      2.78E-08
   11   -1656.6622557722      1.19E-08
   12   -1656.6622557722      3.19E-09 Convergence criterion met
 ---------------------------------------
 SCF time:  CPU 13.00 s  wall 12.04 s
 SCF   energy in the final basis set = -1656.6622557722
 Total energy in the final basis set = -1656.6622557722
 
 --------------------------------------------------------------
 
                    Orbital Energies (a.u.)
 --------------------------------------------------------------
 
 Alpha MOs
 -- Occupied --
-88.921 -88.921 -88.921 -10.241 -10.240 -10.239 -10.238 -10.226
-10.226 -10.206 -10.206 -10.205 -10.205 -10.205 -10.205  -7.980
 -7.980  -7.980  -5.945  -5.945  -5.944  -5.941  -5.941  -5.941
 -5.938  -5.938  -5.937  -0.906  -0.892  -0.876  -0.786  -0.755
 -0.745  -0.744  -0.733  -0.697  -0.616  -0.595  -0.569  -0.561
 -0.537  -0.535  -0.528  -0.501  -0.462  -0.421  -0.420  -0.416
 -0.415  -0.407  -0.403  -0.399  -0.385  -0.376  -0.370  -0.359
 -0.351  -0.345  -0.285  -0.266  -0.262  -0.260  -0.248  -0.208
 -- Virtual --
 -0.065  -0.032  -0.009  -0.007  -0.005   0.003   0.007   0.009
  0.010   0.019   0.023   0.025   0.030   0.035   0.038   0.042
  0.045   0.050   0.052   0.054   0.057   0.061   0.074   0.075
  0.080   0.087   0.092   0.093   0.100   0.104   0.106   0.109
  0.111   0.118   0.123   0.124   0.125   0.128   0.128   0.131
  0.135   0.138   0.141   0.146   0.148   0.150   0.151   0.155
  0.160   0.168   0.170   0.175   0.176   0.178   0.182   0.194
  0.197   0.201   0.203   0.206   0.210   0.214   0.218   0.220
  0.228   0.234   0.237   0.239   0.250   0.254   0.260   0.260
  0.266   0.267   0.272   0.276   0.278   0.288   0.299   0.307
  0.312   0.318   0.327   0.329   0.337   0.350   0.355   0.359
  0.366   0.377   0.380   0.396   0.399   0.453   0.456   0.460
  0.494   0.510   0.520   0.525   0.537   0.560   0.567   0.577
  0.582   0.600   0.616   0.625   0.632   0.639   0.657   0.660
  0.662   0.668   0.679   0.693   0.695   0.712   0.717   0.724
  0.725   0.730   0.745   0.748   0.760   0.771   0.779   0.786
  0.790   0.809   0.814   0.824   0.830   0.837   0.845   0.873
  0.891   0.931   0.932   0.938   0.951   0.957   0.962   0.966
  0.967   0.975   0.978   0.982   0.994   0.998   1.004   1.023
  1.036   1.043   1.047   1.060   1.079   1.084   1.095   1.108
  1.109   1.119   1.152   1.158   1.171   1.184   1.198   1.220
  1.256   1.261   1.271   1.290   1.309   1.332   1.345   1.351
  1.352   1.362   1.366   1.386   1.446   1.460   1.474   1.497
  1.509   1.530   1.549   1.557   1.601   1.684   1.693   1.726
  1.757   1.793   1.835   1.864   1.870   1.880   1.895   1.901
  1.921   1.927   1.952   1.960   1.993   2.006   2.024   2.056
  2.072   2.084   2.105   2.121   2.152   2.175   2.181   2.191
  2.193   2.234   2.242   2.256   2.282   2.296   2.331   2.364
  2.368   2.421   2.436   2.442   2.453   2.458   2.471   2.481
  2.500   2.517   2.524   2.533   2.566   2.582   2.597   2.599
  2.619   2.657   2.680   2.698   2.713   2.733   2.805   2.854
  2.872   2.894   2.912   2.937   2.942   3.135   3.172   3.208
  3.269   3.272   3.325   3.414   3.414   3.674   3.730   3.737
  3.973   3.975   3.985   4.253   4.283   4.304   4.319   4.330
  4.356   4.399   4.482   4.547   4.647   4.692   4.725
 --------------------------------------------------------------
 
          Ground-State Mulliken Net Atomic Charges

     Atom                 Charge (a.u.)
  ----------------------------------------
      1 H                     0.196732
      2 H                     0.118990
      3 C                     0.036791
      4 C                    -0.410881
      5 S                    -0.129516
      6 C                     0.536207
      7 H                     0.127290
      8 C                    -0.363349
      9 H                     0.125669
     10 C                    -0.129761
     11 C                    -0.089720
     12 S                    -0.053079
     13 C                     0.040201
     14 H                     0.127704
     15 C                    -0.096221
     16 C                    -0.471042
     17 H                     0.141146
     18 C                     0.315264
     19 S                     0.056110
     20 C                    -0.405533
     21 C                     0.015164
     22 H                     0.118376
     23 H                     0.193457
  ----------------------------------------
  Sum of atomic charges =     0.000000

 -----------------------------------------------------------------
                    Cartesian Multipole Moments
 -----------------------------------------------------------------
    Charge (ESU x 10^10)
                 0.0000
    Dipole Moment (Debye)
         X      -0.0518      Y       0.4115      Z      -0.6421
       Tot       0.7644
    Quadrupole Moments (Debye-Ang)
        XX     -90.4130     XY      -0.0896     YY    -103.2470
        XZ       0.2615     YZ      -1.7548     ZZ    -113.6236
    Octopole Moments (Debye-Ang^2)
       XXX      -8.9230    XXY      20.7110    XYY       4.6860
       YYY       0.2254    XXZ       7.9842    XYZ       8.3198
       YYZ     -11.9430    XZZ     -17.1846    YZZ       0.8433
       ZZZ      -7.3968
    Hexadecapole Moments (Debye-Ang^3)
      XXXX   -6341.1693   XXXY      11.1187   XXYY   -1310.4454
      XYYY      83.3735   YYYY    -758.1437   XXXZ      48.9535
      XXYZ     -44.5140   XYYZ      47.6032   YYYZ      35.3899
      XXZZ   -1348.5309   XYZZ       9.2198   YYZZ    -184.2858
      XZZZ     100.5582   YZZZ      29.5385   ZZZZ    -307.9336
 -----------------------------------------------------------------
 Calculating analytic gradient of the SCF energy
 Gradient of SCF Energy
            1           2           3           4           5           6
    1  -0.0000065  -0.0000072  -0.0000699  -0.0000472   0.0000299   0.0000128
    2  -0.0000006   0.0000089  -0.0000304   0.0000120  -0.0000321  -0.0000594
    3   0.0000032   0.0000026   0.0000064  -0.0000142  -0.0000530   0.0000527
            7           8           9          10          11          12
    1  -0.0000102   0.0001645   0.0000148  -0.0003058   0.0000318   0.0002390
    2  -0.0000020   0.0001591  -0.0000608   0.0001474  -0.0000613   0.0000287
    3  -0.0000214  -0.0000323  -0.0000260   0.0002340   0.0000634   0.0002790
           13          14          15          16          17          18
    1  -0.0001070  -0.0001270   0.0012916  -0.0010934   0.0001247  -0.0003053
    2   0.0009476   0.0001097  -0.0023059   0.0029397  -0.0001296  -0.0018289
    3  -0.0018612  -0.0001016   0.0015913   0.0006129  -0.0000444  -0.0011416
           19          20          21          22          23
    1  -0.0001597  -0.0000043   0.0003510  -0.0000060  -0.0000107
    2   0.0001423   0.0001639  -0.0001400   0.0000260  -0.0000341
    3   0.0003294  -0.0000538   0.0002509  -0.0000694  -0.0000070
 Max gradient component =       2.940E-03
 RMS gradient           =       6.562E-04
 Gradient time:  CPU 4.70 s  wall 4.62 s
 Geometry Optimization Parameters
   NAtoms,    NIC,     NZ,  NCons,   NDum,   NFix, NCnnct, MaxDiis
       23     166       0       1       0       0       0       0

 Cartesian Hessian Update
 Hessian Updated using BFGS Update


** CONSTRAINED OPTIMIZATION IN DELOCALIZED INTERNAL COORDINATES **
   Searching for a Minimum

   Optimization Cycle:   3

                       Coordinates (Angstroms)
     ATOM                X               Y               Z
      1  H         6.2368667649   -0.2263409968    0.1486826344
      2  H         5.3035606084    2.2261684931   -0.1389617255
      3  C         5.2014294845    0.0733001644    0.0630469512
      4  C         4.6886420642    1.3350632066   -0.0855844541
      5  S         3.9480219118   -1.1248194908    0.1136969049
      6  C         3.2668103370    1.3470650970   -0.1738911271
      7  H         2.6815421323    2.2490443866   -0.3144859846
      8  C         2.6989234513    0.0917110125   -0.0897944855
      9  H         1.3322624520   -2.3860222137   -0.6770024053
     10  C         1.2973820424   -0.2820114986   -0.1466506406
     11  C         0.7384412103   -1.5120885813   -0.4325817462
     12  S         0.0393485979    0.8963377205    0.1694924765
     13  C        -0.6824024331   -1.5086674640   -0.4202796136
     14  H        -1.2920889653   -2.3749323119   -0.6512747937
     15  C        -1.2282199238   -0.2810390850   -0.1213496125
     16  C        -2.6353520892    0.1114125149   -0.0597334666
     17  H        -2.7966405570    1.6802949263   -1.5374164156
     18  C        -3.2962980252    1.0724807709   -0.7913468157
     19  S        -3.7476671242   -0.7001880463    1.0275860136
     20  C        -4.6865804530    1.1611485666   -0.4861734059
     21  C        -5.0771515466    0.2616437950    0.4720159617
     22  H        -5.3675003059    1.8542481692   -0.9670701086
     23  H        -6.0666977537    0.1062020548    0.8801377787
   Point Group: c1    Number of degrees of freedom:    63


   Energy is  -1656.662255772

              Constraints and their Current Values
                                        Value     Constraint
   Dihedral:       13  15  16  18     -120.000     -120.000
 Hessian Updated using BFGS Update

 57 Hessian modes will be used to form the next step
  Hessian Eigenvalues:
     0.013217    0.045000    0.045000    0.045000    0.045001    0.045001
     0.045002    0.045003    0.045007    0.045009    0.045018    0.045019
     0.045077    0.045361    0.159617    0.159914    0.159958    0.159958
     0.159993    0.159999    0.160111    0.163454    0.221281    0.222364
     0.226876    0.237786    0.240644    0.249366    0.249982    0.249999
     0.250121    0.279111    0.293604    0.294141    0.294721    0.295485
     0.312568    0.313278    0.354731    0.354742    0.354752    0.354812
     0.355158    0.355164    0.358372    0.358520    0.383292    0.405789
     0.407207    0.414953    0.429168    0.459599    0.462206    0.480939
     0.496293    0.497283    0.550644

 Minimum Search - Taking Simple RFO Step
 Searching for Lamda that Minimizes Along All modes
 Value Taken    Lamda =  -0.00006021
 Step Taken.  Stepsize is  0.063179

                             Maximum     Tolerance    Cnvgd?
         Gradient           0.000592      0.000300      NO
         Displacement       0.033683      0.001200      NO
         Energy change     -0.000066      0.000001      NO


 New Cartesian Coordinates Obtained by Inverse Iteration

 Displacement from previous Coordinates is:  0.219950
 ----------------------------------------------------------------
             Standard Nuclear Orientation (Angstroms)
    I     Atom           X                Y                Z
 ----------------------------------------------------------------
    1      H       6.2382837876    -0.2267465115     0.1289299914
    2      H       5.3042083937     2.2254343197    -0.1587896454
    3      C       5.2024625302     0.0731113906     0.0486877973
    4      C       4.6892873977     1.3346913296    -0.0997786194
    5      S       3.9486567016    -1.1242093062     0.1098551642
    6      C       3.2667576506     1.3469997578    -0.1795710381
    7      H       2.6810752726     2.2490121193    -0.3182175965
    8      C       2.6989026183     0.0921033638    -0.0894191451
    9      H       1.3297705709    -2.3844933989    -0.6692193351
   10      C       1.2965028271    -0.2811248944    -0.1374348133
   11      C       0.7367941440    -1.5114282977    -0.4202184360
   12      S       0.0399537256     0.8965281885     0.1857897717
   13      C      -0.6845283730    -1.5084518592    -0.3998849065
   14      H      -1.2960827137    -2.3740412680    -0.6282707218
   15      C      -1.2283282055    -0.2813974459    -0.0949321097
   16      C      -2.6346874226     0.1157582686    -0.0422204278
   17      H      -2.7731512261     1.7072645474    -1.4976116252
   18      C      -3.2851835041     1.0858549548    -0.7714613254
   19      S      -3.7644376325    -0.7198641457     1.0069063689
   20      C      -4.6817902149     1.1644915837    -0.4909684412
   21      C      -5.0870440906     0.2467053777     0.4433195698
   22      H      -5.3565695419     1.8628552699    -0.9726737656
   23      H      -6.0842208148     0.0809578460     0.8282452088
 ----------------------------------------------------------------
 Nuclear Repulsion Energy =  1172.1145629385 hartrees
 There are       64 alpha and       64 beta electrons
 Applying Cartesian multipole field
    Component          Value
    ---------          -----
     (2,0,0)        1.00000E-12
     (0,2,0)        2.00000E-11
     (0,0,2)       -3.00000E-11
 Nucleus-field energy     =     0.0000000115 hartrees
 Requested basis set is 6-31++G(d,p)
 There are 110 shells and 345 basis functions
 A cutoff of  1.0D-12 yielded   4685 shell pairs
 There are     47704 function pairs

 Q-Chem warning in module /project/projectdirs/jcesr/qchem/qc44/cnl_qc441/compile/cori/qc_src/libqints/qchem/aobasis.C, line 68:

 Using reconstructed effective core potential

 Smallest overlap matrix eigenvalue = 8.49E-08
 Linear dependence detected in AO basis
 Number of orthogonalized atomic orbitals = 343
 Maximum deviation from orthogonality = 8.848E-11
 Guess MOs from SCF MO coefficient file
 Reading MOs from coefficient file
 Reading MOs from coefficient file
 A restricted hybrid HF-DFT SCF calculation will be
 performed using Pulay DIIS extrapolation
 Exchange:     0.2000 Hartree-Fock + 0.0800 Slater + 0.7200 B88
 Correlation:  0.1900 VWN1RPA + 0.8100 LYP
 Using SG-1 standard quadrature grid
 SCF converges when DIIS error is below 1.0E-08
 Geometry optimization detected.  Setting ReadMinima to 0
 Setting SaveMinima to 0
 ---------------------------------------
  Cycle       Energy         DIIS Error
 ---------------------------------------
    1   -1656.6605873043      5.39E-04
    2   -1656.6622059197      6.85E-05
    3   -1656.6619518050      1.44E-04
    4   -1656.6622922546      1.81E-05
    5   -1656.6622964300      8.66E-06
    6   -1656.6622974957      3.10E-06
    7   -1656.6622976409      1.17E-06
    8   -1656.6622976601      4.09E-07
    9   -1656.6622976620      1.17E-07
   10   -1656.6622976627      2.80E-08
   11   -1656.6622976629      1.39E-08
   12   -1656.6622976623      3.54E-09 Convergence criterion met
 ---------------------------------------
 SCF time:  CPU 13.32 s  wall 12.20 s
 SCF   energy in the final basis set = -1656.6622976623
 Total energy in the final basis set = -1656.6622976623
 
 --------------------------------------------------------------
 
                    Orbital Energies (a.u.)
 --------------------------------------------------------------
 
 Alpha MOs
 -- Occupied --
-88.922 -88.921 -88.921 -10.241 -10.240 -10.239 -10.238 -10.226
-10.226 -10.206 -10.206 -10.205 -10.205 -10.205 -10.205  -7.980
 -7.980  -7.980  -5.945  -5.945  -5.944  -5.941  -5.941  -5.941
 -5.938  -5.938  -5.938  -0.906  -0.892  -0.876  -0.786  -0.755
 -0.745  -0.744  -0.733  -0.697  -0.616  -0.595  -0.569  -0.561
 -0.537  -0.535  -0.528  -0.501  -0.462  -0.421  -0.420  -0.416
 -0.415  -0.407  -0.403  -0.399  -0.385  -0.376  -0.370  -0.359
 -0.351  -0.345  -0.285  -0.266  -0.262  -0.260  -0.248  -0.208
 -- Virtual --
 -0.065  -0.031  -0.009  -0.007  -0.005   0.003   0.007   0.009
  0.010   0.019   0.023   0.026   0.030   0.035   0.038   0.042
  0.045   0.050   0.052   0.054   0.057   0.061   0.074   0.075
  0.080   0.088   0.092   0.093   0.100   0.104   0.106   0.109
  0.111   0.119   0.123   0.125   0.125   0.128   0.128   0.131
  0.135   0.138   0.140   0.146   0.148   0.150   0.151   0.155
  0.159   0.168   0.170   0.175   0.177   0.178   0.182   0.194
  0.197   0.201   0.204   0.205   0.210   0.214   0.218   0.221
  0.227   0.234   0.237   0.239   0.250   0.254   0.259   0.261
  0.266   0.267   0.272   0.275   0.278   0.288   0.300   0.308
  0.312   0.318   0.327   0.329   0.337   0.350   0.355   0.359
  0.366   0.377   0.379   0.396   0.399   0.453   0.457   0.461
  0.494   0.511   0.520   0.526   0.536   0.560   0.568   0.577
  0.582   0.599   0.617   0.625   0.630   0.639   0.657   0.660
  0.662   0.668   0.679   0.692   0.694   0.712   0.717   0.724
  0.725   0.730   0.746   0.748   0.761   0.772   0.779   0.786
  0.790   0.809   0.814   0.824   0.830   0.837   0.845   0.872
  0.891   0.930   0.932   0.938   0.951   0.957   0.962   0.966
  0.967   0.976   0.978   0.982   0.994   0.998   1.003   1.023
  1.036   1.043   1.047   1.061   1.078   1.084   1.095   1.108
  1.109   1.117   1.152   1.158   1.171   1.183   1.199   1.220
  1.257   1.261   1.271   1.290   1.310   1.332   1.345   1.351
  1.352   1.362   1.366   1.387   1.445   1.459   1.473   1.498
  1.510   1.531   1.547   1.558   1.599   1.684   1.692   1.726
  1.754   1.793   1.835   1.865   1.869   1.879   1.895   1.901
  1.922   1.926   1.952   1.959   1.993   2.006   2.025   2.056
  2.072   2.086   2.105   2.121   2.151   2.175   2.181   2.191
  2.193   2.234   2.241   2.255   2.281   2.296   2.332   2.364
  2.368   2.421   2.436   2.442   2.453   2.457   2.470   2.481
  2.500   2.517   2.524   2.533   2.566   2.582   2.597   2.600
  2.619   2.657   2.680   2.698   2.713   2.733   2.804   2.853
  2.871   2.893   2.912   2.937   2.942   3.135   3.172   3.208
  3.269   3.272   3.325   3.413   3.414   3.674   3.729   3.737
  3.974   3.975   3.985   4.252   4.283   4.304   4.319   4.330
  4.356   4.399   4.482   4.547   4.647   4.692   4.725
 --------------------------------------------------------------
 
          Ground-State Mulliken Net Atomic Charges

     Atom                 Charge (a.u.)
  ----------------------------------------
      1 H                     0.196629
      2 H                     0.118930
      3 C                     0.037159
      4 C                    -0.412585
      5 S                    -0.128231
      6 C                     0.537626
      7 H                     0.127393
      8 C                    -0.361361
      9 H                     0.125309
     10 C                    -0.138314
     11 C                    -0.096511
     12 S                    -0.055250
     13 C                     0.050950
     14 H                     0.128441
     15 C                    -0.088369
     16 C                    -0.470477
     17 H                     0.141379
     18 C                     0.323719
     19 S                     0.051606
     20 C                    -0.419536
     21 C                     0.020339
     22 H                     0.117905
     23 H                     0.193249
  ----------------------------------------
  Sum of atomic charges =     0.000000

 -----------------------------------------------------------------
                    Cartesian Multipole Moments
 -----------------------------------------------------------------
    Charge (ESU x 10^10)
                 0.0000
    Dipole Moment (Debye)
         X      -0.0510      Y       0.4116      Z      -0.6654
       Tot       0.7840
    Quadrupole Moments (Debye-Ang)
        XX     -90.3799     XY      -0.0065     YY    -103.1811
        XZ       0.2948     YZ      -1.7898     ZZ    -113.7720
    Octopole Moments (Debye-Ang^2)
       XXX      -8.9931    XXY      20.1658    XYY       4.5840
       YYY       1.0398    XXZ       6.6509    XYZ       8.3252
       YYZ     -12.0510    XZZ     -16.3140    YZZ       1.0300
       ZZZ      -7.6148
    Hexadecapole Moments (Debye-Ang^3)
      XXXX   -6342.6590   XXXY      12.0304   XXYY   -1311.9249
      XYYY      78.6780   YYYY    -761.1367   XXXZ      51.4800
      XXYZ     -44.9785   XYYZ      47.4029   YYYZ      36.1068
      XXZZ   -1352.9877   XYZZ       8.0664   YYZZ    -183.8220
      XZZZ     101.9254   YZZZ      31.3945   ZZZZ    -301.7555
 -----------------------------------------------------------------
 Calculating analytic gradient of the SCF energy
 Gradient of SCF Energy
            1           2           3           4           5           6
    1   0.0000079  -0.0000010  -0.0000224   0.0000916  -0.0000212  -0.0001128
    2   0.0000116   0.0000004  -0.0000128  -0.0000079   0.0000732  -0.0001300
    3   0.0000098   0.0000098  -0.0000071  -0.0000174  -0.0000447   0.0000349
            7           8           9          10          11          12
    1  -0.0000050   0.0004098   0.0000097  -0.0007499   0.0006346   0.0000615
    2   0.0000009   0.0000616   0.0000264   0.0002298  -0.0000549  -0.0001876
    3   0.0000023  -0.0001050  -0.0000443   0.0003503   0.0000404  -0.0000176
           13          14          15          16          17          18
    1  -0.0004880  -0.0001977   0.0016229  -0.0012918   0.0002203  -0.0000333
    2   0.0011050   0.0001517  -0.0028840   0.0036609  -0.0001232  -0.0021138
    3  -0.0022712   0.0000018   0.0022917   0.0010374   0.0000444  -0.0015480
           19          20          21          22          23
    1   0.0000043  -0.0004691   0.0004490  -0.0000141  -0.0001054
    2   0.0002412   0.0001839  -0.0002029  -0.0000548   0.0000253
    3  -0.0000704   0.0000893   0.0003626  -0.0000218  -0.0001272
 Max gradient component =       3.661E-03
 RMS gradient           =       8.350E-04
 Gradient time:  CPU 4.64 s  wall 4.62 s
 Geometry Optimization Parameters
   NAtoms,    NIC,     NZ,  NCons,   NDum,   NFix, NCnnct, MaxDiis
       23     166       0       1       0       0       0       0

 Cartesian Hessian Update
 Hessian Updated using BFGS Update


** CONSTRAINED OPTIMIZATION IN DELOCALIZED INTERNAL COORDINATES **
   Searching for a Minimum

   Optimization Cycle:   4

                       Coordinates (Angstroms)
     ATOM                X               Y               Z
      1  H         6.2382837876   -0.2267465115    0.1289299914
      2  H         5.3042083937    2.2254343197   -0.1587896454
      3  C         5.2024625302    0.0731113906    0.0486877973
      4  C         4.6892873977    1.3346913296   -0.0997786194
      5  S         3.9486567016   -1.1242093062    0.1098551642
      6  C         3.2667576506    1.3469997578   -0.1795710381
      7  H         2.6810752726    2.2490121193   -0.3182175965
      8  C         2.6989026183    0.0921033638   -0.0894191451
      9  H         1.3297705709   -2.3844933989   -0.6692193351
     10  C         1.2965028271   -0.2811248944   -0.1374348133
     11  C         0.7367941440   -1.5114282977   -0.4202184360
     12  S         0.0399537256    0.8965281885    0.1857897717
     13  C        -0.6845283730   -1.5084518592   -0.3998849065
     14  H        -1.2960827137   -2.3740412680   -0.6282707218
     15  C        -1.2283282055   -0.2813974459   -0.0949321097
     16  C        -2.6346874226    0.1157582686   -0.0422204278
     17  H        -2.7731512261    1.7072645474   -1.4976116252
     18  C        -3.2851835041    1.0858549548   -0.7714613254
     19  S        -3.7644376325   -0.7198641457    1.0069063689
     20  C        -4.6817902149    1.1644915837   -0.4909684412
     21  C        -5.0870440906    0.2467053777    0.4433195698
     22  H        -5.3565695419    1.8628552699   -0.9726737656
     23  H        -6.0842208148    0.0809578460    0.8282452088
   Point Group: c1    Number of degrees of freedom:    63


   Energy is  -1656.662297662

              Constraints and their Current Values
                                        Value     Constraint
   Dihedral:       13  15  16  18     -120.000     -120.000
 Hessian Updated using BFGS Update

 61 Hessian modes will be used to form the next step
  Hessian Eigenvalues:
     0.008442    0.045000    0.045000    0.045000    0.045000    0.045000
     0.045000    0.045000    0.045001    0.045002    0.045002    0.045004
     0.045008    0.045009    0.045010    0.045018    0.045019    0.045135
     0.045455    0.159914    0.159956    0.159958    0.159992    0.159999
     0.160108    0.160523    0.163585    0.221285    0.222286    0.226880
     0.238045    0.249971    0.249984    0.250027    0.251104    0.276577
     0.293648    0.294591    0.295336    0.299497    0.312567    0.313299
     0.354741    0.354749    0.354789    0.354824    0.355164    0.355294
     0.358373    0.358519    0.383960    0.405770    0.408387    0.412804
     0.433434    0.459544    0.462212    0.478371    0.495011    0.497289
     0.514494

 Minimum Search - Taking Simple RFO Step
 Searching for Lamda that Minimizes Along All modes
 Value Taken    Lamda =  -0.00003394
 Step Taken.  Stepsize is  0.051187

                             Maximum     Tolerance    Cnvgd?
         Gradient           0.000928      0.000300      NO
         Displacement       0.027677      0.001200      NO
         Energy change     -0.000042      0.000001      NO


 New Cartesian Coordinates Obtained by Inverse Iteration

 Displacement from previous Coordinates is:  0.175298
 ----------------------------------------------------------------
             Standard Nuclear Orientation (Angstroms)
    I     Atom           X                Y                Z
 ----------------------------------------------------------------
    1      H       6.2384569782    -0.2263041437     0.1143087532
    2      H       5.3031365344     2.2253473784    -0.1745084304
    3      C       5.2023084482     0.0734274799     0.0380250068
    4      C       4.6884951165     1.3347251616    -0.1108629819
    5      S       3.9488388381    -1.1239011557     0.1072560179
    6      C       3.2657158311     1.3469073019    -0.1846399089
    7      H       2.6794831785     2.2486837017    -0.3225103654
    8      C       2.6983357507     0.0920561410    -0.0895933306
    9      H       1.3259931008    -2.3843184367    -0.6633121616
   10      C       1.2960342096    -0.2810757180    -0.1312710004
   11      C       0.7344570913    -1.5112458463    -0.4109589574
   12      S       0.0409459975     0.8965567435     0.1993552353
   13      C      -0.6863330347    -1.5084523230    -0.3835584962
   14      H      -1.2979020829    -2.3745061549    -0.6101116918
   15      C      -1.2289693804    -0.2813483710    -0.0734618694
   16      C      -2.6327581183     0.1189770914    -0.0277472929
   17      H      -2.7558941216     1.7297340947    -1.4653612481
   18      C      -3.2756752787     1.0966791026    -0.7549946101
   19      S      -3.7766205441    -0.7355834442     0.9903821936
   20      C      -4.6762945524     1.1670351427    -0.4949845448
   21      C      -5.0936222567     0.2349316169     0.4195117512
   22      H      -5.3456107163     1.8704059237    -0.9770673381
   23      H      -6.0958891087     0.0612799033     0.7871671901
 ----------------------------------------------------------------
 Nuclear Repulsion Energy =  1172.1366571443 hartrees
 There are       64 alpha and       64 beta electrons
 Applying Cartesian multipole field
    Component          Value
    ---------          -----
     (2,0,0)        1.00000E-12
     (0,2,0)        2.00000E-11
     (0,0,2)       -3.00000E-11
 Nucleus-field energy     =     0.0000000117 hartrees
 Requested basis set is 6-31++G(d,p)
 There are 110 shells and 345 basis functions
 A cutoff of  1.0D-12 yielded   4686 shell pairs
 There are     47710 function pairs

 Q-Chem warning in module /project/projectdirs/jcesr/qchem/qc44/cnl_qc441/compile/cori/qc_src/libqints/qchem/aobasis.C, line 68:

 Using reconstructed effective core potential

 Smallest overlap matrix eigenvalue = 8.64E-08
 Linear dependence detected in AO basis
 Number of orthogonalized atomic orbitals = 343
 Maximum deviation from orthogonality = 1.661E-10
 Guess MOs from SCF MO coefficient file
 Reading MOs from coefficient file
 Reading MOs from coefficient file
 A restricted hybrid HF-DFT SCF calculation will be
 performed using Pulay DIIS extrapolation
 Exchange:     0.2000 Hartree-Fock + 0.0800 Slater + 0.7200 B88
 Correlation:  0.1900 VWN1RPA + 0.8100 LYP
 Using SG-1 standard quadrature grid
 SCF converges when DIIS error is below 1.0E-08
 Geometry optimization detected.  Setting ReadMinima to 0
 Setting SaveMinima to 0
 ---------------------------------------
  Cycle       Energy         DIIS Error
 ---------------------------------------
    1   -1656.6605718817      4.49E-04
    2   -1656.6622566021      5.64E-05
    3   -1656.6620712535      1.21E-04
    4   -1656.6623152256      1.43E-05
    5   -1656.6623177836      6.91E-06
    6   -1656.6623184458      2.52E-06
    7   -1656.6623185394      1.00E-06
    8   -1656.6623185551      2.91E-07
    9   -1656.6623185568      1.04E-07
   10   -1656.6623185565      1.92E-08
   11   -1656.6623185580      1.07E-08
   12   -1656.6623185570      2.77E-09 Convergence criterion met
 ---------------------------------------
 SCF time:  CPU 13.21 s  wall 12.09 s
 SCF   energy in the final basis set = -1656.6623185570
 Total energy in the final basis set = -1656.6623185570
 
 --------------------------------------------------------------
 
                    Orbital Energies (a.u.)
 --------------------------------------------------------------
 
 Alpha MOs
 -- Occupied --
-88.922 -88.921 -88.921 -10.241 -10.240 -10.239 -10.238 -10.226
-10.226 -10.206 -10.206 -10.205 -10.205 -10.205 -10.205  -7.981
 -7.981  -7.980  -5.945  -5.945  -5.944  -5.941  -5.941  -5.941
 -5.938  -5.938  -5.938  -0.906  -0.892  -0.876  -0.786  -0.755
 -0.745  -0.744  -0.733  -0.697  -0.616  -0.595  -0.569  -0.561
 -0.537  -0.535  -0.528  -0.501  -0.462  -0.421  -0.420  -0.416
 -0.415  -0.407  -0.403  -0.399  -0.385  -0.376  -0.370  -0.359
 -0.351  -0.345  -0.285  -0.266  -0.262  -0.260  -0.248  -0.208
 -- Virtual --
 -0.065  -0.031  -0.009  -0.007  -0.005   0.003   0.007   0.009
  0.010   0.019   0.023   0.026   0.030   0.035   0.038   0.042
  0.046   0.050   0.052   0.054   0.056   0.061   0.074   0.075
  0.080   0.088   0.092   0.093   0.100   0.104   0.106   0.109
  0.111   0.119   0.123   0.125   0.125   0.128   0.129   0.131
  0.135   0.138   0.140   0.146   0.149   0.150   0.152   0.155
  0.159   0.168   0.170   0.175   0.177   0.178   0.182   0.193
  0.197   0.200   0.204   0.205   0.210   0.214   0.218   0.221
  0.227   0.233   0.237   0.239   0.250   0.253   0.259   0.261
  0.266   0.268   0.272   0.275   0.278   0.288   0.300   0.308
  0.312   0.318   0.327   0.329   0.338   0.351   0.356   0.360
  0.367   0.377   0.379   0.397   0.399   0.453   0.457   0.462
  0.494   0.511   0.520   0.527   0.536   0.561   0.568   0.577
  0.582   0.598   0.617   0.625   0.629   0.638   0.657   0.659
  0.662   0.668   0.679   0.690   0.694   0.712   0.717   0.723
  0.725   0.730   0.746   0.748   0.762   0.772   0.779   0.786
  0.790   0.809   0.814   0.824   0.830   0.838   0.845   0.872
  0.891   0.930   0.932   0.939   0.951   0.957   0.962   0.966
  0.967   0.976   0.978   0.982   0.994   0.998   1.003   1.024
  1.036   1.043   1.047   1.061   1.078   1.084   1.095   1.108
  1.109   1.116   1.152   1.158   1.172   1.183   1.199   1.220
  1.258   1.261   1.270   1.291   1.310   1.333   1.345   1.350
  1.352   1.362   1.366   1.388   1.444   1.458   1.472   1.498
  1.510   1.533   1.545   1.559   1.598   1.684   1.692   1.726
  1.751   1.793   1.835   1.864   1.869   1.879   1.895   1.901
  1.922   1.927   1.952   1.959   1.993   2.006   2.025   2.056
  2.072   2.088   2.105   2.120   2.150   2.175   2.181   2.192
  2.194   2.233   2.241   2.254   2.280   2.297   2.332   2.364
  2.368   2.421   2.437   2.442   2.454   2.457   2.470   2.481
  2.500   2.518   2.524   2.533   2.566   2.583   2.597   2.600
  2.619   2.657   2.680   2.698   2.713   2.734   2.804   2.854
  2.871   2.893   2.911   2.936   2.942   3.135   3.172   3.208
  3.269   3.272   3.325   3.414   3.415   3.673   3.729   3.737
  3.973   3.975   3.985   4.252   4.283   4.304   4.319   4.330
  4.356   4.398   4.482   4.547   4.647   4.692   4.725
 --------------------------------------------------------------
 
          Ground-State Mulliken Net Atomic Charges

     Atom                 Charge (a.u.)
  ----------------------------------------
      1 H                     0.196512
      2 H                     0.118892
      3 C                     0.037010
      4 C                    -0.413426
      5 S                    -0.126578
      6 C                     0.537405
      7 H                     0.127530
      8 C                    -0.360052
      9 H                     0.124946
     10 C                    -0.145726
     11 C                    -0.100071
     12 S                    -0.057391
     13 C                     0.057442
     14 H                     0.128958
     15 C                    -0.079865
     16 C                    -0.468216
     17 H                     0.141452
     18 C                     0.328847
     19 S                     0.048231
     20 C                    -0.430011
     21 C                     0.023466
     22 H                     0.117546
     23 H                     0.193097
  ----------------------------------------
  Sum of atomic charges =     0.000000

 -----------------------------------------------------------------
                    Cartesian Multipole Moments
 -----------------------------------------------------------------
    Charge (ESU x 10^10)
                 0.0000
    Dipole Moment (Debye)
         X      -0.0487      Y       0.4122      Z      -0.6829
       Tot       0.7991
    Quadrupole Moments (Debye-Ang)
        XX     -90.3725     XY       0.0493     YY    -103.1155
        XZ       0.3212     YZ      -1.8179     ZZ    -113.8842
    Octopole Moments (Debye-Ang^2)
       XXX      -8.9863    XXY      19.7824    XYY       4.4717
       YYY       1.7047    XXZ       5.6028    XYZ       8.3058
       YYZ     -12.1511    XZZ     -15.6526    YZZ       1.1910
       ZZZ      -7.8008
    Hexadecapole Moments (Debye-Ang^3)
      XXXX   -6342.4678   XXXY      12.6369   XXYY   -1312.4732
      XYYY      74.8203   YYYY    -763.6151   XXXZ      53.4573
      XXYZ     -45.3123   XYYZ      47.1797   YYYZ      36.6026
      XXZZ   -1355.8003   XYZZ       7.0932   YYZZ    -183.5326
      XZZZ     102.7594   YZZZ      32.8072   ZZZZ    -297.0617
 -----------------------------------------------------------------
 Calculating analytic gradient of the SCF energy
 Gradient of SCF Energy
            1           2           3           4           5           6
    1  -0.0000019  -0.0000078  -0.0000393   0.0000578  -0.0000409  -0.0001014
    2   0.0000061   0.0000062   0.0000087   0.0000062   0.0000026  -0.0000653
    3   0.0000074   0.0000054  -0.0000152  -0.0000186  -0.0000165   0.0000204
            7           8           9          10          11          12
    1   0.0000045   0.0003318  -0.0000060  -0.0005202   0.0004426  -0.0000303
    2   0.0000153  -0.0000097   0.0000338   0.0001647  -0.0000285  -0.0001186
    3   0.0000155  -0.0001124  -0.0000419   0.0002640   0.0000274  -0.0001068
           13          14          15          16          17          18
    1  -0.0002655  -0.0000897   0.0005029  -0.0000820   0.0001035  -0.0002912
    2   0.0008667   0.0000590  -0.0026052   0.0036067  -0.0000241  -0.0019830
    3  -0.0026818   0.0000494   0.0029679   0.0015228   0.0000574  -0.0020136
           19          20          21          22          23
    1   0.0000946  -0.0002687   0.0002886  -0.0000122  -0.0000692
    2   0.0000897   0.0000965  -0.0001012  -0.0000481   0.0000216
    3  -0.0001102   0.0000691   0.0002554  -0.0000117  -0.0001335
 Max gradient component =       3.607E-03
 RMS gradient           =       8.370E-04
 Gradient time:  CPU 4.71 s  wall 4.61 s
 Geometry Optimization Parameters
   NAtoms,    NIC,     NZ,  NCons,   NDum,   NFix, NCnnct, MaxDiis
       23     166       0       1       0       0       0       0

 Cartesian Hessian Update
 Hessian Updated using BFGS Update


** CONSTRAINED OPTIMIZATION IN DELOCALIZED INTERNAL COORDINATES **
   Searching for a Minimum

   Optimization Cycle:   5

                       Coordinates (Angstroms)
     ATOM                X               Y               Z
      1  H         6.2384569782   -0.2263041437    0.1143087532
      2  H         5.3031365344    2.2253473784   -0.1745084304
      3  C         5.2023084482    0.0734274799    0.0380250068
      4  C         4.6884951165    1.3347251616   -0.1108629819
      5  S         3.9488388381   -1.1239011557    0.1072560179
      6  C         3.2657158311    1.3469073019   -0.1846399089
      7  H         2.6794831785    2.2486837017   -0.3225103654
      8  C         2.6983357507    0.0920561410   -0.0895933306
      9  H         1.3259931008   -2.3843184367   -0.6633121616
     10  C         1.2960342096   -0.2810757180   -0.1312710004
     11  C         0.7344570913   -1.5112458463   -0.4109589574
     12  S         0.0409459975    0.8965567435    0.1993552353
     13  C        -0.6863330347   -1.5084523230   -0.3835584962
     14  H        -1.2979020829   -2.3745061549   -0.6101116918
     15  C        -1.2289693804   -0.2813483710   -0.0734618694
     16  C        -2.6327581183    0.1189770914   -0.0277472929
     17  H        -2.7558941216    1.7297340947   -1.4653612481
     18  C        -3.2756752787    1.0966791026   -0.7549946101
     19  S        -3.7766205441   -0.7355834442    0.9903821936
     20  C        -4.6762945524    1.1670351427   -0.4949845448
     21  C        -5.0936222567    0.2349316169    0.4195117512
     22  H        -5.3456107163    1.8704059237   -0.9770673381
     23  H        -6.0958891087    0.0612799033    0.7871671901
   Point Group: c1    Number of degrees of freedom:    63


   Energy is  -1656.662318557

              Constraints and their Current Values
                                        Value     Constraint
   Dihedral:       13  15  16  18     -120.000     -120.000
 Hessian Updated using BFGS Update

 61 Hessian modes will be used to form the next step
  Hessian Eigenvalues:
     0.008453    0.044581    0.045000    0.045000    0.045000    0.045000
     0.045000    0.045001    0.045001    0.045002    0.045003    0.045004
     0.045009    0.045009    0.045016    0.045018    0.045025    0.045225
     0.157648    0.159917    0.159958    0.159962    0.159996    0.160001
     0.160192    0.160946    0.221301    0.222453    0.227021    0.238008
     0.241002    0.248577    0.249983    0.250006    0.250123    0.266923
     0.292316    0.293654    0.294712    0.295848    0.312579    0.313273
     0.354733    0.354743    0.354762    0.354827    0.355164    0.355240
     0.358374    0.358503    0.383723    0.400139    0.405854    0.408727
     0.420889    0.459355    0.462148    0.467660    0.484270    0.497295
     0.497564

 Minimum Search - Taking Simple RFO Step
 Searching for Lamda that Minimizes Along All modes
 Value Taken    Lamda =  -0.00000578
 Step Taken.  Stepsize is  0.011965

                             Maximum     Tolerance    Cnvgd?
         Gradient           0.000474      0.000300      NO
         Displacement       0.006259      0.001200      NO
         Energy change     -0.000021      0.000001      NO


 New Cartesian Coordinates Obtained by Inverse Iteration

 Displacement from previous Coordinates is:  0.031459
 ----------------------------------------------------------------
             Standard Nuclear Orientation (Angstroms)
    I     Atom           X                Y                Z
 ----------------------------------------------------------------
    1      H       6.2387747094    -0.2259041331     0.1134668981
    2      H       5.3030769879     2.2253443411    -0.1773959864
    3      C       5.2025694988     0.0736691154     0.0372740583
    4      C       4.6885029779     1.3347502350    -0.1126664498
[...]
    5   -1656.6623224397      3.51E-07
    6   -1656.6623224414      1.64E-07
    7   -1656.6623224416      5.21E-08
    8   -1656.6623224422      2.85E-08
    9   -1656.6623224407      6.56E-09 Convergence criterion met
 ---------------------------------------
 SCF time:  CPU 9.89 s  wall 9.05 s
 SCF   energy in the final basis set = -1656.6623224407
 Total energy in the final basis set = -1656.6623224407
 
 --------------------------------------------------------------
 
                    Orbital Energies (a.u.)
 --------------------------------------------------------------
 
 Alpha MOs
 -- Occupied --
-88.921 -88.921 -88.921 -10.241 -10.240 -10.239 -10.238 -10.226
-10.226 -10.206 -10.206 -10.205 -10.205 -10.205 -10.205  -7.981
 -7.980  -7.980  -5.945  -5.945  -5.944  -5.941  -5.941  -5.941
 -5.938  -5.938  -5.937  -0.906  -0.892  -0.876  -0.786  -0.755
 -0.745  -0.744  -0.733  -0.697  -0.616  -0.595  -0.569  -0.561
 -0.537  -0.535  -0.528  -0.501  -0.462  -0.421  -0.420  -0.417
 -0.415  -0.407  -0.403  -0.399  -0.385  -0.376  -0.370  -0.359
 -0.351  -0.345  -0.285  -0.266  -0.262  -0.260  -0.248  -0.208
 -- Virtual --
 -0.065  -0.031  -0.009  -0.007  -0.005   0.003   0.007   0.009
  0.010   0.019   0.023   0.026   0.030   0.035   0.038   0.042
  0.046   0.050   0.052   0.054   0.056   0.061   0.074   0.075
  0.080   0.088   0.092   0.093   0.100   0.104   0.106   0.109
  0.111   0.119   0.123   0.125   0.125   0.128   0.129   0.131
  0.135   0.138   0.140   0.146   0.148   0.150   0.152   0.155
  0.159   0.168   0.170   0.174   0.177   0.178   0.182   0.193
  0.197   0.200   0.204   0.205   0.210   0.214   0.218   0.221
  0.227   0.233   0.237   0.239   0.250   0.253   0.259   0.261
  0.266   0.268   0.272   0.275   0.278   0.288   0.300   0.308
  0.312   0.318   0.327   0.329   0.338   0.351   0.356   0.360
  0.367   0.377   0.378   0.397   0.399   0.453   0.458   0.462
  0.494   0.511   0.520   0.527   0.536   0.561   0.568   0.577
  0.582   0.598   0.617   0.625   0.629   0.638   0.657   0.659
  0.662   0.668   0.679   0.690   0.694   0.712   0.717   0.723
  0.725   0.730   0.746   0.748   0.762   0.772   0.779   0.785
  0.790   0.810   0.814   0.824   0.830   0.838   0.845   0.872
  0.891   0.930   0.932   0.939   0.951   0.957   0.962   0.966
  0.967   0.976   0.978   0.982   0.994   0.998   1.003   1.024
  1.036   1.043   1.047   1.061   1.078   1.083   1.095   1.108
  1.109   1.116   1.152   1.158   1.172   1.183   1.200   1.220
  1.258   1.261   1.270   1.292   1.310   1.333   1.346   1.350
  1.352   1.362   1.365   1.388   1.444   1.458   1.471   1.499
  1.511   1.533   1.545   1.560   1.598   1.684   1.692   1.726
  1.751   1.793   1.836   1.863   1.869   1.879   1.895   1.901
  1.922   1.927   1.952   1.959   1.993   2.006   2.025   2.056
  2.072   2.088   2.105   2.120   2.150   2.175   2.181   2.192
  2.194   2.233   2.240   2.254   2.280   2.297   2.333   2.364
  2.367   2.421   2.437   2.442   2.454   2.457   2.470   2.481
  2.500   2.518   2.524   2.534   2.566   2.583   2.597   2.600
  2.619   2.658   2.680   2.698   2.713   2.735   2.804   2.854
  2.871   2.893   2.912   2.937   2.942   3.135   3.172   3.209
  3.270   3.272   3.325   3.414   3.415   3.673   3.730   3.738
  3.973   3.975   3.985   4.252   4.284   4.304   4.319   4.330
  4.356   4.399   4.482   4.547   4.647   4.692   4.725
 --------------------------------------------------------------
 
          Ground-State Mulliken Net Atomic Charges

     Atom                 Charge (a.u.)
  ----------------------------------------
      1 H                     0.196509
      2 H                     0.118895
      3 C                     0.037079
      4 C                    -0.413801
      5 S                    -0.125715
      6 C                     0.535926
      7 H                     0.127650
      8 C                    -0.359868
      9 H                     0.124861
     10 C                    -0.147096
     11 C                    -0.099969
     12 S                    -0.057955
     13 C                     0.057641
     14 H                     0.129014
     15 C                    -0.076053
     16 C                    -0.468365
     17 H                     0.141416
     18 C                     0.329638
     19 S                     0.047194
     20 C                    -0.431711
     21 C                     0.024034
     22 H                     0.117494
     23 H                     0.193180
  ----------------------------------------
  Sum of atomic charges =     0.000000

 -----------------------------------------------------------------
                    Cartesian Multipole Moments
 -----------------------------------------------------------------
    Charge (ESU x 10^10)
                 0.0000
    Dipole Moment (Debye)
         X      -0.0464      Y       0.4133      Z      -0.6845
       Tot       0.8010
    Quadrupole Moments (Debye-Ang)
        XX     -90.3594     XY       0.0466     YY    -103.1054
        XZ       0.3206     YZ      -1.8269     ZZ    -113.8997
    Octopole Moments (Debye-Ang^2)
       XXX      -8.9481    XXY      19.8090    XYY       4.4253
       YYY       1.8163    XXZ       5.5701    XYZ       8.2639
       YYZ     -12.1888    XZZ     -15.5580    YZZ       1.2198
       ZZZ      -7.8451
    Hexadecapole Moments (Debye-Ang^3)
      XXXX   -6342.9324   XXXY      12.4619   XXYY   -1312.6200
      XYYY      73.9887   YYYY    -763.9774   XXXZ      53.3408
      XXYZ     -45.4205   XYYZ      46.9917   YYYZ      36.7251
      XXZZ   -1356.2393   XYZZ       6.8974   YYZZ    -183.4833
      XZZZ     102.4592   YZZZ      33.1174   ZZZZ    -296.4264
 -----------------------------------------------------------------
 Calculating analytic gradient of the SCF energy
 Gradient of SCF Energy
            1           2           3           4           5           6
    1  -0.0000017  -0.0000018   0.0000009  -0.0000020  -0.0000043  -0.0000045
    2   0.0000011   0.0000040   0.0000129   0.0000016  -0.0000087   0.0000095
    3  -0.0000025  -0.0000037  -0.0000034  -0.0000004  -0.0000165   0.0000161
            7           8           9          10          11          12
    1   0.0000019   0.0000020  -0.0000006   0.0000129  -0.0000168  -0.0000027
    2   0.0000042  -0.0000126   0.0000034   0.0000134  -0.0000118  -0.0000090
    3   0.0000058  -0.0000355  -0.0000115   0.0000448   0.0000222  -0.0000269
           13          14          15          16          17          18
    1   0.0001425   0.0000095  -0.0006099   0.0010736  -0.0000056  -0.0006201
    2   0.0007243  -0.0000113  -0.0022254   0.0033401   0.0000189  -0.0018593
    3  -0.0027353   0.0000199   0.0031373   0.0015782   0.0000190  -0.0020253
           19          20          21          22          23
    1   0.0000135   0.0000263  -0.0000050  -0.0000050  -0.0000031
    2   0.0000059   0.0000019   0.0000205  -0.0000073  -0.0000164
    3  -0.0000079   0.0000027   0.0000414   0.0000001  -0.0000186
 Max gradient component =       3.340E-03
 RMS gradient           =       8.160E-04
 Gradient time:  CPU 4.62 s  wall 4.62 s
 Geometry Optimization Parameters
   NAtoms,    NIC,     NZ,  NCons,   NDum,   NFix, NCnnct, MaxDiis
       23     166       0       1       0       0       0       0

 Cartesian Hessian Update
 Hessian Updated using BFGS Update


** CONSTRAINED OPTIMIZATION IN DELOCALIZED INTERNAL COORDINATES **
   Searching for a Minimum

   Optimization Cycle:   7

                       Coordinates (Angstroms)
     ATOM                X               Y               Z
      1  H         6.2386490928   -0.2258387909    0.1156496833
      2  H         5.3031836634    2.2252622035   -0.1771687681
      3  C         5.2024937407    0.0736957549    0.0387007030
      4  C         4.6885440871    1.3347211439   -0.1122760333
      5  S         3.9491154424   -1.1236502618    0.1089798228
      6  C         3.2659060348    1.3467128439   -0.1869502517
      7  H         2.6796457625    2.2481453501   -0.3268683711
      8  C         2.6983814524    0.0919046145   -0.0902730000
      9  H         1.3242823768   -2.3849680041   -0.6631562295
     10  C         1.2965817617   -0.2814053256   -0.1323533785
     11  C         0.7335716321   -1.5112543740   -0.4108574636
     12  S         0.0417619690    0.8965464537    0.2010067463
     13  C        -0.6866243014   -1.5081274349   -0.3815521274
     14  H        -1.2974701452   -2.3746905004   -0.6082222199
     15  C        -1.2295396629   -0.2808798040   -0.0703557534
     16  C        -2.6318270913    0.1197057657   -0.0253969692
     17  H        -2.7550599008    1.7341730129   -1.4600903658
     18  C        -3.2746811374    1.0987119027   -0.7517419444
     19  S        -3.7785001704   -0.7383785595    0.9876388058
     20  C        -4.6756204050    1.1671951116   -0.4952364140
     21  C        -5.0951073616    0.2324642883    0.4155255201
     22  H        -5.3437277288    1.8722525861   -0.9766211515
     23  H        -6.0973272310    0.0577132134    0.7826810803
   Point Group: c1    Number of degrees of freedom:    63


   Energy is  -1656.662322441

              Constraints and their Current Values
                                        Value     Constraint
   Dihedral:       13  15  16  18     -120.000     -120.000
 Hessian Updated using BFGS Update

 61 Hessian modes will be used to form the next step
  Hessian Eigenvalues:
     0.009017    0.022608    0.045000    0.045000    0.045000    0.045000
     0.045001    0.045001    0.045002    0.045004    0.045005    0.045009
     0.045009    0.045014    0.045018    0.045019    0.045127    0.045896
     0.156966    0.159917    0.159968    0.159971    0.160001    0.160077
     0.160373    0.162193    0.221349    0.221802    0.226777    0.238733
     0.239671    0.244709    0.249981    0.250014    0.250658    0.273567
     0.287601    0.293655    0.294664    0.296100    0.312607    0.313279
     0.354739    0.354752    0.354789    0.354831    0.355169    0.355276
     0.358395    0.358514    0.384001    0.405948    0.408144    0.410537
     0.430294    0.459399    0.462296    0.475417    0.491052    0.497282
     0.504672

 Minimum Search - Taking Simple RFO Step
 Searching for Lamda that Minimizes Along All modes
 Value Taken    Lamda =   0.00000000
 Step Taken.  Stepsize is  0.002741

                             Maximum     Tolerance    Cnvgd?
         Gradient           0.000043      0.000300     YES
         Displacement       0.001062      0.001200     YES
         Energy change     -0.000000      0.000001     YES

 Final energy is   -1656.66232244071     


 ******************************
 **  OPTIMIZATION CONVERGED  **
 ******************************

                       Coordinates (Angstroms)
     ATOM                X               Y               Z
      1  H         6.2386490928   -0.2258387909    0.1156496833
      2  H         5.3031836634    2.2252622035   -0.1771687681
      3  C         5.2024937407    0.0736957549    0.0387007030
      4  C         4.6885440871    1.3347211439   -0.1122760333
      5  S         3.9491154424   -1.1236502618    0.1089798228
      6  C         3.2659060348    1.3467128439   -0.1869502517
      7  H         2.6796457625    2.2481453501   -0.3268683711
      8  C         2.6983814524    0.0919046145   -0.0902730000
      9  H         1.3242823768   -2.3849680041   -0.6631562295
     10  C         1.2965817617   -0.2814053256   -0.1323533785
     11  C         0.7335716321   -1.5112543740   -0.4108574636
     12  S         0.0417619690    0.8965464537    0.2010067463
     13  C        -0.6866243014   -1.5081274349   -0.3815521274
     14  H        -1.2974701452   -2.3746905004   -0.6082222199
     15  C        -1.2295396629   -0.2808798040   -0.0703557534
     16  C        -2.6318270913    0.1197057657   -0.0253969692
     17  H        -2.7550599008    1.7341730129   -1.4600903658
     18  C        -3.2746811374    1.0987119027   -0.7517419444
     19  S        -3.7785001704   -0.7383785595    0.9876388058
     20  C        -4.6756204050    1.1671951116   -0.4952364140
     21  C        -5.0951073616    0.2324642883    0.4155255201
     22  H        -5.3437277288    1.8722525861   -0.9766211515
     23  H        -6.0973272310    0.0577132134    0.7826810803

Z-matrix Print:
$molecule
0 1
S 
C  1 1.753075
C  2 1.380968 1 110.177864
H  3 1.084421 2 122.845077 1 178.921431 0
C  3 1.420502 2 113.670955 1 1.034201 0
H  5 1.084179 3 123.864043 2 177.847807 0
C  5 1.377584 3 113.618418 2 -0.488527 0
C  2 1.451266 1 120.865792 3 -179.855189 0
C  8 1.380570 2 128.964293 1 -20.345966 0
H  9 1.084370 8 122.844214 2 -0.834270 0
C  9 1.424647 8 113.526868 2 -179.638352 0
H  11 1.084000 9 123.790521 8 179.543573 0
C  11 1.370081 9 112.837431 8 0.098116 0
H  13 1.081323 11 128.480918 9 179.587458 0
C  7 1.459075 5 129.073370 3 176.006126 0
C  15 1.378148 7 128.836502 5 -120.000000 0
H  16 1.084239 15 122.487702 7 -1.985512 0
C  16 1.425874 15 113.428982 7 176.881972 0
H  18 1.084069 16 123.839861 15 -179.776049 0
C  18 1.370831 16 112.794512 15 -0.564534 0
H  20 1.081566 18 128.262704 16 -179.414652 0
S  20 1.733004 18 111.644071 16 0.575521 0
S  13 1.734801 11 111.635152 9 -0.596176 0
$end

 
 --------------------------------------------------------------
 
                    Orbital Energies (a.u.)
 --------------------------------------------------------------
 
 Alpha MOs
 -- Occupied --
-88.921 -88.921 -88.921 -10.241 -10.240 -10.239 -10.238 -10.226
-10.226 -10.206 -10.206 -10.205 -10.205 -10.205 -10.205  -7.981
 -7.980  -7.980  -5.945  -5.945  -5.944  -5.941  -5.941  -5.941
 -5.938  -5.938  -5.937  -0.906  -0.892  -0.876  -0.786  -0.755
 -0.745  -0.744  -0.733  -0.697  -0.616  -0.595  -0.569  -0.561
 -0.537  -0.535  -0.528  -0.501  -0.462  -0.421  -0.420  -0.417
 -0.415  -0.407  -0.403  -0.399  -0.385  -0.376  -0.370  -0.359
 -0.351  -0.345  -0.285  -0.266  -0.262  -0.260  -0.248  -0.208
 -- Virtual --
 -0.065  -0.031  -0.009  -0.007  -0.005   0.003   0.007   0.009
  0.010   0.019   0.023   0.026   0.030   0.035   0.038   0.042
  0.046   0.050   0.052   0.054   0.056   0.061   0.074   0.075
  0.080   0.088   0.092   0.093   0.100   0.104   0.106   0.109
  0.111   0.119   0.123   0.125   0.125   0.128   0.129   0.131
  0.135   0.138   0.140   0.146   0.148   0.150   0.152   0.155
  0.159   0.168   0.170   0.174   0.177   0.178   0.182   0.193
  0.197   0.200   0.204   0.205   0.210   0.214   0.218   0.221
  0.227   0.233   0.237   0.239   0.250   0.253   0.259   0.261
  0.266   0.268   0.272   0.275   0.278   0.288   0.300   0.308
  0.312   0.318   0.327   0.329   0.338   0.351   0.356   0.360
  0.367   0.377   0.378   0.397   0.399   0.453   0.458   0.462
  0.494   0.511   0.520   0.527   0.536   0.561   0.568   0.577
  0.582   0.598   0.617   0.625   0.629   0.638   0.657   0.659
  0.662   0.668   0.679   0.690   0.694   0.712   0.717   0.723
  0.725   0.730   0.746   0.748   0.762   0.772   0.779   0.785
  0.790   0.810   0.814   0.824   0.830   0.838   0.845   0.872
  0.891   0.930   0.932   0.939   0.951   0.957   0.962   0.966
  0.967   0.976   0.978   0.982   0.994   0.998   1.003   1.024
  1.036   1.043   1.047   1.061   1.078   1.083   1.095   1.108
  1.109   1.116   1.152   1.158   1.172   1.183   1.200   1.220
  1.258   1.261   1.270   1.292   1.310   1.333   1.346   1.350
  1.352   1.362   1.365   1.388   1.444   1.458   1.471   1.499
  1.511   1.533   1.545   1.560   1.598   1.684   1.692   1.726
  1.751   1.793   1.836   1.863   1.869   1.879   1.895   1.901
  1.922   1.927   1.952   1.959   1.993   2.006   2.025   2.056
  2.072   2.088   2.105   2.120   2.150   2.175   2.181   2.192
  2.194   2.233   2.240   2.254   2.280   2.297   2.333   2.364
  2.367   2.421   2.437   2.442   2.454   2.457   2.470   2.481
  2.500   2.518   2.524   2.534   2.566   2.583   2.597   2.600
  2.619   2.658   2.680   2.698   2.713   2.735   2.804   2.854
  2.871   2.893   2.912   2.937   2.942   3.135   3.172   3.209
  3.270   3.272   3.325   3.414   3.415   3.673   3.730   3.738
  3.973   3.975   3.985   4.252   4.284   4.304   4.319   4.330
  4.356   4.399   4.482   4.547   4.647   4.692   4.725
 --------------------------------------------------------------
 
          Ground-State Mulliken Net Atomic Charges

     Atom                 Charge (a.u.)
  ----------------------------------------
      1 H                     0.196509
      2 H                     0.118895
      3 C                     0.037079
      4 C                    -0.413801
      5 S                    -0.125715
      6 C                     0.535926
      7 H                     0.127650
      8 C                    -0.359868
      9 H                     0.124861
     10 C                    -0.147096
     11 C                    -0.099969
     12 S                    -0.057955
     13 C                     0.057641
     14 H                     0.129014
     15 C                    -0.076053
     16 C                    -0.468365
     17 H                     0.141416
     18 C                     0.329638
     19 S                     0.047194
     20 C                    -0.431711
     21 C                     0.024034
     22 H                     0.117494
     23 H                     0.193180
  ----------------------------------------
  Sum of atomic charges =     0.000000

 -----------------------------------------------------------------
                    Cartesian Multipole Moments
 -----------------------------------------------------------------
    Charge (ESU x 10^10)
                 0.0000
    Dipole Moment (Debye)
         X      -0.0464      Y       0.4133      Z      -0.6845
       Tot       0.8010
    Quadrupole Moments (Debye-Ang)
        XX     -90.3594     XY       0.0466     YY    -103.1054
        XZ       0.3206     YZ      -1.8269     ZZ    -113.8997
    Octopole Moments (Debye-Ang^2)
       XXX      -8.9481    XXY      19.8090    XYY       4.4253
       YYY       1.8163    XXZ       5.5701    XYZ       8.2639
       YYZ     -12.1888    XZZ     -15.5580    YZZ       1.2198
       ZZZ      -7.8451
    Hexadecapole Moments (Debye-Ang^3)
      XXXX   -6342.9324   XXXY      12.4619   XXYY   -1312.6200
      XYYY      73.9887   YYYY    -763.9774   XXXZ      53.3408
      XXYZ     -45.4205   XYYZ      46.9917   YYYZ      36.7251
      XXZZ   -1356.2393   XYZZ       6.8974   YYZZ    -183.4833
      XZZZ     102.4592   YZZZ      33.1174   ZZZZ    -296.4264
 -----------------------------------------------------------------
Archival summary:
1\1\nid00480\OPT\ProcedureUnspecified\BasisUnspecified\3128\bwood\TueMay3010:54:372017TueMay3010:54:372017\0\\#,OPT,ProcedureUnspecified,BasisUnspecified,\\0,1\S\C,1,1.75308\C,2,1.38097,1,110.178\H,3,1.08442,2,122.845,1,178.921,0\C,3,1.4205,2,113.671,1,1.0342,0\H,5,1.08418,3,123.864,2,177.848,0\C,5,1.37758,3,113.618,2,-0.488527,0\C,2,1.45127,1,120.866,3,-179.855,0\C,8,1.38057,2,128.964,1,-20.346,0\H,9,1.08437,8,122.844,2,-0.83427,0\C,9,1.42465,8,113.527,2,-179.638,0\H,11,1.084,9,123.791,8,179.544,0\C,11,1.37008,9,112.837,8,0.0981159,0\H,13,1.08132,11,128.481,9,179.587,0\C,7,1.45908,5,129.073,3,176.006,0\C,15,1.37815,7,128.837,5,-120,0\H,16,1.08424,15,122.488,7,-1.98551,0\C,16,1.42587,15,113.429,7,176.882,0\H,18,1.08407,16,123.84,15,-179.776,0\C,18,1.37083,16,112.795,15,-0.564534,0\H,20,1.08157,18,128.263,16,-179.415,0\S,20,1.733,18,111.644,16,0.575521,0\S,13,1.7348,11,111.635,9,-0.596176,0\\\@

 Total job time:  116.80s(wall), 123.70s(cpu) 
 Tue May 30 10:54:37 2017

        *************************************************************
        *                                                           *
        *  Thank you very much for using Q-Chem.  Have a nice day.  *
        *                                                           *
        *************************************************************


0 sent ACK to 0 
now end server 0 ... 
