srun -N 1 --ntasks-per-node 22 --cpus-per-task 2 --cpu_bind=cores --nodelist nid00482 /global/project/projectdirs/jcesr/qchem/qc44/cnl_qc441/dist/exe/qcprog.cori.haswell.exe .pt_nn_neutral_140.0.in.37774.qcin.1 /dev/shm/eg_qchem/qchem37774/
Process 2 of 22 is on nid00482 - thread support 0
Process 4 of 22 is on nid00482 - thread support 0
Process 5 of 22 is on nid00482 - thread support 0
Process 6 of 22 is on nid00482 - thread support 0
Process 0 of 22 is on nid00482 - thread support 0
Process 1 of 22 is on nid00482 - thread support 0
Process 3 of 22 is on nid00482 - thread support 0
Process 21 of 22 is on nid00482 - thread support 0
initial socket setup ...start
initial socket setup ...done 
now start server 0 ... 
nid00482 10.128.1
Q-Chem Developer Version! Running on 10.128.1.*
                  Welcome to Q-Chem
     A Quantum Leap Into The Future Of Chemistry


 Q-Chem 4.4, Q-Chem, Inc., Pleasanton, CA (2016)

 Y. Shao,  Z. Gan,  E. Epifanovsky,  A. T. B. Gilbert,  M. Wormit,  
 J. Kussmann,  A. W. Lange,  A. Behn,  J. Deng,  X. Feng,  D. Ghosh,  
 M. Goldey,  P. R. Horn,  L. D. Jacobson,  I. Kaliman,  F. Rob,  
 R. Z. Khaliullin,  T. Kus,  A. Landau,  J. Liu,  E. I. Proynov,  Y. M. Rhee,  
 R. M. Richard,  M. A. Rohrdanz,  R. P. Steele,  E. J. Sundstrom,  
 H. L. Woodcock III,  P. M. Zimmerman,  D. Zuev,  B. Albrecht,  E. Alguire,  
 B. Austin,  S. A. Baeppler,  G. J. O. Beran,  Y. A. Bernard,  
 E. J. Berquist,  K. Brandhorst,  K. B. Bravaya,  S. T. Brown,  D. Casanova,  
 C.-M. Chang,  Y. Chen,  S. H. Chien,  K. D. Closser,  M. P. Coons,  
 D. L. Crittenden,  S. Dasgupta,  M. Diedenhofen,  R. A. DiStasio Jr.,  
 H. Do,  A. D. Dutoi,  R. G. Edgar,  P.-T. Fang,  S. Fatehi,  Q. Feng,  
 L. Fusti-Molnar,  A. Ghysels,  A. Golubeva-Zadorozhnaya,  J. Gomes,  
 A. Gunina,  M. W. D. Hanson-Heine,  P. H. P. Harbach,  A. W. Hauser,  
 J. E. Herr,  E. G. Hohenstein,  Z. C. Holden,  K. Hui,  T.-C. Jagau,  H. Ji,  
 B. Kaduk,  K. Khistyaev,  Jaehoon Kim,  Jihan Kim,  R. A. King,  
 P. Klunzinger,  K. Koh,  D. Kosenkov,  T. Kowalczyk,  C. M. Krauter,  
 A. Kunitsa,  K. U. Lao,  A. Laurent,  K. V. Lawler,  J. Lee,  D. Lefrancois,  
 S. Lehtola,  S. V. Levchenko,  C. Y. Lin,  Y.-S. Lin,  F. Liu,  E. Livshits,  
 R. C. Lochan,  A. Luenser,  P. Manohar,  S. F. Manzer,  S.-P. Mao,  Y. Mao,  
 N. Mardirossian,  A. V. Marenich,  L. A. Martinez-Martinez,  S. A. Maurer,  
 N. J. Mayhall,  J.-M. Mewes,  A. F. Morrison,  K. Nanda,  T. S. Nguyen-Beck,  
 C. M. Oana,  R. Olivares-Amaya,  D. P. O'Neill,  J. A. Parkhill,  
 T. M. Perrine,  R. Peverati,  P. A. Pieniazek,  F. Plasser,  A. Prociuk,  
 D. R. Rehn,  E. Rosta,  N. J. Russ,  N. Sergueev,  S. M. Sharada,  
 S. Sharma,  D. W. Small,  A. Sodt,  T. Stauch,  T. Stein,  D. Stuck,  
 Y.-C. Su,  A. J. W. Thom,  T. Tsuchimochi,  L. Vogt,  O. Vydrov,  T. Wang,  
 M. A. Watson,  J. Wenzel,  A. White,  C. F. Williams,  V. Vanovschi,  
 K. Yao,  S. Yeganeh,  S. R. Yost,  Z.-Q. You,  I. Y. Zhang,  X. Zhang,  
 Y. Zhao,  B. R. Brooks,  G. K. L. Chan,  D. M. Chipman,  C. J. Cramer,  
 W. A. Goddard III,  M. S. Gordon,  W. J. Hehre,  A. Klamt,  
 H. F. Schaefer III,  M. W. Schmidt,  C. D. Sherrill,  D. G. Truhlar,  
 A. Warshel,  X. Xu,  A. Aspuru-Guzik,  R. Baer,  A. T. Bell,  N. A. Besley,  
 J.-D. Chai,  A. Dreuw,  B. D. Dunietz,  T. R. Furlani,  S. R. Gwaltney,  
 C.-P. Hsu,  Y. Jung,  J. Kong,  D. S. Lambrecht,  W. Liang,  C. Ochsenfeld,  
 V. A. Rassolov,  L. V. Slipchenko,  J. E. Subotnik,  T. Van Voorhis,  
 J. M. Herbert,  A. I. Krylov,  P. M. W. Gill,  M. Head-Gordon

 Contributors to earlier versions of Q-Chem not listed above: 
 R. D. Adamson,  J. Baker,  E. F. C. Byrd,  A. K. Chakraborty,  C.-L. Cheng,  
 H. Dachsel,  R. J. Doerksen,  G. Hawkins,  A. Heyden,  S. Hirata,  
 G. Kedziora,  F. J. Keil,  C. Kelley,  P. P. Korambath,  W. Kurlancheek,  
 A. M. Lee,  M. S. Lee,  D. Liotard,  I. Lotan,  P. E. Maslen,  N. Nair,  
 D. Neuhauser,  R. Olson,  B. Peters,  J. Ritchie,  N. E. Schultz,  
 N. Shenvi,  A. C. Simmonett,  K. S. Thanthiriwatte,  Q. Wu,  W. Zhang

 Please cite Q-Chem as follows:
 Y. Shao et al., Mol. Phys. 113, 184-215 (2015)
 DOI: 10.1080/00268976.2014.952696

 Q-Chem 4.4.2 for Intel X86 EM64T Linux

 Parts of Q-Chem use Armadillo 5.200.1 (Boston Tea Smuggler).
 http://arma.sourceforge.net/

 Q-Chem begins on Tue May 30 10:52:45 2017  

Host: nid00478
0

     Scratch files written to /dev/shm/eg_qchem/qchem37774.0//
 Parallel job on  22  processors

Checking the input file for inconsistencies... 	...done.

--------------------------------------------------------------
User input:
--------------------------------------------------------------
$molecule
 0  1
 H           6.23254100       -0.22338900        0.17638100
 H           5.29752400        2.22850500       -0.10953100
 C           5.19733500        0.07486000        0.08356300
 C           4.68347900        1.33634400       -0.06443600
 S           3.94559900       -1.12581000        0.11905200
 C           3.26267300        1.34659400       -0.16511200
 H           2.67740100        2.24810800       -0.30841700
 C           2.69562400        0.08941900       -0.09094600
 H           1.33241900       -2.39005500       -0.68762600
 C           1.29739300       -0.28590200       -0.16150800
 C           0.73808300       -1.51455700       -0.45078400
 S           0.03601800        0.89451200        0.14982500
 C          -0.68041100       -1.51067300       -0.44936800
 H          -1.28012400       -2.38277100       -0.68510300
 C          -1.23220500       -0.27900200       -0.15852500
 C          -2.62830100        0.10383400       -0.08465000
 H          -2.72158994        1.44489452        1.61838895
 C          -3.25335060        0.94010927        0.81949319
 S          -3.79418405       -0.51187082       -1.24428143
 C          -4.64907842        1.09435779        0.58040114
 C          -5.08541179        0.37911688       -0.50372848
 H          -5.29880544        1.71803830        1.18365825
 H          -6.08499326        0.31847684       -0.91162175
$end


$rem
         jobtype = opt
        exchange = b3lyp
           basis = 6-31++g**
  max_scf_cycles = 150
      mem_static = 281
       mem_total = 2818
      sym_ignore = true
        symmetry = false
          thresh = 12
$end


$opt
CONSTRAINT
tors 13 15 16 18 140.0
ENDCONSTRAINT
$end

--------------------------------------------------------------
 ----------------------------------------------------------------
             Standard Nuclear Orientation (Angstroms)
    I     Atom           X                Y                Z
 ----------------------------------------------------------------
    1      H       6.2325410000    -0.2233890000     0.1763810000
    2      H       5.2975240000     2.2285050000    -0.1095310000
    3      C       5.1973350000     0.0748600000     0.0835630000
    4      C       4.6834790000     1.3363440000    -0.0644360000
    5      S       3.9455990000    -1.1258100000     0.1190520000
    6      C       3.2626730000     1.3465940000    -0.1651120000
    7      H       2.6774010000     2.2481080000    -0.3084170000
    8      C       2.6956240000     0.0894190000    -0.0909460000
    9      H       1.3324190000    -2.3900550000    -0.6876260000
   10      C       1.2973930000    -0.2859020000    -0.1615080000
   11      C       0.7380830000    -1.5145570000    -0.4507840000
   12      S       0.0360180000     0.8945120000     0.1498250000
   13      C      -0.6804110000    -1.5106730000    -0.4493680000
   14      H      -1.2801240000    -2.3827710000    -0.6851030000
   15      C      -1.2322050000    -0.2790020000    -0.1585250000
   16      C      -2.6283010000     0.1038340000    -0.0846500000
   17      H      -2.7215899400     1.4448945200     1.6183889500
   18      C      -3.2533506000     0.9401092700     0.8194931900
   19      S      -3.7941840500    -0.5118708200    -1.2442814300
   20      C      -4.6490784200     1.0943577900     0.5804011400
   21      C      -5.0854117900     0.3791168800    -0.5037284800
   22      H      -5.2988054400     1.7180383000     1.1836582500
   23      H      -6.0849932600     0.3184768400    -0.9116217500
 ----------------------------------------------------------------
 Nuclear Repulsion Energy =  1172.8602970115 hartrees
 There are       64 alpha and       64 beta electrons
 Requested basis set is 6-31++G(d,p)
 There are 110 shells and 345 basis functions

 Total QAlloc Memory Limit   2818 MB
 Mega-Array Size       275 MB
 MEM_STATIC part       281 MB
 A cutoff of  1.0D-12 yielded   4681 shell pairs
 There are     47606 function pairs

 Q-Chem warning in module /project/projectdirs/jcesr/qchem/qc44/cnl_qc441/compile/cori/qc_src/libqints/qchem/aobasis.C, line 68:

 Using reconstructed effective core potential

 
 -------------------------------------------------------
 OpenMP Integral Computing Module                       
 Release: version 1.0, May 2013, Q-Chem Inc. Pittsburgh 
 -------------------------------------------------------
 Integral Job Info:
 Integral job number is                      11
 Integral operator is                         1
 short-range coefficients                     0
 long-range coefficients              100000000
 Omega coefficients                           0
 if combine SR and LR in K                    0
 Integral screening is                        0
 Integral computing path is                   2
 max size of driver memory is            800000
 size of driver memory is                593474
 size of scratch memory is             15166112
 max col of scratch BK array               1296
 max len of scratch array in speh3          155
 max len of scratch index in speh4           18
 max int batch size is                      520
 min int batch size is                       52
 fixed nKL is                                52
 max L of basis functions is                  2
 order of int derivative is                   0
 number of shells is                        110
 number of basis is                         345
 number of cartesian basis is               345
 number of contracted shell pairs          4681
 number of primitive shell pairs          14637
 maxK2 (contraction) of shell pair           36
 max number of K2 of shell pair               1
 max number of CS2 of shell pair            517
 max number of PS2 of shell pair           3042
 mem total for path MDJ                  101082
 -------------------------------------------------------
 Smallest overlap matrix eigenvalue = 7.53E-08
 Linear dependence detected in AO basis
 Number of orthogonalized atomic orbitals = 343
 Maximum deviation from orthogonality = 3.942E-10

 Scale SEOQF with 1.000000e-02/1.000000e-01/1.000000e-01

 Standard Electronic Orientation quadrupole field applied
 Nucleus-field energy     =     0.0000000098 hartrees
 Guess from superposition of atomic densities
 Warning:  Energy on first SCF cycle will be non-variational
 A restricted hybrid HF-DFT SCF calculation will be
 performed using Pulay DIIS extrapolation
 Exchange:     0.2000 Hartree-Fock + 0.0800 Slater + 0.7200 B88
 Correlation:  0.1900 VWN1RPA + 0.8100 LYP
 Using SG-1 standard quadrature grid
 SCF converges when DIIS error is below 1.0E-08
 ---------------------------------------
  Cycle       Energy         DIIS Error
 ---------------------------------------
    1   -1660.2900659354      3.68E-02
    2   -1656.4156978723      3.85E-03
    3   -1656.0831712315      5.79E-03
    4   -1656.6444864596      1.06E-03
    5   -1656.6578766866      5.82E-04
    6   -1656.6629470572      1.70E-04
    7   -1656.6633767988      6.82E-05
    8   -1656.6634464303      1.32E-05
    9   -1656.6634488619      5.00E-06
   10   -1656.6634492439      1.90E-06
   11   -1656.6634493082      3.61E-07
   12   -1656.6634493089      2.56E-07
   13   -1656.6634493110      6.70E-08
   14   -1656.6634493112      2.01E-08
   15   -1656.6634493090      5.25E-09 Convergence criterion met
 ---------------------------------------
 SCF time:  CPU 16.29 s  wall 15.01 s
 SCF   energy in the final basis set = -1656.6634493090
 Total energy in the final basis set = -1656.6634493090
 
 --------------------------------------------------------------
 
                    Orbital Energies (a.u.)
 --------------------------------------------------------------
 
 Alpha MOs
 -- Occupied --
-88.921 -88.921 -88.921 -10.241 -10.240 -10.240 -10.239 -10.226
-10.226 -10.206 -10.206 -10.206 -10.205 -10.205 -10.205  -7.981
 -7.981  -7.981  -5.945  -5.945  -5.945  -5.941  -5.941  -5.941
 -5.938  -5.938  -5.937  -0.907  -0.892  -0.876  -0.787  -0.756
 -0.745  -0.745  -0.732  -0.697  -0.617  -0.596  -0.570  -0.561
 -0.536  -0.535  -0.529  -0.501  -0.462  -0.422  -0.421  -0.417
 -0.416  -0.408  -0.402  -0.400  -0.385  -0.377  -0.370  -0.360
 -0.350  -0.345  -0.292  -0.266  -0.263  -0.261  -0.247  -0.204
 -- Virtual --
 -0.068  -0.033  -0.007  -0.006  -0.002   0.003   0.006   0.009
  0.012   0.017   0.024   0.027   0.030   0.032   0.041   0.042
  0.047   0.049   0.052   0.055   0.058   0.061   0.070   0.077
  0.086   0.086   0.088   0.094   0.102   0.105   0.107   0.109
  0.113   0.116   0.120   0.122   0.126   0.128   0.131   0.133
  0.133   0.142   0.144   0.146   0.148   0.152   0.153   0.157
  0.161   0.163   0.171   0.172   0.177   0.182   0.185   0.189
  0.195   0.197   0.203   0.212   0.213   0.218   0.221   0.222
  0.225   0.230   0.233   0.245   0.252   0.255   0.260   0.264
  0.269   0.271   0.275   0.277   0.282   0.289   0.291   0.299
  0.315   0.321   0.328   0.333   0.341   0.351   0.355   0.362
  0.367   0.376   0.383   0.395   0.399   0.453   0.454   0.460
  0.497   0.509   0.521   0.532   0.536   0.558   0.572   0.577
  0.582   0.598   0.613   0.627   0.629   0.647   0.656   0.657
  0.661   0.667   0.673   0.688   0.696   0.705   0.714   0.719
  0.723   0.727   0.734   0.744   0.755   0.765   0.777   0.787
  0.790   0.810   0.819   0.826   0.832   0.837   0.847   0.869
  0.893   0.931   0.934   0.937   0.954   0.957   0.959   0.963
  0.967   0.973   0.981   0.985   0.993   0.997   1.011   1.027
  1.037   1.046   1.050   1.066   1.076   1.091   1.104   1.107
  1.110   1.118   1.151   1.163   1.169   1.184   1.196   1.221
  1.256   1.260   1.266   1.292   1.306   1.331   1.345   1.350
  1.351   1.362   1.363   1.379   1.444   1.457   1.485   1.492
  1.515   1.530   1.540   1.567   1.611   1.682   1.692   1.716
  1.754   1.797   1.838   1.853   1.870   1.885   1.891   1.907
  1.918   1.923   1.945   1.961   1.982   2.007   2.031   2.065
  2.070   2.085   2.095   2.112   2.148   2.176   2.179   2.197
  2.201   2.225   2.239   2.259   2.283   2.293   2.331   2.363
  2.366   2.420   2.435   2.444   2.454   2.460   2.471   2.482
  2.501   2.521   2.531   2.535   2.548   2.580   2.590   2.601
  2.625   2.666   2.681   2.703   2.710   2.729   2.817   2.862
  2.877   2.898   2.920   2.936   2.946   3.132   3.176   3.215
  3.271   3.272   3.326   3.414   3.415   3.673   3.730   3.737
  3.972   3.979   3.982   4.255   4.269   4.306   4.320   4.327
  4.354   4.394   4.481   4.547   4.646   4.695   4.726
 --------------------------------------------------------------
 
          Ground-State Mulliken Net Atomic Charges

     Atom                 Charge (a.u.)
  ----------------------------------------
      1 H                     0.196410
      2 H                     0.119355
      3 C                     0.034666
      4 C                    -0.373008
      5 S                    -0.117706
      6 C                     0.551372
      7 H                     0.128311
      8 C                    -0.482830
      9 H                     0.119290
     10 C                    -0.032765
     11 C                    -0.165947
     12 S                    -0.170425
     13 C                     0.116601
     14 H                     0.128381
     15 C                    -0.096939
     16 C                    -0.506052
     17 H                     0.138623
     18 C                     0.442006
     19 S                    -0.045353
     20 C                    -0.344651
     21 C                     0.047567
     22 H                     0.118091
     23 H                     0.195002
  ----------------------------------------
  Sum of atomic charges =     0.000000

 -----------------------------------------------------------------
                    Cartesian Multipole Moments
 -----------------------------------------------------------------
    Charge (ESU x 10^10)
                 0.0000
    Dipole Moment (Debye)
         X      -0.0216      Y       0.3964      Z       0.1567
       Tot       0.4268
    Quadrupole Moments (Debye-Ang)
        XX     -90.4490     XY      -0.3036     YY    -103.9023
        XZ      -0.1020     YZ       3.3340     ZZ    -113.1148
    Octopole Moments (Debye-Ang^2)
       XXX      -8.0582    XXY      21.4490    XYY       7.9914
       YYY      -7.0790    XXZ      13.1823    XYZ     -12.0337
       YYZ      15.2458    XZZ     -19.3406    YZZ      -0.4313
       ZZZ      51.7179
    Hexadecapole Moments (Debye-Ang^3)
      XXXX   -6337.7976   XXXY      15.8623   XXYY   -1318.5219
      XYYY     113.6479   YYYY    -728.2259   XXXZ     -39.8078
      XXYZ      11.5233   XYYZ     -67.7497   YYYZ     -61.8100
      XXZZ   -1342.6099   XYZZ      13.0045   YYZZ    -187.4791
      XZZZ    -142.9153   YZZZ     -70.4951   ZZZZ    -355.4115
 -----------------------------------------------------------------
 Calculating analytic gradient of the SCF energy
 Gradient of SCF Energy
            1           2           3           4           5           6
    1  -0.0000280   0.0000063   0.0000633  -0.0000931  -0.0001385   0.0002058
    2  -0.0000127  -0.0000042   0.0000872  -0.0000007  -0.0001334   0.0003214
    3   0.0000780   0.0000015  -0.0000013  -0.0000913  -0.0000317   0.0000996
            7           8           9          10          11          12
    1   0.0000070  -0.0007587  -0.0000398   0.0007926  -0.0006649   0.0000807
    2  -0.0000142  -0.0000055   0.0000586  -0.0001499  -0.0005216   0.0000297
    3   0.0000034  -0.0007165  -0.0001301  -0.0018380   0.0016146   0.0012072
           13          14          15          16          17          18
    1   0.0008690   0.0004094  -0.0032531   0.0039396  -0.0001915  -0.0013586
    2  -0.0013811   0.0000899   0.0024807   0.0001072   0.0013822  -0.0023534
    3   0.0032217  -0.0014330  -0.0017729  -0.0023851  -0.0007547   0.0025543
           19          20          21          22          23
    1  -0.0002579  -0.0000546   0.0000555   0.0000784   0.0003311
    2  -0.0010942  -0.0013591   0.0019090   0.0000637   0.0005003
    3   0.0004052   0.0009933  -0.0004468  -0.0001200  -0.0004574
 Max gradient component =       3.940E-03
 RMS gradient           =       1.153E-03
 Gradient time:  CPU 4.62 s  wall 4.63 s
 Geometry Optimization Parameters
   NAtoms,    NIC,     NZ,  NCons,   NDum,   NFix, NCnnct, MaxDiis
       23     166       0       1       0       0       0       0


** CONSTRAINED OPTIMIZATION IN DELOCALIZED INTERNAL COORDINATES **
   Searching for a Minimum

   Optimization Cycle:   1

                       Coordinates (Angstroms)
     ATOM                X               Y               Z
      1  H         6.2325410000   -0.2233890000    0.1763810000
      2  H         5.2975240000    2.2285050000   -0.1095310000
      3  C         5.1973350000    0.0748600000    0.0835630000
      4  C         4.6834790000    1.3363440000   -0.0644360000
      5  S         3.9455990000   -1.1258100000    0.1190520000
      6  C         3.2626730000    1.3465940000   -0.1651120000
      7  H         2.6774010000    2.2481080000   -0.3084170000
      8  C         2.6956240000    0.0894190000   -0.0909460000
      9  H         1.3324190000   -2.3900550000   -0.6876260000
     10  C         1.2973930000   -0.2859020000   -0.1615080000
     11  C         0.7380830000   -1.5145570000   -0.4507840000
     12  S         0.0360180000    0.8945120000    0.1498250000
     13  C        -0.6804110000   -1.5106730000   -0.4493680000
     14  H        -1.2801240000   -2.3827710000   -0.6851030000
     15  C        -1.2322050000   -0.2790020000   -0.1585250000
     16  C        -2.6283010000    0.1038340000   -0.0846500000
     17  H        -2.7215899400    1.4448945200    1.6183889500
     18  C        -3.2533506000    0.9401092700    0.8194931900
     19  S        -3.7941840500   -0.5118708200   -1.2442814300
     20  C        -4.6490784200    1.0943577900    0.5804011400
     21  C        -5.0854117900    0.3791168800   -0.5037284800
     22  H        -5.2988054400    1.7180383000    1.1836582500
     23  H        -6.0849932600    0.3184768400   -0.9116217500
   Point Group: c1    Number of degrees of freedom:    63


   Energy is  -1656.663449309

              Constraints and their Current Values
                                        Value     Constraint
   Dihedral:       13  15  16  18      140.000      140.000

 Attempting to Generate Delocalized Internal Coordinates

 62 Hessian modes will be used to form the next step
  Hessian Eigenvalues:
     0.045000    0.045000    0.045000    0.045000    0.045000    0.045000
     0.045000    0.045000    0.045000    0.045001    0.045002    0.045002
     0.045003    0.045003    0.045009    0.045010    0.045011    0.045018
     0.045019    0.159886    0.159939    0.159955    0.159957    0.159992
     0.159993    0.160000    0.160000    0.221281    0.221281    0.226855
     0.237826    0.237826    0.245311    0.249998    0.249998    0.250000
     0.250000    0.293636    0.293684    0.294746    0.294936    0.312571
     0.312615    0.354732    0.354740    0.354742    0.354756    0.355161
     0.355164    0.358372    0.358373    0.383080    0.383176    0.405793
     0.405832    0.413732    0.458107    0.461989    0.461995    0.485493
     0.497291    0.497294

 Minimum Search - Taking Simple RFO Step
 Searching for Lamda that Minimizes Along All modes
 Value Taken    Lamda =  -0.00044148
 Step Taken.  Stepsize is  0.094590

                             Maximum     Tolerance    Cnvgd?
         Gradient           0.001799      0.000300      NO
         Displacement       0.040481      0.001200      NO
         Energy change     *********      0.000001      NO


 New Cartesian Coordinates Obtained by Inverse Iteration

 Displacement from previous Coordinates is:  0.339575
 ----------------------------------------------------------------
             Standard Nuclear Orientation (Angstroms)
    I     Atom           X                Y                Z
 ----------------------------------------------------------------
    1      H       6.2284115049    -0.2371218888     0.2269124956
    2      H       5.3102040082     2.2176785157    -0.0869553008
    3      C       5.1961563063     0.0657580235     0.1174374353
    4      C       4.6910341677     1.3288849614    -0.0455841706
    5      S       3.9377566284    -1.1279852292     0.1417199612
    6      C       3.2719282250     1.3455537998    -0.1685071910
    7      H       2.6936450585     2.2491149445    -0.3267020148
    8      C       2.6972824825     0.0921381259    -0.0952389575
    9      H       1.3302176566    -2.3829904417    -0.7016087617
   10      C       1.2973254663    -0.2758497125    -0.1864760638
   11      C       0.7364814777    -1.5030398867    -0.4799733073
   12      S       0.0370124670     0.9126841617     0.0933067592
   13      C      -0.6829871831    -1.4975838295    -0.4793405841
   14      H      -1.2868887392    -2.3725802066    -0.6924706066
   15      C      -1.2320137929    -0.2648038031    -0.1943150130
   16      C      -2.6310752866     0.1178644644    -0.1046756596
   17      H      -2.6990190953     1.4707972489     1.5862880739
   18      C      -3.2434403461     0.9621760585     0.7984160451
   19      S      -3.8123539508    -0.5201187605    -1.2357352336
   20      C      -4.6468132987     1.0953398014     0.5894803330
   21      C      -5.1012204245     0.3474465876    -0.4653967096
   22      H      -5.2918967646     1.7135653737     1.2034464837
   23      H      -6.1121120674     0.2562114716    -0.8389031430
 ----------------------------------------------------------------
 Nuclear Repulsion Energy =  1172.5741738771 hartrees
 There are       64 alpha and       64 beta electrons
 Applying Cartesian multipole field
    Component          Value
    ---------          -----
     (2,0,0)        1.00000E-12
     (0,2,0)        2.00000E-11
     (0,0,2)       -3.00000E-11
 Nucleus-field energy     =     0.0000000098 hartrees
 Requested basis set is 6-31++G(d,p)
 There are 110 shells and 345 basis functions
 A cutoff of  1.0D-12 yielded   4681 shell pairs
 There are     47606 function pairs

 Q-Chem warning in module /project/projectdirs/jcesr/qchem/qc44/cnl_qc441/compile/cori/qc_src/libqints/qchem/aobasis.C, line 68:

 Using reconstructed effective core potential

 Smallest overlap matrix eigenvalue = 7.69E-08
 Linear dependence detected in AO basis
 Number of orthogonalized atomic orbitals = 343
 Maximum deviation from orthogonality = 1.493E-10
 Guess MOs from SCF MO coefficient file
 Reading MOs from coefficient file
 Reading MOs from coefficient file
 A restricted hybrid HF-DFT SCF calculation will be
 performed using Pulay DIIS extrapolation
 Exchange:     0.2000 Hartree-Fock + 0.0800 Slater + 0.7200 B88
 Correlation:  0.1900 VWN1RPA + 0.8100 LYP
 Using SG-1 standard quadrature grid
 SCF converges when DIIS error is below 1.0E-08
 Geometry optimization detected.  Setting ReadMinima to 0
 Setting SaveMinima to 0
 ---------------------------------------
  Cycle       Energy         DIIS Error
 ---------------------------------------
    1   -1656.6643476400      7.86E-04
    2   -1656.6635395432      1.01E-04
    3   -1656.6629358485      2.20E-04
    4   -1656.6637257263      2.44E-05
    5   -1656.6637328280      1.25E-05
    6   -1656.6637352261      3.61E-06
    7   -1656.6637354228      1.24E-06
    8   -1656.6637354447      4.34E-07
    9   -1656.6637354482      1.28E-07
   10   -1656.6637354497      4.62E-08
   11   -1656.6637354493      1.54E-08
   12   -1656.6637354507      6.30E-09 Convergence criterion met
 ---------------------------------------
 SCF time:  CPU 13.32 s  wall 12.26 s
 SCF   energy in the final basis set = -1656.6637354507
 Total energy in the final basis set = -1656.6637354507
 
 --------------------------------------------------------------
 
                    Orbital Energies (a.u.)
 --------------------------------------------------------------
 
 Alpha MOs
 -- Occupied --
-88.921 -88.921 -88.921 -10.241 -10.240 -10.240 -10.239 -10.226
-10.226 -10.206 -10.206 -10.206 -10.206 -10.205 -10.205  -7.981
 -7.981  -7.981  -5.945  -5.945  -5.945  -5.941  -5.941  -5.941
 -5.938  -5.938  -5.937  -0.906  -0.892  -0.876  -0.787  -0.756
 -0.745  -0.745  -0.733  -0.697  -0.617  -0.596  -0.570  -0.561
 -0.536  -0.535  -0.529  -0.501  -0.462  -0.422  -0.421  -0.417
 -0.415  -0.408  -0.402  -0.400  -0.385  -0.377  -0.370  -0.360
 -0.350  -0.345  -0.292  -0.266  -0.263  -0.261  -0.248  -0.205
 -- Virtual --
 -0.068  -0.032  -0.007  -0.006  -0.001   0.004   0.007   0.009
  0.012   0.016   0.024   0.027   0.030   0.032   0.040   0.042
  0.046   0.049   0.052   0.055   0.059   0.062   0.070   0.077
  0.086   0.086   0.088   0.094   0.102   0.105   0.107   0.109
  0.113   0.116   0.120   0.122   0.126   0.127   0.131   0.132
  0.133   0.141   0.145   0.146   0.148   0.152   0.153   0.157
  0.161   0.163   0.170   0.172   0.176   0.183   0.184   0.189
  0.194   0.197   0.204   0.213   0.213   0.218   0.221   0.222
  0.225   0.230   0.233   0.245   0.251   0.254   0.260   0.264
  0.269   0.271   0.275   0.276   0.282   0.289   0.292   0.299
  0.314   0.321   0.327   0.333   0.342   0.351   0.355   0.361
  0.367   0.375   0.382   0.395   0.399   0.453   0.455   0.461
  0.497   0.509   0.521   0.533   0.536   0.557   0.572   0.577
  0.582   0.598   0.613   0.626   0.628   0.647   0.656   0.657
  0.661   0.666   0.674   0.688   0.696   0.705   0.715   0.719
  0.723   0.727   0.733   0.744   0.755   0.766   0.777   0.787
  0.790   0.810   0.820   0.826   0.832   0.838   0.848   0.869
  0.892   0.931   0.935   0.938   0.954   0.958   0.960   0.963
  0.967   0.972   0.981   0.985   0.994   0.997   1.010   1.027
  1.037   1.046   1.050   1.066   1.076   1.092   1.104   1.107
  1.109   1.118   1.151   1.163   1.169   1.184   1.199   1.219
  1.256   1.259   1.265   1.293   1.311   1.330   1.344   1.348
  1.354   1.360   1.364   1.378   1.445   1.456   1.485   1.493
  1.514   1.531   1.539   1.567   1.610   1.681   1.692   1.716
  1.753   1.795   1.836   1.856   1.869   1.885   1.890   1.907
  1.917   1.923   1.945   1.960   1.981   2.006   2.029   2.065
  2.071   2.086   2.097   2.111   2.149   2.176   2.179   2.198
  2.201   2.225   2.237   2.259   2.283   2.292   2.330   2.363
  2.366   2.421   2.436   2.444   2.454   2.459   2.468   2.483
  2.501   2.522   2.531   2.536   2.546   2.580   2.590   2.602
  2.624   2.667   2.679   2.704   2.709   2.727   2.816   2.862
  2.876   2.897   2.920   2.936   2.945   3.131   3.176   3.214
  3.270   3.272   3.326   3.413   3.415   3.674   3.730   3.737
  3.972   3.978   3.982   4.255   4.268   4.305   4.320   4.327
  4.354   4.393   4.481   4.547   4.645   4.694   4.726
 --------------------------------------------------------------
 
          Ground-State Mulliken Net Atomic Charges

     Atom                 Charge (a.u.)
  ----------------------------------------
      1 H                     0.196324
      2 H                     0.119364
      3 C                     0.035446
      4 C                    -0.375422
      5 S                    -0.114496
      6 C                     0.538707
      7 H                     0.127522
      8 C                    -0.489444
      9 H                     0.118780
     10 C                    -0.023860
     11 C                    -0.175146
     12 S                    -0.177459
     13 C                     0.152925
     14 H                     0.130425
     15 C                    -0.122777
     16 C                    -0.495350
     17 H                     0.139382
     18 C                     0.453520
     19 S                    -0.046965
     20 C                    -0.350170
     21 C                     0.045829
     22 H                     0.118040
     23 H                     0.194827
  ----------------------------------------
  Sum of atomic charges =     0.000000

 -----------------------------------------------------------------
                    Cartesian Multipole Moments
 -----------------------------------------------------------------
    Charge (ESU x 10^10)
                 0.0000
    Dipole Moment (Debye)
         X      -0.0230      Y       0.3619      Z       0.2112
       Tot       0.4197
    Quadrupole Moments (Debye-Ang)
        XX     -90.3370     XY      -0.0666     YY    -103.9112
        XZ      -0.1885     YZ       3.2937     ZZ    -113.2250
    Octopole Moments (Debye-Ang^2)
       XXX      -8.6430    XXY      19.3180    XYY       8.4172
       YYY      -7.8524    XXZ      16.2919    XYZ     -12.4727
       YYZ      15.9880    XZZ     -18.3072    YZZ      -0.7821
       ZZZ      53.7211
    Hexadecapole Moments (Debye-Ang^3)
      XXXX   -6339.1030   XXXY      25.1647   XXYY   -1321.9109
      XYYY     111.0437   YYYY    -728.8944   XXXZ     -46.7023
      XXYZ      13.1187   XYYZ     -69.5398   YYYZ     -62.1319
      XXZZ   -1347.9269   XYZZ      12.4600   YYZZ    -187.1066
      XZZZ    -149.7789   YZZZ     -70.7391   ZZZZ    -354.0945
 -----------------------------------------------------------------
 Calculating analytic gradient of the SCF energy
 Gradient of SCF Energy
            1           2           3           4           5           6
    1   0.0000045   0.0000048   0.0000655  -0.0000492   0.0000792   0.0000673
    2  -0.0000086  -0.0000044   0.0000301  -0.0000459  -0.0000206   0.0001067
    3   0.0000084  -0.0000063  -0.0000357   0.0000345   0.0000463   0.0000270
            7           8           9          10          11          12
    1  -0.0000034  -0.0003090  -0.0000098   0.0004792  -0.0002634   0.0001211
    2  -0.0000276   0.0000763   0.0000080  -0.0000453  -0.0000730   0.0000447
    3  -0.0000273  -0.0001999  -0.0000387  -0.0004122   0.0002294  -0.0001245
           13          14          15          16          17          18
    1   0.0002159   0.0000723  -0.0007374   0.0008129   0.0000827  -0.0005877
    2  -0.0005824   0.0001268   0.0002626   0.0009587   0.0007952  -0.0022009
    3   0.0025802  -0.0008594  -0.0013180  -0.0005358  -0.0005132   0.0016564
           19          20          21          22          23
    1  -0.0000615   0.0001473  -0.0001827   0.0000155   0.0000360
    2   0.0003344  -0.0000357   0.0001689   0.0000525   0.0000791
    3  -0.0003480  -0.0000165   0.0000878  -0.0000235  -0.0002112
 Max gradient component =       2.580E-03
 RMS gradient           =       5.645E-04
 Gradient time:  CPU 4.74 s  wall 4.64 s
 Geometry Optimization Parameters
   NAtoms,    NIC,     NZ,  NCons,   NDum,   NFix, NCnnct, MaxDiis
       23     166       0       1       0       0       0       0

 Cartesian Hessian Update
 Hessian Updated using BFGS Update


** CONSTRAINED OPTIMIZATION IN DELOCALIZED INTERNAL COORDINATES **
   Searching for a Minimum

   Optimization Cycle:   2

                       Coordinates (Angstroms)
     ATOM                X               Y               Z
      1  H         6.2284115049   -0.2371218888    0.2269124956
      2  H         5.3102040082    2.2176785157   -0.0869553008
      3  C         5.1961563063    0.0657580235    0.1174374353
      4  C         4.6910341677    1.3288849614   -0.0455841706
      5  S         3.9377566284   -1.1279852292    0.1417199612
      6  C         3.2719282250    1.3455537998   -0.1685071910
      7  H         2.6936450585    2.2491149445   -0.3267020148
      8  C         2.6972824825    0.0921381259   -0.0952389575
      9  H         1.3302176566   -2.3829904417   -0.7016087617
     10  C         1.2973254663   -0.2758497125   -0.1864760638
     11  C         0.7364814777   -1.5030398867   -0.4799733073
     12  S         0.0370124670    0.9126841617    0.0933067592
     13  C        -0.6829871831   -1.4975838295   -0.4793405841
     14  H        -1.2868887392   -2.3725802066   -0.6924706066
     15  C        -1.2320137929   -0.2648038031   -0.1943150130
     16  C        -2.6310752866    0.1178644644   -0.1046756596
     17  H        -2.6990190953    1.4707972489    1.5862880739
     18  C        -3.2434403461    0.9621760585    0.7984160451
     19  S        -3.8123539508   -0.5201187605   -1.2357352336
     20  C        -4.6468132987    1.0953398014    0.5894803330
     21  C        -5.1012204245    0.3474465876   -0.4653967096
     22  H        -5.2918967646    1.7135653737    1.2034464837
     23  H        -6.1121120674    0.2562114716   -0.8389031430
   Point Group: c1    Number of degrees of freedom:    63


   Energy is  -1656.663735451

              Constraints and their Current Values
                                        Value     Constraint
   Dihedral:       13  15  16  18      140.000      140.000
 Hessian Updated using BFGS Update

 55 Hessian modes will be used to form the next step
  Hessian Eigenvalues:
     0.026960    0.045000    0.045000    0.045001    0.045001    0.045003
     0.045005    0.045009    0.045009    0.045015    0.045018    0.052791
     0.159466    0.159899    0.159944    0.159959    0.159992    0.159993
     0.159999    0.160223    0.221277    0.221457    0.226818    0.237559
     0.237926    0.245461    0.249718    0.249998    0.250000    0.250332
     0.293446    0.293703    0.294683    0.294863    0.312573    0.312658
     0.354731    0.354742    0.354745    0.354756    0.355164    0.355170
     0.358372    0.358424    0.383115    0.386686    0.405828    0.405954
     0.414145    0.458384    0.461940    0.463040    0.485284    0.497283
     0.497293

 Minimum Search - Taking Simple RFO Step
 Searching for Lamda that Minimizes Along All modes
 Value Taken    Lamda =  -0.00010919
 Step Taken.  Stepsize is  0.062419

                             Maximum     Tolerance    Cnvgd?
         Gradient           0.000760      0.000300      NO
         Displacement       0.026242      0.001200      NO
         Energy change     -0.000286      0.000001      NO


 New Cartesian Coordinates Obtained by Inverse Iteration

 Displacement from previous Coordinates is:  0.218653
 ----------------------------------------------------------------
             Standard Nuclear Orientation (Angstroms)
    I     Atom           X                Y                Z
 ----------------------------------------------------------------
    1      H       6.2225507882    -0.2477113953     0.2580231582
    2      H       5.3175121919     2.2100723476    -0.0705628870
    3      C       5.1926299500     0.0590224759     0.1379302289
    4      C       4.6944196791     1.3238467942    -0.0331664472
    5      S       3.9293498084    -1.1296277237     0.1527323696
    6      C       3.2766234918     1.3457656049    -0.1698492831
    7      H       2.7035236096     2.2513422484    -0.3354714525
    8      C       2.6964981751     0.0949201398    -0.0989147934
    9      H       1.3290843693    -2.3777009694    -0.7081595078
   10      C       1.2957714918    -0.2681002693    -0.2028633679
   11      C       0.7352415431    -1.4950446160    -0.4977772208
   12      S       0.0366384563     0.9248871108     0.0605526444
   13      C      -0.6844600428    -1.4884246388    -0.5004750065
   14      H      -1.2902076842    -2.3662584659    -0.6956470113
   15      C      -1.2317274255    -0.2542999742    -0.2201241375
   16      C      -2.6312403738     0.1274684650    -0.1203828030
   17      H      -2.6836617824     1.4874136732     1.5640888935
   18      C      -3.2352984543     0.9780273659     0.7818717007
   19      S      -3.8237920216    -0.5340649094    -1.2249561514
   20      C      -4.6434033880     1.0951304644     0.5952996905
   21      C      -5.1079304383     0.3284456256    -0.4416291259
   22      H      -5.2852573171     1.7094965403     1.2164775756
   23      H      -6.1252301266     0.2185338857    -0.7918721961
 ----------------------------------------------------------------
 Nuclear Repulsion Energy =  1172.6522165471 hartrees
 There are       64 alpha and       64 beta electrons
 Applying Cartesian multipole field
    Component          Value
    ---------          -----
     (2,0,0)        1.00000E-12
     (0,2,0)        2.00000E-11
     (0,0,2)       -3.00000E-11
 Nucleus-field energy     =     0.0000000099 hartrees
 Requested basis set is 6-31++G(d,p)
 There are 110 shells and 345 basis functions
 A cutoff of  1.0D-12 yielded   4682 shell pairs
 There are     47607 function pairs

 Q-Chem warning in module /project/projectdirs/jcesr/qchem/qc44/cnl_qc441/compile/cori/qc_src/libqints/qchem/aobasis.C, line 68:

 Using reconstructed effective core potential

 Smallest overlap matrix eigenvalue = 7.74E-08
 Linear dependence detected in AO basis
 Number of orthogonalized atomic orbitals = 343
 Maximum deviation from orthogonality = 7.391E-11
 Guess MOs from SCF MO coefficient file
 Reading MOs from coefficient file
 Reading MOs from coefficient file
 A restricted hybrid HF-DFT SCF calculation will be
 performed using Pulay DIIS extrapolation
 Exchange:     0.2000 Hartree-Fock + 0.0800 Slater + 0.7200 B88
 Correlation:  0.1900 VWN1RPA + 0.8100 LYP
 Using SG-1 standard quadrature grid
 SCF converges when DIIS error is below 1.0E-08
 Geometry optimization detected.  Setting ReadMinima to 0
 Setting SaveMinima to 0
 ---------------------------------------
  Cycle       Energy         DIIS Error
 ---------------------------------------
    1   -1656.6639908770      5.27E-04
    2   -1656.6637161743      6.70E-05
    3   -1656.6634686451      1.42E-04
    4   -1656.6637968493      1.73E-05
    5   -1656.6638005726      8.36E-06
    6   -1656.6638016357      2.42E-06
    7   -1656.6638017247      8.41E-07
    8   -1656.6638017340      2.72E-07
    9   -1656.6638017335      9.00E-08
   10   -1656.6638017355      2.97E-08
   11   -1656.6638017352      1.09E-08
   12   -1656.6638017344      4.19E-09 Convergence criterion met
 ---------------------------------------
 SCF time:  CPU 12.90 s  wall 12.08 s
 SCF   energy in the final basis set = -1656.6638017344
 Total energy in the final basis set = -1656.6638017344
 
 --------------------------------------------------------------
 
                    Orbital Energies (a.u.)
 --------------------------------------------------------------
 
 Alpha MOs
 -- Occupied --
-88.921 -88.921 -88.921 -10.241 -10.240 -10.240 -10.239 -10.226
-10.226 -10.206 -10.206 -10.206 -10.206 -10.205 -10.205  -7.981
 -7.981  -7.981  -5.945  -5.945  -5.945  -5.941  -5.941  -5.941
 -5.938  -5.938  -5.937  -0.907  -0.892  -0.876  -0.787  -0.756
 -0.745  -0.745  -0.733  -0.697  -0.617  -0.596  -0.570  -0.561
 -0.536  -0.535  -0.529  -0.501  -0.462  -0.422  -0.421  -0.417
 -0.415  -0.408  -0.402  -0.400  -0.385  -0.377  -0.370  -0.360
 -0.350  -0.345  -0.292  -0.266  -0.263  -0.261  -0.248  -0.205
 -- Virtual --
 -0.068  -0.032  -0.007  -0.006  -0.001   0.004   0.007   0.009
  0.012   0.016   0.024   0.027   0.030   0.032   0.040   0.042
  0.046   0.049   0.052   0.055   0.059   0.062   0.070   0.077
  0.086   0.087   0.088   0.094   0.102   0.105   0.108   0.109
  0.113   0.116   0.120   0.122   0.126   0.127   0.131   0.132
  0.133   0.141   0.145   0.146   0.148   0.151   0.154   0.157
  0.162   0.163   0.170   0.172   0.177   0.183   0.184   0.189
  0.194   0.197   0.204   0.213   0.213   0.218   0.220   0.222
  0.225   0.230   0.232   0.245   0.251   0.254   0.260   0.263
  0.269   0.271   0.275   0.276   0.281   0.288   0.292   0.299
  0.314   0.320   0.327   0.332   0.342   0.351   0.356   0.361
  0.367   0.375   0.382   0.395   0.399   0.453   0.456   0.462
  0.497   0.509   0.521   0.533   0.536   0.557   0.571   0.577
  0.581   0.597   0.614   0.625   0.627   0.647   0.656   0.657
  0.661   0.666   0.674   0.688   0.696   0.705   0.715   0.719
  0.723   0.727   0.733   0.744   0.755   0.767   0.778   0.788
  0.791   0.810   0.820   0.826   0.832   0.838   0.848   0.868
  0.892   0.931   0.935   0.938   0.954   0.959   0.960   0.963
  0.968   0.971   0.981   0.985   0.994   0.997   1.010   1.027
  1.037   1.047   1.051   1.066   1.076   1.092   1.104   1.107
  1.108   1.118   1.151   1.163   1.170   1.184   1.201   1.218
  1.255   1.258   1.265   1.293   1.313   1.328   1.344   1.348
  1.354   1.360   1.364   1.379   1.447   1.455   1.485   1.493
  1.513   1.533   1.538   1.567   1.609   1.681   1.692   1.716
  1.752   1.794   1.836   1.857   1.869   1.886   1.890   1.907
  1.917   1.923   1.945   1.960   1.981   2.006   2.029   2.065
  2.071   2.087   2.098   2.110   2.149   2.176   2.179   2.198
  2.201   2.225   2.237   2.260   2.282   2.291   2.329   2.364
  2.366   2.421   2.437   2.444   2.454   2.459   2.466   2.483
  2.501   2.523   2.531   2.537   2.545   2.580   2.590   2.603
  2.624   2.668   2.679   2.705   2.709   2.727   2.815   2.861
  2.876   2.897   2.920   2.936   2.945   3.131   3.176   3.214
  3.270   3.272   3.326   3.413   3.415   3.674   3.730   3.737
  3.972   3.978   3.982   4.255   4.268   4.306   4.320   4.327
  4.354   4.393   4.481   4.547   4.645   4.694   4.726
 --------------------------------------------------------------
 
          Ground-State Mulliken Net Atomic Charges

     Atom                 Charge (a.u.)
  ----------------------------------------
      1 H                     0.196265
      2 H                     0.119361
      3 C                     0.035545
      4 C                    -0.375217
      5 S                    -0.113643
      6 C                     0.531934
      7 H                     0.127118
      8 C                    -0.491086
      9 H                     0.118219
     10 C                    -0.020547
     11 C                    -0.181235
     12 S                    -0.182514
     13 C                     0.176045
     14 H                     0.131659
     15 C                    -0.140648
     16 C                    -0.486875
     17 H                     0.139706
     18 C                     0.463064
     19 S                    -0.049658
     20 C                    -0.355654
     21 C                     0.045616
     22 H                     0.117992
     23 H                     0.194551
  ----------------------------------------
  Sum of atomic charges =     0.000000

 -----------------------------------------------------------------
                    Cartesian Multipole Moments
 -----------------------------------------------------------------
    Charge (ESU x 10^10)
                 0.0000
    Dipole Moment (Debye)
         X      -0.0276      Y       0.3325      Z       0.2607
       Tot       0.4234
    Quadrupole Moments (Debye-Ang)
        XX     -90.3131     XY       0.1023     YY    -103.8961
        XZ      -0.2694     YZ       3.2725     ZZ    -113.3021
    Octopole Moments (Debye-Ang^2)
       XXX      -8.9005    XXY      17.8969    XYY       8.7130
       YYY      -8.2223    XXZ      18.4588    XYZ     -12.7122
       YYZ      16.4732    XZZ     -17.5845    YZZ      -0.9175
       ZZZ      55.0688
    Hexadecapole Moments (Debye-Ang^3)
      XXXX   -6336.9971   XXXY      30.1598   XXYY   -1322.6944
      XYYY     108.3303   YYYY    -730.1758   XXXZ     -51.2583
      XXYZ      14.0701   XYYZ     -70.1271   YYYZ     -62.7222
      XXZZ   -1349.9672   XYZZ      11.6532   YYZZ    -186.9246
      XZZZ    -153.4005   YZZZ     -71.3694   ZZZZ    -352.8187
 -----------------------------------------------------------------
 Calculating analytic gradient of the SCF energy
 Gradient of SCF Energy
            1           2           3           4           5           6
    1  -0.0000036  -0.0000018  -0.0000548  -0.0000276   0.0000406   0.0000193
    2  -0.0000041   0.0000069  -0.0000099   0.0000139  -0.0000341  -0.0000143
    3  -0.0000119  -0.0000064  -0.0000115   0.0000234   0.0000384  -0.0000152
            7           8           9          10          11          12
    1   0.0000027   0.0000189  -0.0000018  -0.0000917   0.0000182   0.0000349
    2   0.0000004   0.0000259  -0.0000377  -0.0000229   0.0000927   0.0002020
    3  -0.0000259   0.0000921   0.0000776   0.0001098  -0.0003830  -0.0004334
           13          14          15          16          17          18
    1  -0.0000618  -0.0000405   0.0003677  -0.0002344   0.0000962  -0.0002249
    2  -0.0002777   0.0000795  -0.0005212   0.0014575   0.0002423  -0.0015747
    3   0.0018306  -0.0002939  -0.0012647  -0.0001178  -0.0002129   0.0010380
           19          20          21          22          23
    1   0.0000395   0.0000365   0.0000864  -0.0000150  -0.0000030
    2   0.0003069   0.0003063  -0.0001055  -0.0000775  -0.0000545
    3  -0.0003498  -0.0002063   0.0000245   0.0000912   0.0000073
 Max gradient component =       1.831E-03
 RMS gradient           =       4.218E-04
 Gradient time:  CPU 4.62 s  wall 4.59 s
 Geometry Optimization Parameters
   NAtoms,    NIC,     NZ,  NCons,   NDum,   NFix, NCnnct, MaxDiis
       23     166       0       1       0       0       0       0

 Cartesian Hessian Update
 Hessian Updated using BFGS Update


** CONSTRAINED OPTIMIZATION IN DELOCALIZED INTERNAL COORDINATES **
   Searching for a Minimum

   Optimization Cycle:   3

                       Coordinates (Angstroms)
     ATOM                X               Y               Z
      1  H         6.2225507882   -0.2477113953    0.2580231582
      2  H         5.3175121919    2.2100723476   -0.0705628870
      3  C         5.1926299500    0.0590224759    0.1379302289
      4  C         4.6944196791    1.3238467942   -0.0331664472
      5  S         3.9293498084   -1.1296277237    0.1527323696
      6  C         3.2766234918    1.3457656049   -0.1698492831
      7  H         2.7035236096    2.2513422484   -0.3354714525
      8  C         2.6964981751    0.0949201398   -0.0989147934
      9  H         1.3290843693   -2.3777009694   -0.7081595078
     10  C         1.2957714918   -0.2681002693   -0.2028633679
     11  C         0.7352415431   -1.4950446160   -0.4977772208
     12  S         0.0366384563    0.9248871108    0.0605526444
     13  C        -0.6844600428   -1.4884246388   -0.5004750065
     14  H        -1.2902076842   -2.3662584659   -0.6956470113
     15  C        -1.2317274255   -0.2542999742   -0.2201241375
     16  C        -2.6312403738    0.1274684650   -0.1203828030
     17  H        -2.6836617824    1.4874136732    1.5640888935
     18  C        -3.2352984543    0.9780273659    0.7818717007
     19  S        -3.8237920216   -0.5340649094   -1.2249561514
     20  C        -4.6434033880    1.0951304644    0.5952996905
     21  C        -5.1079304383    0.3284456256   -0.4416291259
     22  H        -5.2852573171    1.7094965403    1.2164775756
     23  H        -6.1252301266    0.2185338857   -0.7918721961
   Point Group: c1    Number of degrees of freedom:    63


   Energy is  -1656.663801734

              Constraints and their Current Values
                                        Value     Constraint
   Dihedral:       13  15  16  18      140.000      140.000
 Hessian Updated using BFGS Update

 56 Hessian modes will be used to form the next step
  Hessian Eigenvalues:
     0.018973    0.045000    0.045000    0.045001    0.045001    0.045003
     0.045003    0.045007    0.045009    0.045014    0.045017    0.046349
     0.055183    0.159772    0.159904    0.159948    0.159961    0.159993
     0.159999    0.160007    0.160533    0.221288    0.221574    0.226866
     0.237843    0.238867    0.248280    0.249650    0.249998    0.250202
     0.250458    0.293550    0.293687    0.294701    0.294844    0.312573
     0.312675    0.354735    0.354741    0.354745    0.354754    0.355165
     0.355169    0.358372    0.358430    0.383069    0.389740    0.405868
     0.405968    0.414145    0.458741    0.461976    0.465185    0.486247
     0.497291    0.497451

 Minimum Search - Taking Simple RFO Step
 Searching for Lamda that Minimizes Along All modes
 Value Taken    Lamda =  -0.00002114
 Step Taken.  Stepsize is  0.029727

                             Maximum     Tolerance    Cnvgd?
         Gradient           0.000310      0.000300      NO
         Displacement       0.010808      0.001200      NO
         Energy change     -0.000066      0.000001      NO


 New Cartesian Coordinates Obtained by Inverse Iteration

 Displacement from previous Coordinates is:  0.076887
 ----------------------------------------------------------------
             Standard Nuclear Orientation (Angstroms)
    I     Atom           X                Y                Z
 ----------------------------------------------------------------
    1      H       6.2215823110    -0.2512057328     0.2651781246
    2      H       5.3199976950     2.2078237272    -0.0633157630
    3      C       5.1923001811     0.0567587820     0.1427159705
    4      C       4.6958465400     1.3222512887    -0.0284827452
    5      S       3.9275101322    -1.1303671175     0.1532233014
    6      C       3.2783011147     1.3458762444    -0.1684584630
    7      H       2.7065714068     2.2523160667    -0.3340945555
    8      C       2.6965796156     0.0956496701    -0.1000556976
    9      H       1.3285456223    -2.3760865907    -0.7096500452
   10      C       1.2956032311    -0.2659346510    -0.2072363623
   11      C       0.7347849624    -1.4926746514    -0.5023412372
   12      S       0.0365409035     0.9276447622     0.0535689508
   13      C      -0.6850351105    -1.4851115802    -0.5082734932
   14      H      -1.2909584669    -2.3641862997    -0.6970413584
   15      C      -1.2321448610    -0.2502283601    -0.2302978479
   16      C      -2.6312286925     0.1312782532    -0.1274667229
   17      H      -2.6787436097     1.4949461980     1.5542398017
   18      C      -3.2325704076     0.9847797873     0.7741226936
   19      S      -3.8290808352    -0.5422310951    -1.2187725036
   20      C      -4.6424370315     1.0953303962     0.5964830659
   21      C      -5.1111338344     0.3211950167    -0.4329425673
   22      H      -5.2826164208     1.7101451587     1.2188984327
   23      H      -6.1305799455     0.2051705071    -0.7748761088
 ----------------------------------------------------------------
 Nuclear Repulsion Energy =  1172.6166343007 hartrees
 There are       64 alpha and       64 beta electrons
 Applying Cartesian multipole field
    Component          Value
    ---------          -----
     (2,0,0)        1.00000E-12
     (0,2,0)        2.00000E-11
     (0,0,2)       -3.00000E-11
 Nucleus-field energy     =     0.0000000099 hartrees
 Requested basis set is 6-31++G(d,p)
 There are 110 shells and 345 basis functions
 A cutoff of  1.0D-12 yielded   4682 shell pairs
 There are     47607 function pairs

 Q-Chem warning in module /project/projectdirs/jcesr/qchem/qc44/cnl_qc441/compile/cori/qc_src/libqints/qchem/aobasis.C, line 68:

 Using reconstructed effective core potential

 Smallest overlap matrix eigenvalue = 7.72E-08
 Linear dependence detected in AO basis
 Number of orthogonalized atomic orbitals = 343
 Maximum deviation from orthogonality = 3.221E-10
 Guess MOs from SCF MO coefficient file
 Reading MOs from coefficient file
 Reading MOs from coefficient file
 A restricted hybrid HF-DFT SCF calculation will be
 performed using Pulay DIIS extrapolation
 Exchange:     0.2000 Hartree-Fock + 0.0800 Slater + 0.7200 B88
 Correlation:  0.1900 VWN1RPA + 0.8100 LYP
 Using SG-1 standard quadrature grid
 SCF converges when DIIS error is below 1.0E-08
 Geometry optimization detected.  Setting ReadMinima to 0
 Setting SaveMinima to 0
 ---------------------------------------
  Cycle       Energy         DIIS Error
 ---------------------------------------
    1   -1656.6623921744      2.12E-04
    2   -1656.6638037520      2.46E-05
    3   -1656.6637718141      5.13E-05
    4   -1656.6638151350      6.84E-06
    5   -1656.6638157518      3.04E-06
    6   -1656.6638158840      1.13E-06
    7   -1656.6638159036      3.56E-07
    8   -1656.6638159061      1.32E-07
    9   -1656.6638159049      4.17E-08
   10   -1656.6638159030      1.19E-08
   11   -1656.6638159027      5.53E-09 Convergence criterion met
 ---------------------------------------
 SCF time:  CPU 11.92 s  wall 11.05 s
 SCF   energy in the final basis set = -1656.6638159027
 Total energy in the final basis set = -1656.6638159027
 
 --------------------------------------------------------------
 
                    Orbital Energies (a.u.)
 --------------------------------------------------------------
 
 Alpha MOs
 -- Occupied --
-88.921 -88.921 -88.921 -10.241 -10.240 -10.240 -10.240 -10.226
-10.226 -10.206 -10.206 -10.206 -10.206 -10.205 -10.205  -7.981
 -7.981  -7.981  -5.945  -5.945  -5.945  -5.941  -5.941  -5.941
 -5.938  -5.938  -5.938  -0.907  -0.892  -0.876  -0.787  -0.756
 -0.745  -0.745  -0.733  -0.698  -0.617  -0.596  -0.570  -0.561
 -0.536  -0.535  -0.529  -0.501  -0.462  -0.422  -0.421  -0.417
 -0.415  -0.408  -0.402  -0.400  -0.385  -0.377  -0.370  -0.360
 -0.350  -0.345  -0.293  -0.266  -0.263  -0.261  -0.248  -0.204
 -- Virtual --
 -0.068  -0.032  -0.007  -0.006  -0.001   0.004   0.007   0.009
  0.012   0.016   0.024   0.027   0.030   0.032   0.041   0.042
  0.046   0.049   0.052   0.055   0.059   0.061   0.070   0.077
  0.086   0.087   0.088   0.093   0.102   0.105   0.108   0.109
  0.113   0.116   0.120   0.122   0.126   0.127   0.131   0.132
  0.133   0.141   0.145   0.146   0.148   0.151   0.154   0.157
  0.162   0.163   0.170   0.172   0.177   0.183   0.184   0.189
  0.194   0.197   0.203   0.213   0.214   0.217   0.220   0.222
  0.225   0.230   0.232   0.244   0.251   0.254   0.260   0.263
  0.269   0.271   0.275   0.276   0.281   0.288   0.292   0.299
  0.314   0.321   0.327   0.332   0.342   0.351   0.356   0.361
  0.367   0.375   0.382   0.395   0.399   0.453   0.456   0.463
  0.498   0.509   0.521   0.534   0.537   0.557   0.571   0.577
  0.581   0.597   0.614   0.625   0.628   0.647   0.656   0.657
  0.661   0.666   0.674   0.687   0.695   0.704   0.715   0.719
  0.723   0.727   0.733   0.744   0.755   0.767   0.778   0.788
  0.791   0.811   0.820   0.826   0.832   0.838   0.848   0.868
  0.892   0.932   0.935   0.938   0.954   0.959   0.960   0.963
  0.968   0.971   0.981   0.985   0.994   0.997   1.010   1.027
  1.038   1.047   1.051   1.066   1.076   1.093   1.104   1.107
  1.108   1.117   1.151   1.163   1.169   1.184   1.202   1.218
  1.255   1.258   1.265   1.293   1.313   1.328   1.344   1.348
  1.354   1.360   1.364   1.380   1.447   1.455   1.485   1.493
  1.512   1.534   1.538   1.568   1.608   1.681   1.692   1.716
  1.751   1.794   1.836   1.857   1.868   1.886   1.890   1.907
  1.917   1.923   1.945   1.960   1.981   2.006   2.029   2.064
  2.071   2.087   2.099   2.110   2.150   2.176   2.179   2.197
  2.202   2.225   2.237   2.260   2.282   2.291   2.329   2.364
  2.366   2.421   2.438   2.444   2.454   2.459   2.466   2.483
  2.501   2.523   2.531   2.537   2.544   2.580   2.590   2.603
  2.624   2.668   2.679   2.705   2.709   2.727   2.815   2.861
  2.876   2.897   2.920   2.936   2.945   3.131   3.176   3.214
  3.270   3.272   3.326   3.413   3.415   3.674   3.730   3.737
  3.972   3.978   3.982   4.255   4.269   4.306   4.320   4.326
  4.353   4.393   4.481   4.547   4.645   4.694   4.726
 --------------------------------------------------------------
 
          Ground-State Mulliken Net Atomic Charges

     Atom                 Charge (a.u.)
  ----------------------------------------
      1 H                     0.196318
      2 H                     0.119394
      3 C                     0.035704
      4 C                    -0.373852
      5 S                    -0.114019
      6 C                     0.531472
      7 H                     0.127131
      8 C                    -0.489294
      9 H                     0.117963
     10 C                    -0.023342
     11 C                    -0.183357
     12 S                    -0.185319
     13 C                     0.184154
     14 H                     0.132016
     15 C                    -0.147105
     16 C                    -0.483490
     17 H                     0.139657
     18 C                     0.467026
     19 S                    -0.051362
     20 C                    -0.358492
     21 C                     0.046353
     22 H                     0.117951
     23 H                     0.194496
  ----------------------------------------
  Sum of atomic charges =     0.000000

 -----------------------------------------------------------------
                    Cartesian Multipole Moments
 -----------------------------------------------------------------
    Charge (ESU x 10^10)
                 0.0000
    Dipole Moment (Debye)
         X      -0.0280      Y       0.3226      Z       0.2814
       Tot       0.4289
    Quadrupole Moments (Debye-Ang)
        XX     -90.2839     XY       0.1589     YY    -103.8883
        XZ      -0.3006     YZ       3.2772     ZZ    -113.3459
    Octopole Moments (Debye-Ang^2)
       XXX      -8.9568    XXY      17.4903    XYY       8.7739
       YYY      -8.1734    XXZ      19.1371    XYZ     -12.7444
       YYZ      16.6417    XZZ     -17.2896    YZZ      -0.9079
       ZZZ      55.4637
    Hexadecapole Moments (Debye-Ang^3)
      XXXX   -6337.2222   XXXY      31.4017   XXYY   -1323.2051
      XYYY     106.9863   YYYY    -730.9374   XXXZ     -52.5385
      XXYZ      14.4435   XYYZ     -70.0654   YYYZ     -63.2229
      XXZZ   -1351.3080   XYZZ      11.2669   YYZZ    -186.8170
      XZZZ    -154.1260   YZZZ     -72.0452   ZZZZ    -351.7779
 -----------------------------------------------------------------
 Calculating analytic gradient of the SCF energy
 Gradient of SCF Energy
            1           2           3           4           5           6
    1   0.0000069   0.0000018  -0.0000007   0.0000267   0.0000037  -0.0000208
    2   0.0000021  -0.0000042  -0.0000221   0.0000029   0.0000477  -0.0000509
    3  -0.0000050   0.0000019   0.0000041   0.0000048   0.0000251  -0.0000301
            7           8           9          10          11          12
    1   0.0000007   0.0000854   0.0000092  -0.0001129   0.0001480  -0.0000187
    2   0.0000009  -0.0000096  -0.0000167   0.0000249   0.0001085  -0.0000023
    3  -0.0000091   0.0001122   0.0001128   0.0000550  -0.0003391  -0.0002479
           13          14          15          16          17          18
    1  -0.0001450  -0.0000433   0.0002068  -0.0000122   0.0000552  -0.0001291
    2  -0.0002488   0.0000406  -0.0004015   0.0015519   0.0000057  -0.0012474
    3   0.0015019  -0.0000190  -0.0014549  -0.0003373  -0.0000494   0.0008881
           19          20          21          22          23
    1   0.0000229  -0.0000657   0.0000394  -0.0000240  -0.0000343
    2   0.0001833   0.0002296  -0.0000268  -0.0001158  -0.0000522
    3  -0.0000867  -0.0002011  -0.0000778   0.0000842   0.0000671
 Max gradient component =       1.552E-03
 RMS gradient           =       3.807E-04
 Gradient time:  CPU 4.61 s  wall 4.62 s
 Geometry Optimization Parameters
   NAtoms,    NIC,     NZ,  NCons,   NDum,   NFix, NCnnct, MaxDiis
       23     166       0       1       0       0       0       0

 Cartesian Hessian Update
 Hessian Updated using BFGS Update


** CONSTRAINED OPTIMIZATION IN DELOCALIZED INTERNAL COORDINATES **
   Searching for a Minimum

   Optimization Cycle:   4

                       Coordinates (Angstroms)
     ATOM                X               Y               Z
      1  H         6.2215823110   -0.2512057328    0.2651781246
      2  H         5.3199976950    2.2078237272   -0.0633157630
      3  C         5.1923001811    0.0567587820    0.1427159705
      4  C         4.6958465400    1.3222512887   -0.0284827452
      5  S         3.9275101322   -1.1303671175    0.1532233014
      6  C         3.2783011147    1.3458762444   -0.1684584630
      7  H         2.7065714068    2.2523160667   -0.3340945555
      8  C         2.6965796156    0.0956496701   -0.1000556976
      9  H         1.3285456223   -2.3760865907   -0.7096500452
     10  C         1.2956032311   -0.2659346510   -0.2072363623
     11  C         0.7347849624   -1.4926746514   -0.5023412372
     12  S         0.0365409035    0.9276447622    0.0535689508
     13  C        -0.6850351105   -1.4851115802   -0.5082734932
     14  H        -1.2909584669   -2.3641862997   -0.6970413584
     15  C        -1.2321448610   -0.2502283601   -0.2302978479
     16  C        -2.6312286925    0.1312782532   -0.1274667229
     17  H        -2.6787436097    1.4949461980    1.5542398017
     18  C        -3.2325704076    0.9847797873    0.7741226936
     19  S        -3.8290808352   -0.5422310951   -1.2187725036
     20  C        -4.6424370315    1.0953303962    0.5964830659
     21  C        -5.1111338344    0.3211950167   -0.4329425673
     22  H        -5.2826164208    1.7101451587    1.2188984327
     23  H        -6.1305799455    0.2051705071   -0.7748761088
   Point Group: c1    Number of degrees of freedom:    63


   Energy is  -1656.663815903

              Constraints and their Current Values
                                        Value     Constraint
   Dihedral:       13  15  16  18      140.000      140.000
 Hessian Updated using BFGS Update

 61 Hessian modes will be used to form the next step
  Hessian Eigenvalues:
     0.014099    0.044607    0.045000    0.045000    0.045000    0.045000
     0.045000    0.045001    0.045001    0.045001    0.045002    0.045003
     0.045004    0.045009    0.045014    0.045017    0.045742    0.050303
     0.159871    0.159942    0.159951    0.159971    0.159992    0.159999
     0.160045    0.160377    0.221287    0.221713    0.226857    0.237810
     0.239537    0.248889    0.249925    0.249975    0.250283    0.251828
     0.293625    0.293754    0.294757    0.295068    0.312581    0.312670
     0.354738    0.354744    0.354749    0.354778    0.355165    0.355190
     0.358374    0.358441    0.383451    0.384368    0.405803    0.407197
     0.416692    0.458202    0.461980    0.462092    0.485348    0.497245
     0.497364

 Minimum Search - Taking Simple RFO Step
 Searching for Lamda that Minimizes Along All modes
 Value Taken    Lamda =  -0.00000855
 Step Taken.  Stepsize is  0.020667

                             Maximum     Tolerance    Cnvgd?
         Gradient           0.000176      0.000300     YES
         Displacement       0.009532      0.001200      NO
         Energy change     -0.000014      0.000001      NO


 New Cartesian Coordinates Obtained by Inverse Iteration

 Displacement from previous Coordinates is:  0.042598
 ----------------------------------------------------------------
             Standard Nuclear Orientation (Angstroms)
    I     Atom           X                Y                Z
 ----------------------------------------------------------------
    1      H       6.2211239561    -0.2521757056     0.2652644171
    2      H       5.3196611593     2.2075090460    -0.0587741915
    3      C       5.1918938911     0.0560292839     0.1430508298
    4      C       4.6955088132     1.3218611912    -0.0258730597
    5      S       3.9271329750    -1.1312098950     0.1510288148
    6      C       3.2780240656     1.3457985137    -0.1660161533
    7      H       2.7062806760     2.2525833268    -0.3296817954
    8      C       2.6963374396     0.0953958214    -0.1000411623
    9      H       1.3277456623    -2.3760244044    -0.7104853869
   10      C       1.2954572844    -0.2658763826    -0.2076791598
   11      C       0.7343051381    -1.4924144748    -0.5030818541
   12      S       0.0367963487     0.9281685439     0.0531574811
   13      C      -0.6852915646    -1.4837886124    -0.5119421256
   14      H      -1.2911238727    -2.3632843365    -0.6990487696
   15      C      -1.2321952143    -0.2481945463    -0.2356139221
   16      C      -2.6306205295     0.1333588008    -0.1315569915
   17      H      -2.6757798312     1.5009905603     1.5475668104
   18      C      -3.2305880974     0.9888497003     0.7694447137
   19      S      -3.8313934878    -0.5482762533    -1.2145318294
   20      C      -4.6411610051     1.0957205582     0.5966704532
   21      C      -5.1120819767     0.3167778016    -0.4280795041
   22      H      -5.2800563764     1.7129608286     1.2180103482
   23      H      -6.1323409536     0.1983804143    -0.7666630931
 ----------------------------------------------------------------
 Nuclear Repulsion Energy =  1172.6527676680 hartrees
 There are       64 alpha and       64 beta electrons
 Applying Cartesian multipole field
    Component          Value
    ---------          -----
     (2,0,0)        1.00000E-12
     (0,2,0)        2.00000E-11
     (0,0,2)       -3.00000E-11
 Nucleus-field energy     =     0.0000000100 hartrees
 Requested basis set is 6-31++G(d,p)
 There are 110 shells and 345 basis functions
 A cutoff of  1.0D-12 yielded   4683 shell pairs
 There are     47611 function pairs

 Q-Chem warning in module /project/projectdirs/jcesr/qchem/qc44/cnl_qc441/compile/cori/qc_src/libqints/qchem/aobasis.C, line 68:

 Using reconstructed effective core potential

 Smallest overlap matrix eigenvalue = 7.68E-08
 Linear dependence detected in AO basis
 Number of orthogonalized atomic orbitals = 343
 Maximum deviation from orthogonality = 6.987E-11
 Guess MOs from SCF MO coefficient file
 Reading MOs from coefficient file
 Reading MOs from coefficient file
 A restricted hybrid HF-DFT SCF calculation will be
 performed using Pulay DIIS extrapolation
 Exchange:     0.2000 Hartree-Fock + 0.0800 Slater + 0.7200 B88
 Correlation:  0.1900 VWN1RPA + 0.8100 LYP
 Using SG-1 standard quadrature grid
 SCF converges when DIIS error is below 1.0E-08
 Geometry optimization detected.  Setting ReadMinima to 0
 Setting SaveMinima to 0
 ---------------------------------------
  Cycle       Energy         DIIS Error
 ---------------------------------------
    1   -1656.6625406143      1.35E-04
    2   -1656.6638176501      1.27E-05
    3   -1656.6638098270      2.57E-05
    4   -1656.6638210698      3.67E-06
    5   -1656.6638212480      1.63E-06
    6   -1656.6638212793      8.81E-07
    7   -1656.6638212895      2.31E-07
    8   -1656.6638212910      8.77E-08
    9   -1656.6638212904      2.58E-08
   10   -1656.6638212897      7.57E-09 Convergence criterion met
 ---------------------------------------
 SCF time:  CPU 10.97 s  wall 10.09 s
 SCF   energy in the final basis set = -1656.6638212897
 Total energy in the final basis set = -1656.6638212897
 
 --------------------------------------------------------------
 
                    Orbital Energies (a.u.)
 --------------------------------------------------------------
 
 Alpha MOs
 -- Occupied --
-88.921 -88.921 -88.921 -10.241 -10.240 -10.240 -10.240 -10.226
-10.226 -10.206 -10.206 -10.206 -10.206 -10.205 -10.205  -7.981
 -7.981  -7.981  -5.945  -5.945  -5.945  -5.941  -5.941  -5.941
 -5.938  -5.938  -5.938  -0.907  -0.892  -0.876  -0.787  -0.756
 -0.745  -0.745  -0.733  -0.697  -0.617  -0.596  -0.570  -0.561
 -0.536  -0.535  -0.529  -0.501  -0.462  -0.423  -0.421  -0.417
 -0.415  -0.408  -0.402  -0.400  -0.385  -0.377  -0.370  -0.360
 -0.350  -0.345  -0.293  -0.266  -0.263  -0.261  -0.248  -0.204
 -- Virtual --
 -0.069  -0.032  -0.007  -0.006  -0.001   0.004   0.006   0.009
  0.012   0.016   0.024   0.027   0.030   0.032   0.041   0.042
  0.046   0.049   0.052   0.055   0.059   0.062   0.070   0.077
  0.086   0.087   0.088   0.093   0.102   0.105   0.108   0.109
  0.113   0.116   0.120   0.122   0.126   0.127   0.131   0.132
  0.134   0.141   0.145   0.146   0.148   0.151   0.154   0.157
  0.162   0.163   0.170   0.172   0.177   0.183   0.184   0.189
  0.194   0.197   0.203   0.213   0.214   0.217   0.220   0.222
  0.225   0.230   0.232   0.244   0.251   0.254   0.260   0.263
  0.269   0.271   0.275   0.277   0.281   0.288   0.292   0.299
  0.314   0.321   0.327   0.332   0.342   0.351   0.357   0.361
  0.367   0.375   0.382   0.395   0.399   0.453   0.456   0.463
  0.498   0.509   0.521   0.534   0.537   0.557   0.571   0.577
  0.581   0.597   0.614   0.625   0.628   0.647   0.656   0.657
  0.661   0.666   0.674   0.687   0.695   0.704   0.715   0.719
  0.723   0.727   0.733   0.744   0.755   0.767   0.778   0.787
  0.791   0.811   0.820   0.827   0.832   0.838   0.848   0.868
  0.892   0.932   0.935   0.938   0.954   0.959   0.960   0.963
  0.968   0.971   0.981   0.986   0.994   0.997   1.010   1.027
  1.038   1.047   1.051   1.066   1.077   1.093   1.104   1.107
  1.107   1.117   1.151   1.163   1.169   1.184   1.202   1.218
  1.255   1.258   1.265   1.293   1.313   1.328   1.344   1.348
  1.354   1.360   1.364   1.380   1.447   1.455   1.485   1.493
  1.512   1.534   1.538   1.568   1.607   1.680   1.692   1.715
  1.751   1.794   1.836   1.857   1.868   1.886   1.890   1.907
  1.917   1.923   1.945   1.960   1.980   2.006   2.029   2.064
  2.071   2.087   2.099   2.109   2.150   2.176   2.179   2.197
  2.202   2.225   2.237   2.260   2.282   2.291   2.330   2.364
  2.366   2.421   2.438   2.444   2.454   2.459   2.465   2.484
  2.501   2.523   2.531   2.537   2.544   2.580   2.590   2.603
  2.624   2.668   2.679   2.705   2.709   2.727   2.815   2.861
  2.875   2.897   2.920   2.936   2.945   3.131   3.176   3.214
  3.270   3.272   3.326   3.413   3.415   3.674   3.730   3.737
  3.972   3.978   3.982   4.255   4.269   4.306   4.320   4.326
  4.353   4.393   4.481   4.547   4.646   4.694   4.726
 --------------------------------------------------------------
 
          Ground-State Mulliken Net Atomic Charges

     Atom                 Charge (a.u.)
  ----------------------------------------
      1 H                     0.196327
      2 H                     0.119439
      3 C                     0.035433
      4 C                    -0.372015
      5 S                    -0.114478
      6 C                     0.533088
      7 H                     0.127176
      8 C                    -0.487084
      9 H                     0.117872
     10 C                    -0.028336
     11 C                    -0.183172
     12 S                    -0.187816
     13 C                     0.188202
     14 H                     0.132102
     15 C                    -0.150643
     16 C                    -0.481285
     17 H                     0.139468
     18 C                     0.468601
     19 S                    -0.052153
     20 C                    -0.359439
     21 C                     0.046361
     22 H                     0.117921
     23 H                     0.194429
  ----------------------------------------
  Sum of atomic charges =     0.000000

 -----------------------------------------------------------------
                    Cartesian Multipole Moments
 -----------------------------------------------------------------
    Charge (ESU x 10^10)
                 0.0000
    Dipole Moment (Debye)
         X      -0.0278      Y       0.3204      Z       0.2884
       Tot       0.4319
    Quadrupole Moments (Debye-Ang)
        XX     -90.2902     XY       0.1745     YY    -103.8677
        XZ      -0.3088     YZ       3.2961     ZZ    -113.3738
    Octopole Moments (Debye-Ang^2)
       XXX      -8.9594    XXY      17.3866    XYY       8.7372
       YYY      -7.9695    XXZ      19.3169    XYZ     -12.7292
       YYZ      16.7036    XZZ     -17.1383    YZZ      -0.8661
       ZZZ      55.5361
    Hexadecapole Moments (Debye-Ang^3)
      XXXX   -6337.0607   XXXY      31.5421   XXYY   -1323.0097
      XYYY     106.0136   YYYY    -731.6283   XXXZ     -52.8514
      XXYZ      14.6855   XYYZ     -69.8573   YYYZ     -63.6553
      XXZZ   -1351.8695   XYZZ      11.0522   YYZZ    -186.7381
      XZZZ    -153.9792   YZZZ     -72.7197   ZZZZ    -350.8083
 -----------------------------------------------------------------
 Calculating analytic gradient of the SCF energy
 Gradient of SCF Energy
            1           2           3           4           5           6
    1  -0.0000017  -0.0000021  -0.0000170   0.0000052  -0.0000201  -0.0000127
    2   0.0000016   0.0000008  -0.0000169   0.0000116  -0.0000004  -0.0000223
    3   0.0000020   0.0000053   0.0000020  -0.0000095   0.0000284  -0.0000413
            7           8           9          10          11          12
    1   0.0000006   0.0000747   0.0000016  -0.0000856   0.0000556  -0.0000200
    2   0.0000051  -0.0000110  -0.0000163   0.0000439   0.0000330  -0.0000081
    3   0.0000049   0.0000721   0.0000757  -0.0000540  -0.0001545   0.0000029
           13          14          15          16          17          18
    1  -0.0000243  -0.0000089  -0.0000799   0.0003154   0.0000006  -0.0002164
    2  -0.0003139  -0.0000117  -0.0001859   0.0016031  -0.0000693  -0.0010910
    3   0.0013898   0.0000920  -0.0017030  -0.0006028   0.0000435   0.0009072
           19          20          21          22          23
    1   0.0000122  -0.0000077   0.0000563  -0.0000117  -0.0000140
    2   0.0000028   0.0001070   0.0000335  -0.0000662  -0.0000296
    3  -0.0000110  -0.0000780  -0.0000811   0.0000519   0.0000575
 Max gradient component =       1.703E-03
 RMS gradient           =       3.841E-04
 Gradient time:  CPU 4.65 s  wall 4.60 s
 Geometry Optimization Parameters
   NAtoms,    NIC,     NZ,  NCons,   NDum,   NFix, NCnnct, MaxDiis
       23     166       0       1       0       0       0       0

 Cartesian Hessian Update
 Hessian Updated using BFGS Update


** CONSTRAINED OPTIMIZATION IN DELOCALIZED INTERNAL COORDINATES **
   Searching for a Minimum

   Optimization Cycle:   5

                       Coordinates (Angstroms)
     ATOM                X               Y               Z
      1  H         6.2211239561   -0.2521757056    0.2652644171
      2  H         5.3196611593    2.2075090460   -0.0587741915
      3  C         5.1918938911    0.0560292839    0.1430508298
      4  C         4.6955088132    1.3218611912   -0.0258730597
      5  S         3.9271329750   -1.1312098950    0.1510288148
      6  C         3.2780240656    1.3457985137   -0.1660161533
      7  H         2.7062806760    2.2525833268   -0.3296817954
      8  C         2.6963374396    0.0953958214   -0.1000411623
      9  H         1.3277456623   -2.3760244044   -0.7104853869
     10  C         1.2954572844   -0.2658763826   -0.2076791598
     11  C         0.7343051381   -1.4924144748   -0.5030818541
     12  S         0.0367963487    0.9281685439    0.0531574811
     13  C        -0.6852915646   -1.4837886124   -0.5119421256
     14  H        -1.2911238727   -2.3632843365   -0.6990487696
     15  C        -1.2321952143   -0.2481945463   -0.2356139221
     16  C        -2.6306205295    0.1333588008   -0.1315569915
     17  H        -2.6757798312    1.5009905603    1.5475668104
     18  C        -3.2305880974    0.9888497003    0.7694447137
     19  S        -3.8313934878   -0.5482762533   -1.2145318294
     20  C        -4.6411610051    1.0957205582    0.5966704532
     21  C        -5.1120819767    0.3167778016   -0.4280795041
     22  H        -5.2800563764    1.7129608286    1.2180103482
     23  H        -6.1323409536    0.1983804143   -0.7666630931
   Point Group: c1    Number of degrees of freedom:    63


   Energy is  -1656.663821290

              Constraints and their Current Values
                                        Value     Constraint
   Dihedral:       13  15  16  18      140.000      140.000
 Hessian Updated using BFGS Update

 59 Hessian modes will be used to form the next step
  Hessian Eigenvalues:
     0.012178    0.035076    0.045000    0.045000    0.045000    0.045001
     0.045001    0.045002    0.045003    0.045004    0.045009    0.045013
     0.045014    0.045028    0.045906    0.054298    0.159282    0.159909
     0.159955    0.159962    0.159992    0.159999    0.160124    0.160383
     0.221287    0.221769    0.226796    0.237750    0.240141    0.249031
     0.249937    0.250097    0.250622    0.252176    0.293548    0.293742
     0.294696    0.294923    0.312582    0.312730    0.354738    0.354741
     0.354749    0.354777    0.355165    0.355190    0.358374    0.358457
     0.383594    0.386325    0.405796    0.407753    0.417487    0.458320
     0.461650    0.462725    0.485309    0.497285    0.497593

 Minimum Search - Taking Simple RFO Step
 Searching for Lamda that Minimizes Along All modes
 Value Taken    Lamda =  -0.00000233
 Step Taken.  Stepsize is  0.010504

                             Maximum     Tolerance    Cnvgd?
         Gradient           0.000118      0.000300     YES
         Displacement       0.005856      0.001200      NO
         Energy change     -0.000005      0.000001      NO


 New Cartesian Coordinates Obtained by Inverse Iteration

 Displacement from previous Coordinates is:  0.021220
 ----------------------------------------------------------------
             Standard Nuclear Orientation (Angstroms)
    I     Atom           X                Y                Z
 ----------------------------------------------------------------
    1      H       6.2217011820    -0.2520883657     0.2631471503
    2      H       5.3192533877     2.2077679546    -0.0567518538
    3      C       5.1923066231     0.0559936607     0.1419854386
    4      C       4.6953861960     1.3218857487    -0.0247711830
    5      S       3.9278726329    -1.1316353642     0.1489085997
    6      C       3.2778025789     1.3456064712    -0.1640405822
[...]
    5   -1656.6638234380      3.68E-07
    6   -1656.6638234398      1.84E-07
    7   -1656.6638234433      6.43E-08
    8   -1656.6638234440      2.14E-08
    9   -1656.6638234413      7.06E-09 Convergence criterion met
 ---------------------------------------
 SCF time:  CPU 9.81 s  wall 9.02 s
 SCF   energy in the final basis set = -1656.6638234413
 Total energy in the final basis set = -1656.6638234413
 
 --------------------------------------------------------------
 
                    Orbital Energies (a.u.)
 --------------------------------------------------------------
 
 Alpha MOs
 -- Occupied --
-88.921 -88.921 -88.921 -10.241 -10.240 -10.240 -10.240 -10.226
-10.226 -10.206 -10.206 -10.206 -10.206 -10.205 -10.205  -7.981
 -7.981  -7.981  -5.945  -5.945  -5.945  -5.941  -5.941  -5.941
 -5.938  -5.938  -5.938  -0.907  -0.892  -0.876  -0.787  -0.756
 -0.745  -0.745  -0.733  -0.697  -0.617  -0.596  -0.570  -0.561
 -0.536  -0.535  -0.529  -0.501  -0.462  -0.423  -0.421  -0.417
 -0.415  -0.408  -0.402  -0.400  -0.385  -0.377  -0.370  -0.360
 -0.350  -0.345  -0.293  -0.266  -0.263  -0.261  -0.248  -0.204
 -- Virtual --
 -0.069  -0.032  -0.007  -0.006  -0.001   0.004   0.006   0.009
  0.012   0.016   0.024   0.027   0.030   0.033   0.041   0.042
  0.046   0.049   0.052   0.055   0.059   0.062   0.070   0.077
  0.085   0.087   0.088   0.093   0.102   0.105   0.108   0.109
  0.113   0.116   0.120   0.122   0.126   0.127   0.131   0.132
  0.134   0.141   0.145   0.146   0.148   0.151   0.154   0.157
  0.162   0.163   0.170   0.172   0.177   0.183   0.184   0.189
  0.194   0.197   0.203   0.213   0.214   0.217   0.220   0.222
  0.224   0.230   0.232   0.244   0.251   0.255   0.260   0.263
  0.269   0.271   0.275   0.277   0.281   0.288   0.292   0.300
  0.314   0.321   0.327   0.332   0.342   0.351   0.357   0.361
  0.367   0.375   0.382   0.395   0.399   0.453   0.456   0.463
  0.498   0.509   0.521   0.534   0.537   0.558   0.572   0.577
  0.581   0.597   0.614   0.624   0.628   0.647   0.656   0.657
  0.661   0.666   0.673   0.687   0.694   0.704   0.715   0.719
  0.723   0.727   0.733   0.744   0.755   0.767   0.779   0.787
  0.791   0.811   0.820   0.827   0.832   0.838   0.848   0.868
  0.892   0.932   0.935   0.938   0.954   0.959   0.960   0.963
  0.968   0.971   0.981   0.986   0.994   0.997   1.010   1.027
  1.037   1.047   1.051   1.066   1.077   1.093   1.104   1.107
  1.107   1.117   1.151   1.163   1.169   1.184   1.203   1.218
  1.256   1.258   1.265   1.293   1.313   1.329   1.344   1.348
  1.354   1.360   1.364   1.379   1.447   1.455   1.485   1.493
  1.512   1.533   1.538   1.569   1.607   1.680   1.692   1.715
  1.751   1.794   1.836   1.857   1.868   1.886   1.890   1.907
  1.917   1.923   1.945   1.960   1.980   2.006   2.029   2.065
  2.071   2.086   2.100   2.109   2.150   2.176   2.179   2.197
  2.202   2.225   2.236   2.260   2.282   2.291   2.330   2.364
  2.366   2.421   2.438   2.444   2.454   2.459   2.466   2.484
  2.501   2.523   2.531   2.537   2.545   2.581   2.590   2.603
  2.624   2.668   2.679   2.705   2.709   2.727   2.815   2.861
  2.875   2.897   2.920   2.936   2.946   3.131   3.176   3.214
  3.270   3.272   3.326   3.414   3.415   3.674   3.730   3.737
  3.972   3.978   3.982   4.255   4.269   4.306   4.320   4.326
  4.353   4.393   4.481   4.547   4.646   4.694   4.726
 --------------------------------------------------------------
 
          Ground-State Mulliken Net Atomic Charges

     Atom                 Charge (a.u.)
  ----------------------------------------
      1 H                     0.196363
      2 H                     0.119501
      3 C                     0.035311
      4 C                    -0.370891
      5 S                    -0.115071
      6 C                     0.535992
      7 H                     0.127149
      8 C                    -0.484992
      9 H                     0.117902
     10 C                    -0.034460
     11 C                    -0.180825
     12 S                    -0.190394
     13 C                     0.189531
     14 H                     0.132030
     15 C                    -0.152147
     16 C                    -0.478917
     17 H                     0.139207
     18 C                     0.468349
     19 S                    -0.052328
     20 C                    -0.359672
     21 C                     0.046034
     22 H                     0.117903
     23 H                     0.194426
  ----------------------------------------
  Sum of atomic charges =     0.000000

 -----------------------------------------------------------------
                    Cartesian Multipole Moments
 -----------------------------------------------------------------
    Charge (ESU x 10^10)
                 0.0000
    Dipole Moment (Debye)
         X      -0.0272      Y       0.3246      Z       0.2844
       Tot       0.4324
    Quadrupole Moments (Debye-Ang)
        XX     -90.2913     XY       0.1638     YY    -103.8452
        XZ      -0.3028     YZ       3.3228     ZZ    -113.3990
    Octopole Moments (Debye-Ang^2)
       XXX      -8.9421    XXY      17.4595    XYY       8.6425
       YYY      -7.6660    XXZ      19.2143    XYZ     -12.6835
       YYZ      16.7202    XZZ     -17.0534    YZZ      -0.8192
       ZZZ      55.4670
    Hexadecapole Moments (Debye-Ang^3)
      XXXX   -6337.8345   XXXY      31.0947   XXYY   -1322.9389
      XYYY     105.2139   YYYY    -732.2356   XXXZ     -52.5849
      XXYZ      14.8968   XYYZ     -69.5544   YYYZ     -63.9711
      XXZZ   -1352.5622   XYZZ      10.9424   YYZZ    -186.6432
      XZZZ    -153.2513   YZZZ     -73.3323   ZZZZ    -349.7652
 -----------------------------------------------------------------
 Calculating analytic gradient of the SCF energy
 Gradient of SCF Energy
            1           2           3           4           5           6
    1  -0.0000011   0.0000003  -0.0000026  -0.0000036  -0.0000050   0.0000068
    2  -0.0000006  -0.0000002  -0.0000001  -0.0000009  -0.0000054   0.0000059
    3   0.0000027   0.0000015  -0.0000000   0.0000014   0.0000244  -0.0000341
            7           8           9          10          11          12
    1  -0.0000011  -0.0000062  -0.0000007   0.0000119  -0.0000271   0.0000077
    2  -0.0000014  -0.0000010   0.0000028   0.0000026  -0.0000134  -0.0000093
    3   0.0000024   0.0000126  -0.0000156  -0.0000282   0.0000199   0.0000558
           13          14          15          16          17          18
    1   0.0000566   0.0000046  -0.0002521   0.0004835  -0.0000107  -0.0002795
    2  -0.0003398  -0.0000121  -0.0001400   0.0017235  -0.0000205  -0.0011773
    3   0.0015201   0.0000321  -0.0019200  -0.0006846   0.0000223   0.0009751
           19          20          21          22          23
    1  -0.0000039   0.0000183  -0.0000028   0.0000029   0.0000039
    2  -0.0000158  -0.0000291   0.0000119   0.0000196   0.0000005
    3   0.0000071   0.0000326  -0.0000069  -0.0000161  -0.0000044
 Max gradient component =       1.920E-03
 RMS gradient           =       4.222E-04
 Gradient time:  CPU 4.67 s  wall 4.62 s
 Geometry Optimization Parameters
   NAtoms,    NIC,     NZ,  NCons,   NDum,   NFix, NCnnct, MaxDiis
       23     166       0       1       0       0       0       0

 Cartesian Hessian Update
 Hessian Updated using BFGS Update


** CONSTRAINED OPTIMIZATION IN DELOCALIZED INTERNAL COORDINATES **
   Searching for a Minimum

   Optimization Cycle:   7

                       Coordinates (Angstroms)
     ATOM                X               Y               Z
      1  H         6.2218902175   -0.2521469426    0.2611604284
      2  H         5.3187924969    2.2079551429   -0.0552262779
      3  C         5.1923751205    0.0559056324    0.1409771324
      4  C         4.6951201772    1.3219092704   -0.0239356303
      5  S         3.9282258235   -1.1320366402    0.1471030604
      6  C         3.2774894513    1.3455241320   -0.1624020074
      7  H         2.7051257981    2.2524623621   -0.3229663961
      8  C         2.6964224269    0.0946332927   -0.0991552284
      9  H         1.3270632690   -2.3765353402   -0.7109686684
     10  C         1.2956629340   -0.2668775832   -0.2059390296
     11  C         0.7340002791   -1.4930762505   -0.5018329913
     12  S         0.0372837232    0.9278568333    0.0536852933
     13  C        -0.6854707159   -1.4834714979   -0.5129092352
     14  H        -1.2913238492   -2.3625102694   -0.7021176011
     15  C        -1.2322109881   -0.2473664264   -0.2381240554
     16  C        -2.6303239244    0.1344864750   -0.1335040182
     17  H        -2.6741240394    1.5077984400    1.5413198135
     18  C        -3.2297468109    0.9915132557    0.7665192517
     19  S        -3.8327847521   -0.5527208213   -1.2111419693
     20  C        -4.6407789877    1.0959424874    0.5965070415
     21  C        -5.1129923491    0.3131454944   -0.4246807371
     22  H        -5.2786888358    1.7166526781    1.2154031646
     23  H        -6.1333719648    0.1940960554   -0.7626464703
   Point Group: c1    Number of degrees of freedom:    63


   Energy is  -1656.663823441

              Constraints and their Current Values
                                        Value     Constraint
   Dihedral:       13  15  16  18      140.000      140.000
 Hessian Updated using BFGS Update

 62 Hessian modes will be used to form the next step
  Hessian Eigenvalues:
     0.009937    0.019789    0.045000    0.045000    0.045000    0.045000
     0.045000    0.045001    0.045001    0.045002    0.045003    0.045004
     0.045008    0.045011    0.045014    0.045022    0.045339    0.048387
     0.051106    0.159886    0.159912    0.159960    0.159988    0.159993
     0.160027    0.160202    0.160293    0.221295    0.221921    0.226917
     0.237869    0.241346    0.249346    0.249970    0.250030    0.251320
     0.261482    0.293590    0.293662    0.294666    0.295058    0.312586
     0.312808    0.354738    0.354748    0.354752    0.354814    0.355165
     0.355204    0.358378    0.358489    0.383576    0.386637    0.405844
     0.408853    0.421111    0.458380    0.462026    0.462821    0.485770
     0.497261    0.497985

 Minimum Search - Taking Simple RFO Step
 Searching for Lamda that Minimizes Along All modes
 Value Taken    Lamda =   0.00000000
 Step Taken.  Stepsize is  0.003835

                             Maximum     Tolerance    Cnvgd?
         Gradient           0.000050      0.000300     YES
         Displacement       0.002687      0.001200      NO
         Energy change     -0.000001      0.000001     YES

 Final energy is   -1656.66382344127     


 ******************************
 **  OPTIMIZATION CONVERGED  **
 ******************************

                       Coordinates (Angstroms)
     ATOM                X               Y               Z
      1  H         6.2218902175   -0.2521469426    0.2611604284
      2  H         5.3187924969    2.2079551429   -0.0552262779
      3  C         5.1923751205    0.0559056324    0.1409771324
      4  C         4.6951201772    1.3219092704   -0.0239356303
      5  S         3.9282258235   -1.1320366402    0.1471030604
      6  C         3.2774894513    1.3455241320   -0.1624020074
      7  H         2.7051257981    2.2524623621   -0.3229663961
      8  C         2.6964224269    0.0946332927   -0.0991552284
      9  H         1.3270632690   -2.3765353402   -0.7109686684
     10  C         1.2956629340   -0.2668775832   -0.2059390296
     11  C         0.7340002791   -1.4930762505   -0.5018329913
     12  S         0.0372837232    0.9278568333    0.0536852933
     13  C        -0.6854707159   -1.4834714979   -0.5129092352
     14  H        -1.2913238492   -2.3625102694   -0.7021176011
     15  C        -1.2322109881   -0.2473664264   -0.2381240554
     16  C        -2.6303239244    0.1344864750   -0.1335040182
     17  H        -2.6741240394    1.5077984400    1.5413198135
     18  C        -3.2297468109    0.9915132557    0.7665192517
     19  S        -3.8327847521   -0.5527208213   -1.2111419693
     20  C        -4.6407789877    1.0959424874    0.5965070415
     21  C        -5.1129923491    0.3131454944   -0.4246807371
     22  H        -5.2786888358    1.7166526781    1.2154031646
     23  H        -6.1333719648    0.1940960554   -0.7626464703

Z-matrix Print:
$molecule
0 1
S 
C  1 1.754400
C  2 1.379271 1 110.282030
H  3 1.084236 2 122.673908 1 178.581317 0
C  3 1.419547 2 113.633593 1 -0.470454 0
H  5 1.084418 3 123.426972 2 -179.096562 0
C  5 1.380790 3 113.728979 2 0.574896 0
C  7 1.450593 5 129.041559 3 179.607670 0
C  8 1.380712 7 128.961601 5 160.658461 0
H  9 1.084398 8 122.844918 7 -0.866191 0
C  9 1.424573 8 113.535951 7 -179.667698 0
H  11 1.083985 9 123.792864 8 179.567005 0
C  11 1.370118 9 112.841069 8 0.152315 0
H  13 1.081315 11 128.473979 9 179.511356 0
C  2 1.453092 1 120.545279 3 178.182688 0
C  15 1.379799 2 128.915772 1 -37.801936 0
H  16 1.084243 15 122.633403 2 0.296926 0
C  16 1.425069 15 113.443615 2 -178.067871 0
H  18 1.084086 16 123.813038 15 179.610225 0
C  18 1.370613 16 112.840517 15 0.404624 0
H  20 1.081466 18 128.372645 16 179.375674 0
S  20 1.734121 18 111.637051 16 -0.715466 0
S  13 1.734739 11 111.635984 9 -0.625665 0
$end

 
 --------------------------------------------------------------
 
                    Orbital Energies (a.u.)
 --------------------------------------------------------------
 
 Alpha MOs
 -- Occupied --
-88.921 -88.921 -88.921 -10.241 -10.240 -10.240 -10.240 -10.226
-10.226 -10.206 -10.206 -10.206 -10.206 -10.205 -10.205  -7.981
 -7.981  -7.981  -5.945  -5.945  -5.945  -5.941  -5.941  -5.941
 -5.938  -5.938  -5.938  -0.907  -0.892  -0.876  -0.787  -0.756
 -0.745  -0.745  -0.733  -0.697  -0.617  -0.596  -0.570  -0.561
 -0.536  -0.535  -0.529  -0.501  -0.462  -0.423  -0.421  -0.417
 -0.415  -0.408  -0.402  -0.400  -0.385  -0.377  -0.370  -0.360
 -0.350  -0.345  -0.293  -0.266  -0.263  -0.261  -0.248  -0.204
 -- Virtual --
 -0.069  -0.032  -0.007  -0.006  -0.001   0.004   0.006   0.009
  0.012   0.016   0.024   0.027   0.030   0.033   0.041   0.042
  0.046   0.049   0.052   0.055   0.059   0.062   0.070   0.077
  0.085   0.087   0.088   0.093   0.102   0.105   0.108   0.109
  0.113   0.116   0.120   0.122   0.126   0.127   0.131   0.132
  0.134   0.141   0.145   0.146   0.148   0.151   0.154   0.157
  0.162   0.163   0.170   0.172   0.177   0.183   0.184   0.189
  0.194   0.197   0.203   0.213   0.214   0.217   0.220   0.222
  0.224   0.230   0.232   0.244   0.251   0.255   0.260   0.263
  0.269   0.271   0.275   0.277   0.281   0.288   0.292   0.300
  0.314   0.321   0.327   0.332   0.342   0.351   0.357   0.361
  0.367   0.375   0.382   0.395   0.399   0.453   0.456   0.463
  0.498   0.509   0.521   0.534   0.537   0.558   0.572   0.577
  0.581   0.597   0.614   0.624   0.628   0.647   0.656   0.657
  0.661   0.666   0.673   0.687   0.694   0.704   0.715   0.719
  0.723   0.727   0.733   0.744   0.755   0.767   0.779   0.787
  0.791   0.811   0.820   0.827   0.832   0.838   0.848   0.868
  0.892   0.932   0.935   0.938   0.954   0.959   0.960   0.963
  0.968   0.971   0.981   0.986   0.994   0.997   1.010   1.027
  1.037   1.047   1.051   1.066   1.077   1.093   1.104   1.107
  1.107   1.117   1.151   1.163   1.169   1.184   1.203   1.218
  1.256   1.258   1.265   1.293   1.313   1.329   1.344   1.348
  1.354   1.360   1.364   1.379   1.447   1.455   1.485   1.493
  1.512   1.533   1.538   1.569   1.607   1.680   1.692   1.715
  1.751   1.794   1.836   1.857   1.868   1.886   1.890   1.907
  1.917   1.923   1.945   1.960   1.980   2.006   2.029   2.065
  2.071   2.086   2.100   2.109   2.150   2.176   2.179   2.197
  2.202   2.225   2.236   2.260   2.282   2.291   2.330   2.364
  2.366   2.421   2.438   2.444   2.454   2.459   2.466   2.484
  2.501   2.523   2.531   2.537   2.545   2.581   2.590   2.603
  2.624   2.668   2.679   2.705   2.709   2.727   2.815   2.861
  2.875   2.897   2.920   2.936   2.946   3.131   3.176   3.214
  3.270   3.272   3.326   3.414   3.415   3.674   3.730   3.737
  3.972   3.978   3.982   4.255   4.269   4.306   4.320   4.326
  4.353   4.393   4.481   4.547   4.646   4.694   4.726
 --------------------------------------------------------------
 
          Ground-State Mulliken Net Atomic Charges

     Atom                 Charge (a.u.)
  ----------------------------------------
      1 H                     0.196363
      2 H                     0.119501
      3 C                     0.035311
      4 C                    -0.370891
      5 S                    -0.115071
      6 C                     0.535992
      7 H                     0.127149
      8 C                    -0.484992
      9 H                     0.117902
     10 C                    -0.034460
     11 C                    -0.180825
     12 S                    -0.190394
     13 C                     0.189531
     14 H                     0.132030
     15 C                    -0.152147
     16 C                    -0.478917
     17 H                     0.139207
     18 C                     0.468349
     19 S                    -0.052328
     20 C                    -0.359672
     21 C                     0.046034
     22 H                     0.117903
     23 H                     0.194426
  ----------------------------------------
  Sum of atomic charges =     0.000000

 -----------------------------------------------------------------
                    Cartesian Multipole Moments
 -----------------------------------------------------------------
    Charge (ESU x 10^10)
                 0.0000
    Dipole Moment (Debye)
         X      -0.0272      Y       0.3246      Z       0.2844
       Tot       0.4324
    Quadrupole Moments (Debye-Ang)
        XX     -90.2913     XY       0.1638     YY    -103.8452
        XZ      -0.3028     YZ       3.3228     ZZ    -113.3990
    Octopole Moments (Debye-Ang^2)
       XXX      -8.9421    XXY      17.4595    XYY       8.6425
       YYY      -7.6660    XXZ      19.2143    XYZ     -12.6835
       YYZ      16.7202    XZZ     -17.0534    YZZ      -0.8192
       ZZZ      55.4670
    Hexadecapole Moments (Debye-Ang^3)
      XXXX   -6337.8345   XXXY      31.0947   XXYY   -1322.9389
      XYYY     105.2139   YYYY    -732.2356   XXXZ     -52.5849
      XXYZ      14.8968   XYYZ     -69.5544   YYYZ     -63.9711
      XXZZ   -1352.5622   XYZZ      10.9424   YYZZ    -186.6432
      XZZZ    -153.2513   YZZZ     -73.3323   ZZZZ    -349.7652
 -----------------------------------------------------------------
Archival summary:
1\1\nid00482\OPT\ProcedureUnspecified\BasisUnspecified\3128\bwood\TueMay3010:54:392017TueMay3010:54:392017\0\\#,OPT,ProcedureUnspecified,BasisUnspecified,\\0,1\S\C,1,1.7544\C,2,1.37927,1,110.282\H,3,1.08424,2,122.674,1,178.581,0\C,3,1.41955,2,113.634,1,-0.470454,0\H,5,1.08442,3,123.427,2,-179.097,0\C,5,1.38079,3,113.729,2,0.574896,0\C,7,1.45059,5,129.042,3,179.608,0\C,8,1.38071,7,128.962,5,160.658,0\H,9,1.0844,8,122.845,7,-0.866191,0\C,9,1.42457,8,113.536,7,-179.668,0\H,11,1.08399,9,123.793,8,179.567,0\C,11,1.37012,9,112.841,8,0.152315,0\H,13,1.08131,11,128.474,9,179.511,0\C,2,1.45309,1,120.545,3,178.183,0\C,15,1.3798,2,128.916,1,-37.8019,0\H,16,1.08424,15,122.633,2,0.296926,0\C,16,1.42507,15,113.444,2,-178.068,0\H,18,1.08409,16,123.813,15,179.61,0\C,18,1.37061,16,112.841,15,0.404624,0\H,20,1.08147,18,128.373,16,179.376,0\S,20,1.73412,18,111.637,16,-0.715466,0\S,13,1.73474,11,111.636,9,-0.625665,0\\\@

 Total job time:  114.28s(wall), 121.00s(cpu) 
 Tue May 30 10:54:39 2017

        *************************************************************
        *                                                           *
        *  Thank you very much for using Q-Chem.  Have a nice day.  *
        *                                                           *
        *************************************************************


0 sent ACK to 0 
now end server 0 ... 
