srun -N 1 --ntasks-per-node 1 --cpus-per-task 64 --cpu_bind=cores --nodelist nid01558 /global/project/projectdirs/jcesr/qchem/qc44/cnl_qc441/dist/exe/qcprog.cori.haswell.exe .pt_mp2_hole_30.0.in.59502.qcin.1 /dev/shm/eg_qchem/qchem59502/
Process 0 of 1 is on nid01558 - thread support 0
initial socket setup ...start
initial socket setup ...done 
now start server 0 ... 
nid01558 10.128.6
Q-Chem Developer Version! Running on 10.128.6.*
                  Welcome to Q-Chem
     A Quantum Leap Into The Future Of Chemistry


 Q-Chem 4.4, Q-Chem, Inc., Pleasanton, CA (2016)

 Y. Shao,  Z. Gan,  E. Epifanovsky,  A. T. B. Gilbert,  M. Wormit,  
 J. Kussmann,  A. W. Lange,  A. Behn,  J. Deng,  X. Feng,  D. Ghosh,  
 M. Goldey,  P. R. Horn,  L. D. Jacobson,  I. Kaliman,  F.Rob,  
 R. Z. Khaliullin,  T. Kus,  A. Landau,  J. Liu,  E. I. Proynov,  Y. M. Rhee,  
 R. M. Richard,  M. A. Rohrdanz,  R. P. Steele,  E. J. Sundstrom,  
 H. L. Woodcock III,  P. M. Zimmerman,  D. Zuev,  B. Albrecht,  E. Alguire,  
 B. Austin,  S. A. Baeppler,  G. J. O. Beran,  Y. A. Bernard,  E. Berquist,  
 K. Brandhorst,  K. B. Bravaya,  S. T. Brown,  D. Casanova,  C.-M. Chang,  
 Y. Chen,  S. H. Chien,  K. D. Closser,  M. P. Coons,  D. L. Crittenden,  
 S. Dasgupta,  M. Diedenhofen,  R. A. DiStasio Jr.,  H. Do,  A. D. Dutoi,  
 R. G. Edgar,  P.-T. Fang,  S. Fatehi,  Q. Feng,  L. Fusti-Molnar,  
 A. Ghysels,  A. Golubeva-Zadorozhnaya,  J. Gomes,  A. Gunina,  
 M. W. D. Hanson-Heine,  P. H. P. Harbach,  A. W. Hauser,  E. G. Hohenstein,  
 Z. C. Holden,  K. Hui,  T.-C. Jagau,  H. Ji,  B. Kaduk,  K. Khistyaev,  
 Jaehoon Kim,  Jihan Kim,  R. A. King,  P. Klunzinger,  D. Kosenkov,  
 T. Kowalczyk,  C. M. Krauter,  A. Kunitsa,  K. U. Lao,  A. Laurent,  
 K. V. Lawler,  D. Lefrancois,  S. Lehtola,  S. V. Levchenko,  C. Y. Lin,  
 Y.-S. Lin,  F. Liu,  E. Livshits,  R. C. Lochan,  A. Luenser,  P. Manohar,  
 S. F. Manzer,  S.-P. Mao,  Y. Mao,  N. Mardirossian,  A. V. Marenich,  
 L. A. Martinez-Martinez,  S. A. Maurer,  N. J. Mayhall,  J.-M. Mewes,  
 A. F. Morrison,  K. Nanda,  C. M. Oana,  R. Olivares-Amaya,  D. P. O'Neill,  
 J. A. Parkhill,  T. M. Perrine,  R. Peverati,  P. A. Pieniazek,  F. Plasser,  
 A. Prociuk,  D. R. Rehn,  E. Rosta,  N. J. Russ,  N. Sergueev,  
 S. M. Sharada,  S. Sharma,  D. W. Small,  A. Sodt,  T. Stauch,  T. Stein,  
 D. Stuck,  Y.-C. Su,  A. J. W. Thom,  T. Tsuchimochi,  L. Vogt,  O. Vydrov,  
 T. Wang,  M. A. Watson,  J. Wenzel,  A. White,  C. F. Williams,  
 V. Vanovschi,  S. Yeganeh,  S. R. Yost,  Z.-Q. You,  I. Y. Zhang,  X. Zhang,  
 Y. Zhao,  B. R. Brooks,  G. K. L. Chan,  D. M. Chipman,  C. J. Cramer,  
 W. A. Goddard III,  M. S. Gordon,  W. J. Hehre,  A. Klamt,  
 H. F. Schaefer III,  M. W. Schmidt,  C. D. Sherrill,  D. G. Truhlar,  
 A. Warshel,  X. Xu,  A. Aspuru-Guzik,  R. Baer,  A. T. Bell,  N. A. Besley,  
 J.-D. Chai,  A. Dreuw,  B. D. Dunietz,  T. R. Furlani,  S. R. Gwaltney,  
 C.-P. Hsu,  Y. Jung,  J. Kong,  D. S. Lambrecht,  W. Liang,  C. Ochsenfeld,  
 V. A. Rassolov,  L. V. Slipchenko,  J. E. Subotnik,  T. Van Voorhis,  
 J. M. Herbert,  A. I. Krylov,  P. M. W. Gill,  M. Head-Gordon

 Contributors to earlier versions of Q-Chem not listed above: 
 R. D. Adamson,  J. Baker,  E. F. C. Byrd,  A. K. Chakraborty,  C.-L. Cheng,  
 H. Dachsel,  R. J. Doerksen,  G. Hawkins,  A. Heyden,  S. Hirata,  
 G. Kedziora,  F. J. Keil,  C. Kelley,  P. P. Korambath,  W. Kurlancheek,  
 A. M. Lee,  M. S. Lee,  D. Liotard,  I. Lotan,  P. E. Maslen,  N. Nair,  
 D. Neuhauser,  R. Olson,  B. Peters,  J. Ritchie,  N. E. Schultz,  
 N. Shenvi,  A. C. Simmonett,  K. S. Thanthiriwatte,  Q. Wu,  W. Zhang

 Please cite Q-Chem as follows:
 Y. Shao et al., Mol. Phys. 113, 184-215 (2015)
 DOI: 10.1080/00268976.2014.952696

 Q-Chem 4.4.1 for Intel X86 EM64T Linux

 Parts of Q-Chem use Armadillo 5.200.1 (Boston Tea Smuggler).
 http://arma.sourceforge.net/

 Q-Chem begins on Tue Mar  7 05:06:16 2017  

Host: nid01545
0

     Scratch files written to /dev/shm/eg_qchem/qchem59502//
 Parallel job on  1  processors

Checking the input file for inconsistencies... 	...done.

--------------------------------------------------------------
User input:
--------------------------------------------------------------
$molecule
 1  2
 S           1.81042700       -1.22909900       -0.13996800
 C           3.10211600       -0.18861200       -0.13982200
 C           2.74845300        1.15163900       -0.14006900
 C           1.39169900        1.31613900       -0.14029100
 C           0.68906700        0.11310500       -0.14015500
 H           0.90454800        2.27578700       -0.14040700
 C          -0.68906700       -0.11310500       -0.14015500
 S          -1.35522198       -1.54413613        0.61306961
 C          -1.71610363        0.66022392       -0.67694238
 C          -2.89397883       -1.07941729        0.20400064
 C          -2.95736191        0.12109195       -0.48600695
 H          -3.88131414        0.55389612       -0.81945878
 H           4.10439600       -0.57731800       -0.13934700
 H           3.47107900        1.94537000       -0.13983300
 H          -3.73122867       -1.69612075        0.47666770
 H          -1.53901270        1.58954778       -1.19000802
$end


$rem
         jobtype = opt
        exchange = hf
           basis = cc-pvtz
  max_scf_cycles = 100
      mem_static = 6200
       mem_total = 62000
          method = mp2
$end


$opt
CONSTRAINT
tors 4 5 7 9 30.0
ENDCONSTRAINT
$end

--------------------------------------------------------------
 Atom   9: ( -1.5759275390, -0.3325905937, -1.3831641211)
         ->( -1.5759275451, -0.3325905932, -1.3831641170)
 Atom  16: ( -1.2416453074, -0.5866948020, -2.3740863310)
         ->( -1.2416453149, -0.5866947956, -2.3740863334)
 ----------------------------------------------------------------
             Standard Nuclear Orientation (Angstroms)
    I     Atom           X                Y                Z
 ----------------------------------------------------------------
    1      S       1.5999876898    -0.3345911861     1.1083934886
    2      C       3.0349483904    -0.0728944288     0.3187883429
    3      C       2.8907529370     0.2793805159    -1.0140508657
    4      C       1.5759275451     0.3325905932    -1.3831641170
    5      C       0.6978688803     0.0241887974    -0.3463980563
    6      H       1.2416453149     0.5866947956    -2.3740863334
    7      C      -0.6978688797    -0.0241887962    -0.3463980572
    8      S      -1.5999876936     0.3345911849     1.1083934867
    9      C      -1.5759275451    -0.3325905932    -1.3831641170
   10      C      -3.0349483872     0.0728944321     0.3187883428
   11      C      -2.8907529382    -0.2793805153    -1.0140508667
   12      H      -3.7259122617    -0.4811670562    -1.6574701639
   13      H       3.9653577102    -0.1816319368     0.8462088872
   14      H       3.7259122601     0.4811670549    -1.6574701611
   15      H      -3.9653577071     0.1816319379     0.8462088865
   16      H      -1.2416453149    -0.5866947956    -2.3740863334
 ----------------------------------------------------------------
 Molecular Point Group                 C2    NOp =  2
 Largest Abelian Subgroup              C2    NOp =  2
 Nuclear Repulsion Energy =   643.1465558085 hartrees
 There are       43 alpha and       42 beta electrons
 Requested basis set is cc-pVTZ
 There are 140 shells and 392 basis functions

 Total QAlloc Memory Limit  62000 MB
 Mega-Array Size      6061 MB
 MEM_STATIC part      6200 MB
 A cutoff of  1.0D-11 yielded   8070 shell pairs
 There are     62758 function pairs (     81792 Cartesian)
 
 -------------------------------------------------------
 OpenMP Integral Computing Module                       
 Release: version 1.0, May 2013, Q-Chem Inc. Pittsburgh 
 -------------------------------------------------------
 Integral Job Info:
 Integral job number is                      11
 Integral operator is                         1
 short-range coefficients                     0
 long-range coefficients              100000000
 Omega coefficients                           0
 if combine SR and LR in K                    0
 Integral screening is                        0
 Integral computing path is                   2
 max size of driver memory is            800000
 size of driver memory is                776718
 size of scratch memory is             26248924
 max col of scratch BK array              10000
 max len of scratch array in speh3          662
 max len of scratch index in speh4           32
 max int batch size is                      520
 min int batch size is                       52
 fixed nKL is                                52
 max L of basis functions is                  3
 order of int derivative is                   0
 number of shells is                        140
 number of basis is                         448
 number of cartesian basis is               448
 number of contracted shell pairs          8070
 number of primitive shell pairs          28646
 maxK2 (contraction) of shell pair          121
 max number of K2 of shell pair               1
 max number of CS2 of shell pair           1060
 max number of PS2 of shell pair           3150
 mem total for path MDJ                  223748
 -------------------------------------------------------
 Smallest overlap matrix eigenvalue = 5.94E-05

 Scale SEOQF with 1.000000e-01/1.000000e+00/1.000000e-01

 Standard Electronic Orientation quadrupole field applied
 Nucleus-field energy     =     0.0000000088 hartrees
 Guess from superposition of atomic densities
 Warning:  Energy on first SCF cycle will be non-variational
 An unrestricted Hartree-Fock SCF calculation will be
 performed using Pulay DIIS extrapolation
 SCF converges when DIIS error is below 1.0E-08
 using 16 threads for integral computing 
 ---------------------------------------
  Cycle       Energy         DIIS Error
 ---------------------------------------
    1   -1106.2736891672      3.04E-02
    2   -1094.3135437936      1.46E-02
    3   -1101.0308806609      3.65E-03
    4   -1101.2736655292      1.82E-03
    5   -1101.3414658190      4.46E-04
    6   -1101.3486183145      1.84E-04
    7   -1101.3517517215      6.04E-05
    8   -1101.3537062942      4.35E-05
    9   -1101.3556483125      3.21E-05
   10   -1101.3575844345      2.56E-05
   11   -1101.3584745657      2.25E-05
   12   -1101.3597711521      1.60E-05
   13   -1101.3600434518      6.59E-06
   14   -1101.3601045248      2.45E-06
   15   -1101.3601067513      1.23E-06
   16   -1101.3601082891      6.41E-07
   17   -1101.3601087265      2.37E-07
   18   -1101.3601087802      8.95E-08
   19   -1101.3601087920      3.65E-08
   20   -1101.3601087943      1.99E-08
   21   -1101.3601087963      1.27E-08
   22   -1101.3601087960      6.98E-09 Convergence criterion met
 ---------------------------------------
 <S^2> = 1.0414
 SCF time:  CPU 1010.40 s  wall 63.22 s
 SCF   energy in the final basis set = -1101.3601087960
 Total energy in the final basis set = -1101.3601087960
 
 Components of the MP2 correlation energy:
        aaaa  correlation energy =        -0.2340417566 au
        abab  correlation energy =        -1.2997442253 au
        bbbb  correlation energy =        -0.2108119171 au
        non-Brillouin singles    =        -0.0000000000 au

 Total  MP2   correlation energy =        -1.7445978989 au
        MP2         total energy =     -1103.1047066949 au

  Entering Z-vector solver.
   1         0           1      0.000541    0.000541
   2         0           1      0.000481    0.000481
   3         0           1      0.000305    0.000305
   4         0           1      0.000225    0.000225
   5         0           1      0.000103    0.000103
   6         0           1      0.000054    0.000054
   7         0           1      0.000032    0.000032
   8         0           1      0.000019    0.000019
   9         0           1      0.000008    0.000008
  10         0           1      0.000004    0.000004
  11         0           1      0.000001    0.000001
  12         1           0      0.000000    0.000000    Roots Converged
 Warning:  Cannot save MP2 spin density
 
 --------------------------------------------------------------
             Orbital Energies (a.u.) and Symmetries
 --------------------------------------------------------------
 Warning : Irrep of orbital(   1) could not be determined
 Warning : Irrep of orbital(   2) could not be determined
 
 Alpha MOs, Unrestricted
 -- Occupied --                  
-92.160 -92.160 -11.475 -11.474 -11.452 -11.452 -11.433 -11.433
  0 xxx   0 xxx   1 A     1 B     2 B     2 A     3 B     3 A                  
-11.404 -11.404  -9.162  -9.162  -6.843  -6.843  -6.842  -6.842
  4 A     4 B     5 B     5 A     6 B     6 A     7 A     7 B                  
 -6.840  -6.840  -1.395  -1.364  -1.232  -1.192  -1.184  -1.128
  8 A     8 B     9 A     9 B    10 A    11 A    10 B    11 B                  
 -1.001  -0.960  -0.927  -0.905  -0.891  -0.821  -0.754  -0.751
 12 A    13 A    12 B    13 B    14 A    14 B    15 A    15 B                  
 -0.749  -0.737  -0.732  -0.709  -0.693  -0.667  -0.645  -0.577
 16 A    16 B    17 A    18 A    17 B    19 A    18 B    19 B                  
 -0.536  -0.524  -0.478
 20 A    20 B    21 A                                                          
 -- Virtual --                   
 -0.122  -0.036  -0.008   0.013   0.014   0.022   0.039   0.046
 21 B    22 A    23 A    24 A    22 B    23 B    25 A    24 B                  
  0.049   0.065   0.071   0.080   0.110   0.133   0.148   0.195
 26 A    25 B    27 A    28 A    26 B    27 B    29 A    30 A                  
  0.196   0.201   0.203   0.222   0.231   0.238   0.261   0.266
 28 B    31 A    29 B    32 A    30 B    31 B    32 B    33 A                  
  0.283   0.284   0.299   0.303   0.312   0.320   0.341   0.351
 34 A    33 B    35 A    34 B    35 B    36 A    36 B    37 A                  
  0.364   0.367   0.377   0.383   0.385   0.394   0.395   0.400
 37 B    38 A    39 A    38 B    40 A    41 A    39 B    40 B                  
  0.418   0.427   0.435   0.444   0.451   0.455   0.463   0.463
 42 A    41 B    43 A    42 B    44 A    43 B    45 A    44 B                  
  0.471   0.479   0.503   0.512   0.513   0.532   0.566   0.571
 46 A    45 B    47 A    46 B    48 A    47 B    49 A    48 B                  
  0.572   0.585   0.616   0.627   0.638   0.651   0.675   0.692
 50 A    49 B    51 A    50 B    51 B    52 A    53 A    54 A                  
  0.693   0.710   0.728   0.731   0.756   0.758   0.783   0.788
 52 B    53 B    55 A    54 B    56 A    55 B    56 B    57 A                  
  0.814   0.826   0.834   0.851   0.877   0.895   0.899   0.911
 57 B    58 A    58 B    59 A    59 B    60 B    60 A    61 B                  
  0.914   0.918   0.940   0.944   0.974   0.994   1.004   1.007
 61 A    62 A    63 A    62 B    63 B    64 A    65 A    64 B                  
  1.034   1.035   1.056   1.057   1.071   1.093   1.098   1.115
 65 B    66 A    67 A    66 B    67 B    68 A    68 B    69 B                  
  1.130   1.148   1.149   1.183   1.220   1.225   1.251   1.254
 69 A    70 A    70 B    71 A    72 A    71 B    73 A    72 B                  
  1.289   1.302   1.307   1.316   1.339   1.342   1.355   1.365
 73 B    74 A    74 B    75 A    75 B    76 A    77 A    76 B                  
  1.379   1.384   1.404   1.405   1.430   1.431   1.470   1.476
 78 A    77 B    78 B    79 A    79 B    80 A    80 B    81 A                  
  1.497   1.497   1.536   1.562   1.572   1.592   1.618   1.649
 82 A    81 B    82 B    83 A    83 B    84 A    84 B    85 A                  
  1.669   1.690   1.703   1.719   1.723   1.758   1.768   1.790
 85 B    86 B    86 A    87 A    87 B    88 A    88 B    89 A                  
  1.790   1.798   1.891   1.917   1.917   1.934   1.955   1.989
 89 B    90 A    90 B    91 A    91 B    92 A    92 B    93 A                  
  2.007   2.029   2.029   2.036   2.066   2.069   2.077   2.100
 93 B    94 A    94 B    95 A    95 B    96 B    96 A    97 B                  
  2.108   2.126   2.147   2.225   2.241   2.270   2.274   2.295
 97 A    98 A    98 B    99 A    99 B   100 A   100 B   101 A                  
  2.314   2.317   2.331   2.359   2.371   2.377   2.388   2.416
102 A   101 B   102 B   103 A   104 A   103 B   104 B   105 A                  
  2.445   2.477   2.482   2.494   2.537   2.548   2.577   2.577
105 B   106 B   106 A   107 A   108 A   107 B   108 B   109 A                  
  2.588   2.589   2.620   2.624   2.637   2.697   2.708   2.722
110 A   109 B   110 B   111 A   111 B   112 A   112 B   113 A                  
  2.735   2.748   2.769   2.783   2.817   2.821   2.839   2.850
113 B   114 A   114 B   115 A   115 B   116 A   117 A   116 B                  
  2.856   2.857   2.910   2.931   2.981   2.995   3.002   3.005
118 A   117 B   118 B   119 A   119 B   120 A   121 A   120 B                  
  3.025   3.044   3.049   3.055   3.074   3.077   3.080   3.115
121 B   122 B   123 B   122 A   123 A   124 B   124 A   125 B                  
  3.118   3.126   3.139   3.143   3.167   3.182   3.214   3.215
125 A   126 A   126 B   127 A   128 A   127 B   128 B   129 A                  
  3.228   3.235   3.235   3.274   3.274   3.278   3.293   3.295
130 A   129 B   131 A   132 A   130 B   133 A   134 A   131 B                  
  3.319   3.323   3.326   3.334   3.342   3.345   3.355   3.370
132 B   133 B   135 A   134 B   136 A   135 B   137 A   136 B                  
  3.386   3.387   3.404   3.420   3.442   3.447   3.457   3.486
137 B   138 A   138 B   139 A   139 B   140 A   140 B   141 A                  
  3.511   3.513   3.541   3.561   3.569   3.575   3.601   3.618
141 B   142 B   142 A   143 B   143 A   144 A   144 B   145 A                  
  3.631   3.660   3.717   3.719   3.750   3.751   3.765   3.772
146 A   145 B   147 A   146 B   147 B   148 B   148 A   149 B                  
  3.785   3.818   3.827   3.832   3.846   3.870   3.873   3.885
149 A   150 A   151 A   150 B   151 B   152 A   153 A   152 B                  
  3.941   3.944   3.967   3.975   4.001   4.010   4.025   4.026
153 B   154 A   155 A   154 B   156 A   155 B   156 B   157 A                  
  4.037   4.039   4.052   4.054   4.114   4.126   4.135   4.144
157 B   158 A   159 A   158 B   160 A   159 B   160 B   161 A                  
  4.173   4.198   4.252   4.287   4.310   4.325   4.326   4.354
161 B   162 A   162 B   163 A   164 A   165 A   163 B   166 A                  
  4.355   4.401   4.439   4.453   4.473   4.497   4.512   4.535
164 B   165 B   166 B   167 A   168 A   167 B   169 A   168 B                  
  4.549   4.558   4.581   4.604   4.643   4.649   4.695   4.709
170 A   169 B   170 B   171 A   171 B   172 A   173 A   172 B                  
  4.726   4.805   4.812   4.854   4.872   4.893   4.902   4.913
174 A   173 B   174 B   175 A   176 A   175 B   177 A   178 A                  
  4.931   4.989   5.040   5.056   5.082   5.116   5.178   5.198
176 B   177 B   179 A   178 B   179 B   180 A   180 B   181 A                  
  5.229   5.256   5.270   5.298   5.411   5.423   5.467   5.528
182 A   181 B   182 B   183 A   184 A   183 B   184 B   185 A                  
  5.656   5.732   5.866   5.911   5.936   5.973   6.025   6.054
186 A   185 B   187 A   186 B   188 A   187 B   189 A   188 B                  
  6.252   6.363   6.420   6.533   6.680   9.235  10.956  11.708
189 B   190 A   190 B   191 A   191 B   192 A   192 B   193 A                  
 12.711  13.023  13.706  14.505  15.033
193 B   194 A   194 B   195 A   195 B                                          
 Warning : Irrep of orbital(   1) could not be determined
 Warning : Irrep of orbital(   2) could not be determined
 
 Beta MOs, Unrestricted
 -- Occupied --                  
-92.161 -92.161 -11.475 -11.474 -11.439 -11.439 -11.426 -11.426
  0 xxx   0 xxx   1 A     1 B     2 B     2 A     3 B     3 A                  
-11.411 -11.411  -9.164  -9.164  -6.845  -6.845  -6.844  -6.844
  4 B     4 A     5 B     5 A     6 B     6 A     7 B     7 A                  
 -6.843  -6.843  -1.383  -1.349  -1.222  -1.187  -1.175  -1.104
  8 B     8 A     9 A     9 B    10 A    11 A    10 B    11 B                  
 -0.993  -0.952  -0.916  -0.900  -0.888  -0.817  -0.753  -0.742
 12 A    13 A    12 B    13 B    14 A    14 B    15 A    16 A                  
 -0.734  -0.728  -0.722  -0.683  -0.668  -0.661  -0.644  -0.538
 15 B    17 A    16 B    17 B    18 A    19 A    18 B    19 B                  
 -0.533  -0.512
 20 A    20 B                                                                  
 -- Virtual --                   
 -0.183  -0.057  -0.020   0.009   0.017   0.024   0.030   0.043
 21 A    21 B    22 A    23 A    24 A    22 B    23 B    25 A                  
  0.048   0.062   0.067   0.072   0.093   0.113   0.136   0.150
 24 B    26 A    25 B    27 A    28 A    26 B    27 B    29 A                  
  0.198   0.199   0.205   0.209   0.222   0.232   0.239   0.271
 30 A    28 B    31 A    29 B    32 A    30 B    31 B    32 B                  
  0.274   0.286   0.294   0.302   0.312   0.316   0.319   0.335
 33 A    34 A    33 B    35 A    34 B    35 B    36 A    36 B                  
  0.356   0.374   0.379   0.392   0.393   0.396   0.405   0.410
 37 A    38 A    37 B    38 B    39 A    40 A    39 B    41 A                  
  0.413   0.425   0.428   0.440   0.446   0.455   0.461   0.467
 40 B    42 A    41 B    43 A    42 B    44 A    43 B    44 B                  
  0.469   0.476   0.485   0.508   0.516   0.517   0.537   0.570
 45 A    46 A    45 B    47 A    46 B    48 A    47 B    49 A                  
  0.573   0.574   0.590   0.617   0.629   0.640   0.653   0.678
 50 A    48 B    49 B    51 A    50 B    51 B    52 A    53 A                  
  0.696   0.697   0.716   0.734   0.737   0.759   0.761   0.790
 52 B    54 A    53 B    55 A    54 B    56 A    55 B    56 B                  
  0.792   0.817   0.830   0.836   0.853   0.879   0.897   0.899
 57 A    57 B    58 A    58 B    59 A    59 B    60 B    60 A                  
  0.915   0.919   0.923   0.949   0.950   0.976   0.996   1.007
 61 B    61 A    62 A    62 B    63 A    63 B    64 A    65 A                  
  1.011   1.038   1.038   1.058   1.060   1.072   1.098   1.102
 64 B    66 A    65 B    67 A    66 B    67 B    68 A    68 B                  
  1.117   1.132   1.155   1.155   1.186   1.227   1.234   1.256
 69 B    69 A    70 A    70 B    71 A    72 A    71 B    72 B                  
  1.260   1.294   1.308   1.312   1.320   1.343   1.346   1.356
 73 A    73 B    74 A    74 B    75 A    75 B    76 A    77 A                  
  1.371   1.383   1.385   1.406   1.407   1.432   1.434   1.476
 76 B    78 A    77 B    79 A    78 B    79 B    80 A    80 B                  
  1.479   1.500   1.500   1.537   1.565   1.575   1.594   1.621
 81 A    81 B    82 A    82 B    83 A    83 B    84 A    84 B                  
  1.652   1.669   1.689   1.703   1.719   1.727   1.761   1.769
 85 A    85 B    86 B    86 A    87 A    87 B    88 A    88 B                  
  1.790   1.791   1.799   1.891   1.916   1.918   1.937   1.956
 89 B    89 A    90 A    90 B    91 A    91 B    92 A    92 B                  
  1.988   2.006   2.029   2.030   2.037   2.065   2.070   2.077
 93 A    93 B    94 A    94 B    95 A    95 B    96 B    96 A                  
  2.116   2.121   2.132   2.148   2.225   2.252   2.268   2.275
 97 B    97 A    98 A    98 B    99 A    99 B   100 A   100 B                  
  2.300   2.315   2.318   2.335   2.362   2.388   2.390   2.393
101 A   102 A   101 B   102 B   103 A   103 B   104 A   104 B                  
  2.422   2.451   2.481   2.487   2.495   2.538   2.550   2.583
105 A   105 B   106 B   106 A   107 A   108 A   107 B   108 B                  
  2.584   2.596   2.597   2.626   2.631   2.640   2.702   2.716
109 A   110 A   109 B   110 B   111 A   111 B   112 A   112 B                  
  2.730   2.739   2.753   2.779   2.786   2.820   2.824   2.847
113 A   113 B   114 A   114 B   115 A   115 B   116 A   117 A                  
  2.856   2.861   2.865   2.913   2.936   2.988   2.994   3.007
116 B   117 B   118 A   118 B   119 A   119 B   120 A   121 A                  
  3.014   3.028   3.044   3.054   3.061   3.078   3.085   3.087
120 B   121 B   122 B   123 B   122 A   123 A   124 B   124 A                  
  3.120   3.124   3.133   3.147   3.152   3.175   3.188   3.214
125 B   125 A   126 A   126 B   127 A   128 A   127 B   128 B                  
  3.217   3.230   3.237   3.242   3.274   3.281   3.286   3.297
129 A   130 A   129 B   131 A   132 A   130 B   133 A   134 A                  
  3.298   3.321   3.334   3.337   3.344   3.347   3.351   3.363
131 B   132 B   135 A   133 B   134 B   135 B   136 A   137 A                  
  3.375   3.387   3.391   3.411   3.423   3.444   3.450   3.461
136 B   137 B   138 A   138 B   139 A   139 B   140 A   140 B                  
  3.489   3.514   3.518   3.547   3.566   3.571   3.577   3.608
141 A   141 B   142 B   142 A   143 B   143 A   144 A   144 B                  
  3.622   3.636   3.662   3.721   3.724   3.753   3.755   3.765
145 A   146 A   145 B   146 B   147 A   147 B   148 B   148 A                  
  3.774   3.787   3.820   3.829   3.836   3.851   3.873   3.876
149 B   149 A   150 A   151 A   150 B   151 B   152 A   153 A                  
  3.887   3.944   3.945   3.970   3.978   4.003   4.012   4.027
152 B   153 B   154 A   155 A   154 B   156 A   155 B   157 A                  
  4.028   4.039   4.041   4.053   4.055   4.115   4.128   4.135
156 B   157 B   158 A   159 A   158 B   160 A   159 B   160 B                  
  4.145   4.175   4.199   4.252   4.288   4.311   4.326   4.328
161 A   161 B   162 A   162 B   163 A   164 A   165 A   163 B                  
  4.355   4.357   4.403   4.443   4.457   4.475   4.498   4.514
166 A   164 B   165 B   166 B   167 A   168 A   167 B   169 A                  
  4.536   4.553   4.561   4.582   4.605   4.644   4.649   4.697
168 B   170 A   169 B   170 B   171 A   171 B   172 A   173 A                  
  4.710   4.728   4.808   4.815   4.855   4.876   4.894   4.903
172 B   174 A   173 B   174 B   175 A   176 A   175 B   177 A                  
  4.914   4.933   4.989   5.041   5.057   5.089   5.122   5.179
178 A   176 B   177 B   179 A   178 B   179 B   180 A   180 B                  
  5.200   5.230   5.256   5.271   5.298   5.412   5.424   5.468
181 A   182 A   181 B   182 B   183 A   184 A   183 B   184 B                  
  5.529   5.656   5.733   5.866   5.911   5.937   5.974   6.025
185 A   186 A   185 B   187 A   186 B   188 A   187 B   189 A                  
  6.055   6.252   6.364   6.421   6.533   6.680   9.237  10.960
188 B   189 B   190 A   190 B   191 A   191 B   192 A   192 B                  
 11.711  12.715  13.028  13.705  14.506  15.036
193 A   193 B   194 A   194 B   195 A   195 B                                  
 --------------------------------------------------------------
 
          Ground-State Mulliken Net Atomic Charges

     Atom                 Charge (a.u.)    Spin (a.u.)
  --------------------------------------------------------
      1 S                     0.250332      -0.024438
      2 C                    -0.114711      -0.002084
      3 C                    -0.163800       0.407821
      4 C                    -0.127257      -0.212013
      5 C                    -0.021470       0.332117
      6 H                     0.211175       0.019893
      7 C                    -0.021471       0.332117
      8 S                     0.250331      -0.024438
      9 C                    -0.127253      -0.212013
     10 C                    -0.114710      -0.002083
     11 C                    -0.163801       0.407822
     12 H                     0.224432      -0.032539
     13 H                     0.241298       0.011241
     14 H                     0.224432      -0.032539
     15 H                     0.241297       0.011241
     16 H                     0.211175       0.019893
  --------------------------------------------------------
  Sum of atomic charges =     1.000000
  Sum of spin   charges =     1.000000

 -----------------------------------------------------------------
                    Cartesian Multipole Moments
 -----------------------------------------------------------------
    Charge (ESU x 10^10)
                 4.8032
    Dipole Moment (Debye)
         X       0.0000      Y       0.0000      Z      -0.9410
       Tot       0.9410
    Quadrupole Moments (Debye-Ang)
        XX     -22.3442     XY       0.6799     YY     -72.3062
        XZ       0.0000     YZ       0.0000     ZZ     -56.5649
    Octopole Moments (Debye-Ang^2)
       XXX       0.0000    XXY       0.0000    XYY       0.0000
       YYY       0.0000    XXZ       2.8916    XYZ     -10.3182
       YYZ       2.9734    XZZ       0.0000    YZZ       0.0000
       ZZZ     -11.3538
    Hexadecapole Moments (Debye-Ang^3)
      XXXX   -1253.9444   XXXY       6.1839   XXYY    -358.3110
      XYYY      -5.5314   YYYY    -120.0011   XXXZ       0.0000
      XXYZ       0.0000   XYYZ       0.0000   YYYZ       0.0000
      XXZZ    -322.4218   XYZZ      10.0822   YYZZ    -106.0024
      XZZZ       0.0000   YZZZ       0.0000   ZZZZ    -461.6931
 -----------------------------------------------------------------
 DrvMan is completing analytic gradient of the MP2 energy
 MP2 relaxed dipole moment
            1
    1   0.0000000
    2   0.0000000
    3  -0.3702239
	Magnitude:	 0.370 au	 0.941 Debye
 MP2 energy read as -1103.104707
 Full Analytical Gradient of MP2 Energy (in au.)
             1             2             3             4             5
    1   -0.00104042   -0.00026816   -0.00026494    0.00080901   -0.00563416
    2   -0.00374550   -0.00157225   -0.00004409    0.00668533   -0.00160241
    3   -0.00002998    0.00016309   -0.00181538    0.00307734   -0.00080720
             6             7             8             9            10
    1    0.00068497    0.00563416    0.00104042   -0.00080901    0.00026816
    2   -0.00069830    0.00160242    0.00374550   -0.00668534    0.00157226
    3   -0.00081697   -0.00080720   -0.00002998    0.00307734    0.00016309
            11            12            13            14            15
    1    0.00026493   -0.00003807   -0.00019711    0.00003807    0.00019711
    2    0.00004409    0.00082545    0.00158399   -0.00082545   -0.00158399
    3   -0.00181538   -0.00025344    0.00048254   -0.00025344    0.00048254
            16
    1   -0.00068497
    2    0.00069830
    3   -0.00081697
 Gradient time:  CPU 1.49 s  wall 0.10 s
 Geometry Optimization Parameters
   NAtoms,    NIC,     NZ,  NCons,   NDum,   NFix, NCnnct, MaxDiis
       16     111       0       1       0       0       0       0


** CONSTRAINED OPTIMIZATION IN DELOCALIZED INTERNAL COORDINATES **
   Searching for a Minimum

   Optimization Cycle:   1

                       Coordinates (Angstroms)
     ATOM                X               Y               Z
      1  S         1.5999876917   -0.3345911855    1.1083934877
      2  C         3.0349483888   -0.0728944304    0.3187883429
      3  C         2.8907529376    0.2793805156   -1.0140508662
      4  C         1.5759275451    0.3325905932   -1.3831641170
      5  C         0.6978688800    0.0241887968   -0.3463980567
      6  H         1.2416453149    0.5866947956   -2.3740863334
      7  C        -0.6978688800   -0.0241887968   -0.3463980567
      8  S        -1.5999876917    0.3345911855    1.1083934877
      9  C        -1.5759275451   -0.3325905932   -1.3831641170
     10  C        -3.0349483888    0.0728944304    0.3187883429
     11  C        -2.8907529376   -0.2793805156   -1.0140508662
     12  H        -3.7259122609   -0.4811670556   -1.6574701625
     13  H         3.9653577087   -0.1816319374    0.8462088869
     14  H         3.7259122609    0.4811670556   -1.6574701625
     15  H        -3.9653577087    0.1816319374    0.8462088869
     16  H        -1.2416453149   -0.5866947956   -2.3740863334
   Point Group: c2    Number of degrees of freedom:    22


   Energy is  -1103.104706695

              Constraints and their Current Values
                                        Value     Constraint
   Dihedral:        4   5   7   9       30.000       30.000

 Attempting to Generate Delocalized Internal Coordinates

 21 Hessian modes will be used to form the next step
  Hessian Eigenvalues:
     0.045000    0.045000    0.045000    0.045000    0.045000    0.045000
     0.160000    0.160000    0.160000    0.221335    0.237679    0.250000
     0.299411    0.364554    0.366034    0.368031    0.392996    0.445237
     0.461927    0.467905    0.501257

 Minimum Search - Taking Simple RFO Step
 Searching for Lamda that Minimizes Along All modes
 Value Taken    Lamda =  -0.00119624
 Step Taken.  Stepsize is  0.143208

                             Maximum     Tolerance    Cnvgd?
         Gradient           0.005752      0.000300      NO
         Displacement       0.071241      0.001200      NO
         Energy change     *********      0.000001      NO


 New Cartesian Coordinates Obtained by Inverse Iteration

 Displacement from previous Coordinates is:  0.198752
 ----------------------------------------------------------------
             Standard Nuclear Orientation (Angstroms)
    I     Atom           X                Y                Z
 ----------------------------------------------------------------
    1      S       1.6173992395    -0.3011828574     1.1232574036
    2      C       3.0462254069    -0.0617811640     0.3160086879
    3      C       2.8885753395     0.2702260992    -1.0193436369
    4      C       1.5703570456     0.3061606985    -1.3814188309
    5      C       0.7015531407     0.0113859520    -0.3340657288
    6      H       1.2224675317     0.5526725632    -2.3689806938
    7      C      -0.7015531407    -0.0113859520    -0.3340657288
    8      S      -1.6173992395     0.3011828574     1.1232574036
    9      C      -1.5703570456    -0.3061606985    -1.3814188309
   10      C      -3.0462254069     0.0617811640     0.3160086879
   11      C      -2.8885753395    -0.2702260992    -1.0193436369
   12      H      -3.7174356421    -0.4711994495    -1.6710461402
   13      H       3.9821165576    -0.1710466417     0.8338101206
   14      H       3.7174356421     0.4711994495    -1.6710461402
   15      H      -3.9821165576     0.1710466417     0.8338101206
   16      H      -1.2224675317    -0.5526725632    -2.3689806938
 ----------------------------------------------------------------
 Molecular Point Group                 C2    NOp =  2
 Largest Abelian Subgroup              C2    NOp =  2
 Nuclear Repulsion Energy =   642.3722745630 hartrees
 There are       43 alpha and       42 beta electrons
 Applying Cartesian multipole field
    Component          Value
    ---------          -----
     (2,0,0)        1.00000E-11
     (0,2,0)        2.00000E-10
     (0,0,2)       -3.00000E-11
 Nucleus-field energy     =     0.0000000080 hartrees
 Requested basis set is cc-pVTZ
 There are 140 shells and 392 basis functions
 A cutoff of  1.0D-11 yielded   8060 shell pairs
 There are     62592 function pairs (     81576 Cartesian)
 Smallest overlap matrix eigenvalue = 6.23E-05
 Guess MOs from SCF MO coefficient file
 Reading MOs from coefficient file
 Reading MOs from coefficient file
 An unrestricted Hartree-Fock SCF calculation will be
 performed using Pulay DIIS extrapolation
 SCF converges when DIIS error is below 1.0E-08
 Geometry optimization detected.  Setting ReadMinima to 0
 Setting SaveMinima to 0
 using 16 threads for integral computing 
 ---------------------------------------
  Cycle       Energy         DIIS Error
 ---------------------------------------
    1   -1101.3547617629      4.76E-04
    2   -1101.3616955508      5.72E-05
    3   -1101.3618479079      2.25E-05
    4   -1101.3618710439      1.26E-05
    5   -1101.3618769603      3.78E-06
    6   -1101.3618778689      1.24E-06
    7   -1101.3618781170      5.56E-07
    8   -1101.3618781826      2.47E-07
    9   -1101.3618782194      1.56E-07
   10   -1101.3618782387      1.17E-07
   11   -1101.3618782559      7.58E-08
   12   -1101.3618782655      4.36E-08
   13   -1101.3618782693      2.14E-08
   14   -1101.3618782701      1.23E-08
   15   -1101.3618782703      6.19E-09 Convergence criterion met
 ---------------------------------------
 <S^2> = 1.0416
 SCF time:  CPU 1106.43 s  wall 69.20 s
 SCF   energy in the final basis set = -1101.3618782703
 Total energy in the final basis set = -1101.3618782703
 
 Components of the MP2 correlation energy:
        aaaa  correlation energy =        -0.2338692934 au
        abab  correlation energy =        -1.2993207151 au
        bbbb  correlation energy =        -0.2107171755 au
        non-Brillouin singles    =        -0.0000000000 au

 Total  MP2   correlation energy =        -1.7439071839 au
        MP2         total energy =     -1103.1057854542 au

  Entering Z-vector solver.
   1         0           1      0.000540    0.000540
   2         0           1      0.000479    0.000479
   3         0           1      0.000302    0.000302
   4         0           1      0.000221    0.000221
   5         0           1      0.000101    0.000101
   6         0           1      0.000053    0.000053
   7         0           1      0.000031    0.000031
   8         0           1      0.000018    0.000018
   9         0           1      0.000008    0.000008
  10         0           1      0.000003    0.000003
  11         0           1      0.000001    0.000001
  12         1           0      0.000000    0.000000    Roots Converged
 Warning:  Cannot save MP2 spin density
 
 --------------------------------------------------------------
             Orbital Energies (a.u.) and Symmetries
 --------------------------------------------------------------
 
 Alpha MOs, Unrestricted
 -- Occupied --                  
-92.160 -92.160 -11.476 -11.475 -11.452 -11.452 -11.434 -11.434
  1 A     1 B     2 A     2 B     3 B     3 A     4 B     4 A                  
-11.404 -11.404  -9.162  -9.162  -6.843  -6.843  -6.842  -6.842
  5 A     5 B     6 B     6 A     7 B     7 A     8 A     8 B                  
 -6.840  -6.840  -1.394  -1.364  -1.232  -1.192  -1.184  -1.129
  9 A     9 B    10 A    10 B    11 A    12 A    11 B    12 B                  
 -1.000  -0.961  -0.927  -0.905  -0.891  -0.822  -0.753  -0.752
 13 A    14 A    13 B    14 B    15 A    15 B    16 A    16 B                  
 -0.749  -0.737  -0.732  -0.710  -0.693  -0.667  -0.644  -0.579
 17 A    17 B    18 A    19 A    18 B    20 A    19 B    20 B                  
 -0.536  -0.524  -0.478
 21 A    21 B    22 A                                                          
 -- Virtual --                   
 -0.123  -0.034  -0.008   0.013   0.015   0.022   0.040   0.045
 22 B    23 A    24 A    25 A    23 B    24 B    26 A    25 B                  
  0.050   0.065   0.070   0.078   0.111   0.135   0.147   0.195
 27 A    26 B    28 A    29 A    27 B    28 B    30 A    31 A                  
  0.196   0.200   0.206   0.222   0.228   0.239   0.261   0.265
 29 B    32 A    30 B    33 A    31 B    32 B    33 B    34 A                  
  0.283   0.284   0.301   0.302   0.313   0.320   0.342   0.350
 35 A    34 B    36 A    35 B    36 B    37 A    37 B    38 A                  
  0.364   0.367   0.379   0.382   0.383   0.395   0.396   0.402
 38 B    39 A    40 A    39 B    41 A    42 A    40 B    41 B                  
  0.417   0.425   0.437   0.444   0.452   0.455   0.463   0.463
 43 A    42 B    44 A    43 B    45 A    44 B    45 B    46 A                  
  0.472   0.480   0.501   0.512   0.513   0.531   0.568   0.569
 47 A    46 B    48 A    47 B    49 A    48 B    50 A    49 B                  
  0.572   0.587   0.615   0.628   0.643   0.650   0.675   0.691
 51 A    50 B    52 A    51 B    52 B    53 A    54 A    55 A                  
  0.692   0.712   0.726   0.733   0.755   0.759   0.779   0.784
 53 B    54 B    56 A    55 B    57 A    56 B    57 B    58 A                  
  0.815   0.826   0.830   0.850   0.878   0.901   0.903   0.913
 58 B    59 A    59 B    60 A    60 B    61 A    61 B    62 A                  
  0.915   0.917   0.941   0.941   0.972   0.994   1.001   1.002
 62 B    63 A    63 B    64 A    64 B    65 A    66 A    65 B                  
  1.032   1.037   1.055   1.056   1.074   1.094   1.095   1.116
 66 B    67 A    67 B    68 A    68 B    69 A    69 B    70 B                  
  1.127   1.147   1.147   1.177   1.214   1.224   1.249   1.258
 70 A    71 B    71 A    72 A    73 A    72 B    74 A    73 B                  
  1.289   1.297   1.311   1.311   1.342   1.344   1.354   1.365
 74 B    75 A    76 A    75 B    77 A    76 B    78 A    77 B                  
  1.383   1.385   1.403   1.404   1.430   1.432   1.470   1.475
 79 A    78 B    79 B    80 A    81 A    80 B    81 B    82 A                  
  1.493   1.495   1.535   1.561   1.575   1.592   1.634   1.647
 83 A    82 B    83 B    84 A    84 B    85 A    85 B    86 A                  
  1.672   1.691   1.700   1.718   1.719   1.757   1.760   1.788
 86 B    87 B    87 A    88 B    88 A    89 A    89 B    90 B                  
  1.794   1.798   1.894   1.912   1.913   1.938   1.948   1.987
 90 A    91 A    91 B    92 A    92 B    93 A    93 B    94 A                  
  2.004   2.024   2.032   2.036   2.065   2.071   2.074   2.100
 94 B    95 A    95 B    96 A    96 B    97 B    97 A    98 B                  
  2.107   2.124   2.143   2.231   2.235   2.266   2.275   2.300
 98 A    99 A    99 B   100 A   100 B   101 A   101 B   102 A                  
  2.314   2.316   2.328   2.357   2.371   2.374   2.395   2.413
103 A   102 B   103 B   104 A   105 A   104 B   105 B   106 A                  
  2.446   2.483   2.484   2.494   2.534   2.553   2.575   2.576
106 B   107 A   107 B   108 A   109 A   108 B   109 B   110 A                  
  2.587   2.591   2.623   2.623   2.636   2.698   2.710   2.720
111 A   110 B   111 B   112 A   112 B   113 A   113 B   114 A                  
  2.730   2.748   2.766   2.779   2.815   2.821   2.838   2.853
114 B   115 A   115 B   116 A   116 B   117 A   118 A   117 B                  
  2.856   2.860   2.916   2.924   2.980   2.990   2.997   3.005
119 A   118 B   119 B   120 A   120 B   121 A   122 A   121 B                  
  3.028   3.046   3.052   3.056   3.070   3.074   3.079   3.116
122 B   123 B   123 A   124 B   124 A   125 B   125 A   126 B                  
  3.120   3.126   3.136   3.138   3.169   3.180   3.210   3.216
126 A   127 A   127 B   128 A   129 A   128 B   130 A   129 B                  
  3.229   3.237   3.240   3.272   3.272   3.277   3.292   3.296
131 A   132 A   130 B   131 B   133 A   134 A   135 A   132 B                  
  3.320   3.322   3.328   3.331   3.343   3.347   3.355   3.372
133 B   134 B   136 A   135 B   137 A   136 B   138 A   137 B                  
  3.382   3.386   3.405   3.419   3.436   3.445   3.450   3.488
138 B   139 A   139 B   140 A   140 B   141 A   141 B   142 A                  
  3.511   3.514   3.542   3.558   3.568   3.575   3.604   3.617
142 B   143 B   143 A   144 B   144 A   145 A   145 B   146 A                  
  3.628   3.655   3.717   3.720   3.742   3.750   3.759   3.774
147 A   146 B   148 A   147 B   148 B   149 B   149 A   150 B                  
  3.789   3.817   3.827   3.835   3.845   3.868   3.874   3.885
150 A   151 A   152 A   151 B   152 B   153 A   154 A   153 B                  
  3.940   3.943   3.969   3.976   3.995   4.014   4.023   4.024
155 A   154 B   156 A   155 B   157 A   156 B   158 A   157 B                  
  4.039   4.039   4.049   4.053   4.110   4.131   4.138   4.141
158 B   159 A   160 A   159 B   161 A   160 B   161 B   162 A                  
  4.176   4.199   4.253   4.287   4.314   4.320   4.327   4.351
162 B   163 A   163 B   164 A   165 A   166 A   164 B   167 A                  
  4.356   4.404   4.437   4.451   4.473   4.499   4.510   4.537
165 B   166 B   167 B   168 A   169 A   168 B   170 A   169 B                  
  4.547   4.556   4.584   4.601   4.645   4.653   4.692   4.713
171 A   170 B   171 B   172 A   173 A   172 B   174 A   173 B                  
  4.723   4.808   4.813   4.845   4.865   4.893   4.901   4.912
175 A   174 B   175 B   176 A   177 A   176 B   178 A   179 A                  
  4.932   4.989   5.040   5.051   5.080   5.113   5.178   5.190
177 B   178 B   180 A   179 B   180 B   181 A   181 B   182 A                  
  5.228   5.257   5.268   5.298   5.411   5.425   5.465   5.526
183 A   182 B   183 B   184 A   185 A   184 B   185 B   186 A                  
  5.653   5.732   5.861   5.907   5.935   5.972   6.019   6.060
187 A   186 B   188 A   187 B   189 A   188 B   190 A   189 B                  
  6.271   6.363   6.428   6.529   6.671   9.209  10.941  11.705
190 B   191 A   191 B   192 A   192 B   193 A   193 B   194 A                  
 12.652  13.027  13.696  14.500  15.022
194 B   195 A   195 B   196 A   196 B                                          
 
 Beta MOs, Unrestricted
 -- Occupied --                  
-92.161 -92.161 -11.476 -11.475 -11.439 -11.439 -11.426 -11.426
  1 A     1 B     2 A     2 B     3 B     3 A     4 B     4 A                  
-11.410 -11.410  -9.164  -9.164  -6.845  -6.845  -6.844  -6.844
  5 B     5 A     6 B     6 A     7 B     7 A     8 B     8 A                  
 -6.843  -6.843  -1.383  -1.349  -1.221  -1.187  -1.175  -1.105
  9 B     9 A    10 A    10 B    11 A    12 A    11 B    12 B                  
 -0.992  -0.952  -0.916  -0.900  -0.889  -0.818  -0.752  -0.743
 13 A    14 A    13 B    14 B    15 A    15 B    16 A    17 A                  
 -0.735  -0.729  -0.721  -0.684  -0.668  -0.661  -0.643  -0.538
 16 B    18 A    17 B    18 B    19 A    20 A    19 B    20 B                  
 -0.533  -0.513
 21 A    21 B                                                                  
 -- Virtual --                   
 -0.183  -0.057  -0.020   0.009   0.018   0.024   0.031   0.043
 22 A    22 B    23 A    24 A    25 A    23 B    24 B    26 A                  
  0.047   0.061   0.068   0.072   0.092   0.114   0.138   0.149
 25 B    27 A    26 B    28 A    29 A    27 B    28 B    30 A                  
  0.199   0.199   0.203   0.211   0.222   0.229   0.240   0.270
 31 A    29 B    32 A    30 B    33 A    31 B    32 B    33 B                  
  0.273   0.286   0.293   0.303   0.313   0.317   0.320   0.336
 34 A    35 A    34 B    36 A    35 B    36 B    37 A    37 B                  
  0.356   0.374   0.378   0.391   0.392   0.395   0.407   0.413
 38 A    39 A    38 B    39 B    40 A    41 A    40 B    42 A                  
  0.415   0.425   0.427   0.442   0.446   0.457   0.461   0.467
 41 B    43 A    42 B    44 A    43 B    45 A    44 B    45 B                  
  0.469   0.477   0.485   0.507   0.516   0.517   0.536   0.570
 46 A    47 A    46 B    48 A    49 A    47 B    48 B    50 A                  
  0.572   0.574   0.593   0.617   0.629   0.645   0.651   0.678
 49 B    51 A    50 B    52 A    51 B    52 B    53 A    54 A                  
  0.695   0.696   0.718   0.732   0.739   0.758   0.762   0.786
 53 B    55 A    54 B    56 A    55 B    57 A    56 B    57 B                  
  0.787   0.819   0.829   0.831   0.852   0.881   0.902   0.905
 58 A    58 B    59 A    59 B    60 A    60 B    61 A    61 B                  
  0.917   0.919   0.922   0.946   0.951   0.975   0.997   1.004
 62 A    62 B    63 A    63 B    64 A    64 B    65 A    66 A                  
  1.006   1.037   1.040   1.057   1.058   1.074   1.099   1.099
 65 B    66 B    67 A    67 B    68 A    68 B    69 A    69 B                  
  1.118   1.129   1.153   1.155   1.180   1.221   1.233   1.259
 70 B    70 A    71 B    71 A    72 A    73 A    72 B    74 A                  
  1.260   1.295   1.302   1.315   1.316   1.345   1.348   1.355
 73 B    74 B    75 A    76 A    75 B    77 A    76 B    78 A                  
  1.370   1.386   1.387   1.406   1.406   1.434   1.435   1.477
 77 B    78 B    79 A    80 A    79 B    81 A    80 B    81 B                  
  1.478   1.496   1.497   1.536   1.565   1.578   1.594   1.637
 82 A    83 A    82 B    83 B    84 A    84 B    85 A    85 B                  
  1.649   1.672   1.690   1.699   1.719   1.723   1.760   1.761
 86 A    86 B    87 B    87 A    88 A    88 B    89 A    89 B                  
  1.788   1.795   1.798   1.894   1.912   1.914   1.941   1.949
 90 B    90 A    91 A    91 B    92 A    92 B    93 A    93 B                  
  1.987   2.003   2.025   2.032   2.037   2.065   2.071   2.074
 94 A    94 B    95 A    95 B    96 A    96 B    97 B    97 A                  
  2.116   2.119   2.131   2.145   2.231   2.248   2.266   2.273
 98 B    98 A    99 A    99 B   100 A   100 B   101 A   101 B                  
  2.305   2.317   2.318   2.332   2.360   2.386   2.390   2.398
102 A   103 A   102 B   103 B   104 A   104 B   105 A   105 B                  
  2.419   2.453   2.487   2.488   2.495   2.535   2.555   2.581
106 A   106 B   107 A   107 B   108 A   109 A   108 B   109 B                  
  2.583   2.596   2.597   2.629   2.629   2.640   2.703   2.717
110 A   111 A   110 B   111 B   112 A   112 B   113 A   113 B                  
  2.728   2.734   2.752   2.776   2.781   2.818   2.824   2.846
114 A   114 B   115 A   115 B   116 A   116 B   117 A   118 A                  
  2.861   2.863   2.865   2.919   2.931   2.986   2.991   3.000
117 B   118 B   119 A   119 B   120 A   120 B   121 A   122 A                  
  3.016   3.031   3.046   3.057   3.061   3.075   3.083   3.085
121 B   122 B   123 B   123 A   124 B   124 A   125 B   125 A                  
  3.122   3.123   3.134   3.143   3.148   3.177   3.185   3.213
126 B   126 A   127 A   127 B   128 A   129 A   128 B   130 A                  
  3.216   3.231   3.242   3.243   3.273   3.279   3.285   3.296
129 B   131 A   130 B   132 A   133 A   131 B   134 A   135 A                  
  3.299   3.323   3.333   3.336   3.343   3.350   3.351   3.363
132 B   133 B   134 B   136 A   135 B   136 B   137 A   138 A                  
  3.377   3.383   3.389   3.413   3.422   3.438   3.448   3.454
137 B   138 B   139 A   139 B   140 A   140 B   141 A   141 B                  
  3.490   3.515   3.518   3.548   3.563   3.571   3.578   3.610
142 A   142 B   143 B   143 A   144 B   144 A   145 A   145 B                  
  3.622   3.633   3.657   3.721   3.724   3.746   3.753   3.760
146 A   147 A   146 B   147 B   148 A   148 B   149 B   149 A                  
  3.777   3.791   3.820   3.830   3.839   3.850   3.870   3.877
150 B   150 A   151 A   152 A   151 B   152 B   153 A   154 A                  
  3.887   3.941   3.945   3.972   3.979   3.997   4.015   4.023
153 B   155 A   154 B   156 A   155 B   157 A   156 B   158 A                  
  4.027   4.041   4.041   4.050   4.054   4.111   4.133   4.139
157 B   158 B   159 A   160 A   159 B   161 A   160 B   161 B                  
  4.142   4.178   4.201   4.253   4.288   4.315   4.321   4.329
162 A   162 B   163 A   163 B   164 A   165 A   166 A   164 B                  
  4.352   4.357   4.406   4.442   4.455   4.476   4.499   4.511
167 A   165 B   166 B   167 B   168 A   169 A   168 B   170 A                  
  4.538   4.550   4.559   4.585   4.602   4.645   4.654   4.693
169 B   171 A   170 B   171 B   172 A   173 A   172 B   174 A                  
  4.714   4.726   4.812   4.815   4.846   4.869   4.894   4.902
173 B   175 A   174 B   175 B   176 A   177 A   176 B   178 A                  
  4.914   4.934   4.990   5.041   5.052   5.087   5.119   5.179
179 A   177 B   178 B   180 A   179 B   180 B   181 A   181 B                  
  5.192   5.229   5.258   5.269   5.298   5.412   5.426   5.467
182 A   183 A   182 B   183 B   184 A   185 A   184 B   185 B                  
  5.527   5.654   5.733   5.861   5.908   5.936   5.972   6.019
186 A   187 A   186 B   188 A   187 B   189 A   188 B   190 A                  
  6.061   6.271   6.364   6.429   6.530   6.672   9.211  10.945
189 B   190 B   191 A   191 B   192 A   192 B   193 A   193 B                  
 11.708  12.656  13.032  13.696  14.501  15.024
194 A   194 B   195 A   195 B   196 A   196 B                                  
 --------------------------------------------------------------
 
          Ground-State Mulliken Net Atomic Charges

     Atom                 Charge (a.u.)    Spin (a.u.)
  --------------------------------------------------------
      1 S                     0.247616      -0.026769
      2 C                    -0.112466       0.002177
      3 C                    -0.167358       0.401148
      4 C                    -0.121768      -0.204206
      5 C                    -0.023566       0.329509
      6 H                     0.211279       0.019437
      7 C                    -0.023566       0.329509
      8 S                     0.247616      -0.026769
      9 C                    -0.121768      -0.204206
     10 C                    -0.112466       0.002177
     11 C                    -0.167358       0.401148
     12 H                     0.224482      -0.032142
     13 H                     0.241781       0.010847
     14 H                     0.224482      -0.032142
     15 H                     0.241781       0.010847
     16 H                     0.211279       0.019437
  --------------------------------------------------------
  Sum of atomic charges =     1.000000
  Sum of spin   charges =     1.000000

 -----------------------------------------------------------------
                    Cartesian Multipole Moments
 -----------------------------------------------------------------
    Charge (ESU x 10^10)
                 4.8032
    Dipole Moment (Debye)
         X       0.0000      Y       0.0000      Z      -0.9289
       Tot       0.9289
    Quadrupole Moments (Debye-Ang)
        XX     -22.1494     XY       0.7697     YY     -72.4666
        XZ      -0.0000     YZ      -0.0000     ZZ     -56.5378
    Octopole Moments (Debye-Ang^2)
       XXX       0.0000    XXY       0.0000    XYY       0.0000
       YYY      -0.0000    XXZ       2.8113    XYZ      -9.8336
       YYZ       2.6101    XZZ       0.0000    YZZ       0.0000
       ZZZ     -12.4024
    Hexadecapole Moments (Debye-Ang^3)
      XXXX   -1258.1387   XXXY       4.5274   XXYY    -359.9423
      XYYY      -7.2027   YYYY    -114.9806   XXXZ       0.0000
      XXYZ       0.0000   XYYZ       0.0000   YYYZ      -0.0000
      XXZZ    -325.0799   XYZZ       9.4309   YYZZ    -106.6237
      XZZZ      -0.0000   YZZZ       0.0000   ZZZZ    -466.2766
 -----------------------------------------------------------------
 DrvMan is completing analytic gradient of the MP2 energy
 MP2 relaxed dipole moment
            1
    1   0.0000000
    2   0.0000000
    3  -0.3654467
	Magnitude:	 0.365 au	 0.929 Debye
 MP2 energy read as -1103.105785
 Full Analytical Gradient of MP2 Energy (in au.)
             1             2             3             4             5
    1    0.00082879    0.00005980   -0.00003284   -0.00032004    0.00014709
    2   -0.00132112   -0.00190286    0.00055548    0.00488312   -0.00417235
    3   -0.00021022    0.00051450   -0.00009202    0.00251108   -0.00277085
             6             7             8             9            10
    1    0.00009964   -0.00014709   -0.00082879    0.00032004   -0.00005980
    2   -0.00016917    0.00417235    0.00132112   -0.00488312    0.00190286
    3   -0.00010543   -0.00277085   -0.00021022    0.00251108    0.00051450
            11            12            13            14            15
    1    0.00003284   -0.00003861    0.00006582    0.00003861   -0.00006582
    2   -0.00055548    0.00036389    0.00071168   -0.00036389   -0.00071168
    3   -0.00009202   -0.00002230    0.00017524   -0.00002230    0.00017524
            16
    1   -0.00009964
    2    0.00016917
    3   -0.00010543
 Gradient time:  CPU 1.50 s  wall 0.10 s
 Geometry Optimization Parameters
   NAtoms,    NIC,     NZ,  NCons,   NDum,   NFix, NCnnct, MaxDiis
       16     111       0       1       0       0       0       0

 Cartesian Hessian Update
 Hessian Updated using BFGS Update


** CONSTRAINED OPTIMIZATION IN DELOCALIZED INTERNAL COORDINATES **
   Searching for a Minimum

   Optimization Cycle:   2

                       Coordinates (Angstroms)
     ATOM                X               Y               Z
      1  S         1.6173992395   -0.3011828574    1.1232574036
      2  C         3.0462254069   -0.0617811640    0.3160086879
      3  C         2.8885753395    0.2702260992   -1.0193436369
      4  C         1.5703570456    0.3061606985   -1.3814188309
      5  C         0.7015531407    0.0113859520   -0.3340657288
      6  H         1.2224675317    0.5526725632   -2.3689806938
      7  C        -0.7015531407   -0.0113859520   -0.3340657288
      8  S        -1.6173992395    0.3011828574    1.1232574036
      9  C        -1.5703570456   -0.3061606985   -1.3814188309
     10  C        -3.0462254069    0.0617811640    0.3160086879
     11  C        -2.8885753395   -0.2702260992   -1.0193436369
     12  H        -3.7174356421   -0.4711994495   -1.6710461402
     13  H         3.9821165576   -0.1710466417    0.8338101206
     14  H         3.7174356421    0.4711994495   -1.6710461402
     15  H        -3.9821165576    0.1710466417    0.8338101206
     16  H        -1.2224675317   -0.5526725632   -2.3689806938
   Point Group: c2    Number of degrees of freedom:    22


   Energy is  -1103.105785454

              Constraints and their Current Values
                                        Value     Constraint
   Dihedral:        4   5   7   9       30.000       30.000
 Hessian Updated using BFGS Update

 16 Hessian modes will be used to form the next step
  Hessian Eigenvalues:
     0.019895    0.050031    0.159886    0.160843    0.222650    0.229661
     0.248719    0.303077    0.364650    0.366087    0.368036    0.393636
     0.445016    0.467619    0.492308    0.530567

 Minimum Search - Taking Simple RFO Step
 Searching for Lamda that Minimizes Along All modes
 Value Taken    Lamda =  -0.00091964
 Step Taken.  Stepsize is  0.204021

                             Maximum     Tolerance    Cnvgd?
         Gradient           0.003094      0.000300      NO
         Displacement       0.144001      0.001200      NO
         Energy change     -0.001079      0.000001      NO


 New Cartesian Coordinates Obtained by Inverse Iteration

 Displacement from previous Coordinates is:  0.316967
 ----------------------------------------------------------------
             Standard Nuclear Orientation (Angstroms)
    I     Atom           X                Y                Z
 ----------------------------------------------------------------
    1      S       1.6276224450    -0.2583231494     1.1441891417
    2      C       3.0480835828    -0.0355090941     0.3147482377
    3      C       2.8793906288     0.2494610390    -1.0289285107
    4      C       1.5586750077     0.2619587090    -1.3810868506
    5      C       0.7019310042    -0.0105398214    -0.3162178937
    6      H       1.1962781469     0.4895633590    -2.3676732306
    7      C      -0.7019310042     0.0105398214    -0.3162178937
    8      S      -1.6276224450     0.2583231494     1.1441891417
    9      C      -1.5586750077    -0.2619587090    -1.3810868506
   10      C      -3.0480835828     0.0355090941     0.3147482377
   11      C      -2.8793906288    -0.2494610390    -1.0289285107
   12      H      -3.7009375306    -0.4440462356    -1.6918174121
   13      H       3.9889818322    -0.1355655671     0.8250076998
   14      H       3.7009375306     0.4440462356    -1.6918174121
   15      H      -3.9889818322     0.1355655671     0.8250076998
   16      H      -1.1962781469    -0.4895633590    -2.3676732306
 ----------------------------------------------------------------
 Molecular Point Group                 C2    NOp =  2
 Largest Abelian Subgroup              C2    NOp =  2
 Nuclear Repulsion Energy =   642.3793700158 hartrees
 There are       43 alpha and       42 beta electrons
 Applying Cartesian multipole field
    Component          Value
    ---------          -----
     (2,0,0)        1.00000E-11
     (0,2,0)        2.00000E-10
     (0,0,2)       -3.00000E-11
 Nucleus-field energy     =     0.0000000068 hartrees
 Requested basis set is cc-pVTZ
 There are 140 shells and 392 basis functions
 A cutoff of  1.0D-11 yielded   8068 shell pairs
 There are     62656 function pairs (     81652 Cartesian)
 Smallest overlap matrix eigenvalue = 6.89E-05
 Guess MOs from SCF MO coefficient file
 Reading MOs from coefficient file
 Reading MOs from coefficient file
 An unrestricted Hartree-Fock SCF calculation will be
 performed using Pulay DIIS extrapolation
 SCF converges when DIIS error is below 1.0E-08
 Geometry optimization detected.  Setting ReadMinima to 0
 Setting SaveMinima to 0
 using 16 threads for integral computing 
 ---------------------------------------
  Cycle       Energy         DIIS Error
 ---------------------------------------
    1   -1101.3532853101      7.02E-04
    2   -1101.3630703900      8.78E-05
    3   -1101.3634478862      3.38E-05
    4   -1101.3635130891      1.56E-05
    5   -1101.3635257381      5.67E-06
    6   -1101.3635283729      2.34E-06
    7   -1101.3635293953      1.28E-06
    8   -1101.3635298500      5.89E-07
    9   -1101.3635301715      4.68E-07
   10   -1101.3635304125      3.42E-07
   11   -1101.3635306488      1.80E-07
   12   -1101.3635307098      8.05E-08
   13   -1101.3635307197      3.52E-08
   14   -1101.3635307212      2.04E-08
   15   -1101.3635307218      1.06E-08
   16   -1101.3635307234      5.04E-09 Convergence criterion met
 ---------------------------------------
 <S^2> = 1.0475
 SCF time:  CPU 1255.64 s  wall 78.53 s
 SCF   energy in the final basis set = -1101.3635307234
 Total energy in the final basis set = -1101.3635307234
 
 Components of the MP2 correlation energy:
        aaaa  correlation energy =        -0.2338063761 au
        abab  correlation energy =        -1.2985444130 au
        bbbb  correlation energy =        -0.2104545869 au
        non-Brillouin singles    =        -0.0000000000 au

 Total  MP2   correlation energy =        -1.7428053760 au
        MP2         total energy =     -1103.1063360993 au

  Entering Z-vector solver.
   1         0           1      0.000540    0.000540
   2         0           1      0.000477    0.000477
   3         0           1      0.000296    0.000296
   4         0           1      0.000212    0.000212
   5         0           1      0.000095    0.000095
   6         0           1      0.000049    0.000049
   7         0           1      0.000029    0.000029
   8         0           1      0.000017    0.000017
   9         0           1      0.000007    0.000007
  10         0           1      0.000003    0.000003
  11         0           1      0.000001    0.000001
  12         1           0      0.000000    0.000000    Roots Converged
 Warning:  Cannot save MP2 spin density
 
 --------------------------------------------------------------
             Orbital Energies (a.u.) and Symmetries
 --------------------------------------------------------------
 
 Alpha MOs, Unrestricted
 -- Occupied --                  
-92.160 -92.160 -11.476 -11.475 -11.451 -11.451 -11.434 -11.434
  1 A     1 B     2 A     2 B     3 B     3 A     4 B     4 A                  
-11.403 -11.403  -9.163  -9.163  -6.843  -6.843  -6.843  -6.843
  5 A     5 B     6 B     6 A     7 B     7 A     8 A     8 B                  
 -6.841  -6.841  -1.395  -1.365  -1.232  -1.192  -1.183  -1.129
  9 A     9 B    10 A    10 B    11 A    12 A    11 B    12 B                  
 -1.000  -0.961  -0.926  -0.905  -0.891  -0.822  -0.753  -0.752
 13 A    14 A    13 B    14 B    15 A    15 B    16 B    16 A                  
 -0.749  -0.736  -0.732  -0.711  -0.692  -0.668  -0.645  -0.582
 17 A    17 B    18 A    19 A    18 B    20 A    19 B    20 B                  
 -0.535  -0.526  -0.477
 21 A    21 B    22 A                                                          
 -- Virtual --                   
 -0.125  -0.031  -0.009   0.013   0.014   0.023   0.041   0.045
 22 B    23 A    24 A    25 A    23 B    24 B    26 A    25 B                  
  0.051   0.067   0.070   0.076   0.114   0.137   0.144   0.193
 27 A    26 B    28 A    29 A    27 B    28 B    30 A    31 A                  
  0.197   0.201   0.209   0.221   0.223   0.240   0.262   0.265
 29 B    32 A    30 B    33 A    31 B    32 B    33 B    34 A                  
  0.282   0.283   0.301   0.303   0.314   0.321   0.341   0.349
 35 A    34 B    35 B    36 A    36 B    37 A    37 B    38 A                  
  0.363   0.369   0.379   0.383   0.383   0.395   0.397   0.405
 38 B    39 A    40 A    41 A    39 B    42 A    40 B    41 B                  
  0.415   0.425   0.439   0.444   0.453   0.457   0.463   0.463
 43 A    42 B    44 A    43 B    45 A    44 B    45 B    46 A                  
  0.475   0.480   0.497   0.512   0.513   0.532   0.568   0.569
 47 A    46 B    48 A    49 A    47 B    48 B    49 B    50 A                  
  0.573   0.589   0.615   0.627   0.648   0.651   0.675   0.693
 51 A    50 B    52 A    51 B    52 B    53 A    54 A    53 B                  
  0.693   0.714   0.723   0.737   0.755   0.760   0.776   0.780
 55 A    54 B    56 A    55 B    57 A    56 B    57 B    58 A                  
  0.813   0.822   0.830   0.847   0.882   0.905   0.911   0.912
 58 B    59 A    59 B    60 A    60 B    61 A    62 A    61 B                  
  0.916   0.920   0.938   0.944   0.969   0.991   0.993   0.997
 63 A    62 B    63 B    64 A    64 B    65 B    65 A    66 A                  
  1.029   1.040   1.053   1.056   1.076   1.092   1.096   1.119
 66 B    67 A    67 B    68 A    68 B    69 B    69 A    70 B                  
  1.119   1.147   1.148   1.170   1.208   1.221   1.248   1.263
 70 A    71 B    71 A    72 A    73 A    72 B    74 A    73 B                  
  1.287   1.289   1.305   1.316   1.341   1.352   1.352   1.369
 75 A    74 B    76 A    75 B    77 A    76 B    78 A    77 B                  
  1.386   1.386   1.403   1.403   1.428   1.433   1.469   1.473
 78 B    79 A    79 B    80 A    81 A    80 B    81 B    82 A                  
  1.489   1.495   1.535   1.562   1.580   1.592   1.644   1.648
 83 A    82 B    83 B    84 A    84 B    85 A    86 A    85 B                  
  1.675   1.696   1.699   1.714   1.721   1.749   1.755   1.786
 86 B    87 A    87 B    88 B    88 A    89 B    89 A    90 B                  
  1.795   1.803   1.900   1.905   1.912   1.942   1.948   1.986
 90 A    91 A    91 B    92 A    92 B    93 A    93 B    94 A                  
  2.000   2.020   2.034   2.037   2.062   2.068   2.079   2.100
 94 B    95 A    95 B    96 A    96 B    97 A    97 B    98 B                  
  2.108   2.118   2.137   2.227   2.240   2.264   2.275   2.303
 98 A    99 A    99 B   100 B   100 A   101 A   101 B   102 A                  
  2.315   2.318   2.326   2.358   2.372   2.372   2.401   2.409
102 B   103 A   103 B   104 A   104 B   105 A   105 B   106 A                  
  2.443   2.485   2.494   2.498   2.531   2.560   2.573   2.573
106 B   107 A   108 A   107 B   109 A   108 B   110 A   109 B                  
  2.587   2.593   2.623   2.628   2.641   2.699   2.715   2.718
111 A   110 B   112 A   111 B   112 B   113 A   113 B   114 A                  
  2.723   2.747   2.760   2.773   2.814   2.819   2.838   2.855
114 B   115 A   115 B   116 A   116 B   117 A   118 A   117 B                  
  2.862   2.868   2.917   2.924   2.976   2.979   2.998   3.011
119 A   118 B   120 A   119 B   120 B   121 A   122 A   121 B                  
  3.031   3.048   3.049   3.065   3.069   3.075   3.079   3.118
122 B   123 B   123 A   124 A   124 B   125 B   125 A   126 B                  
  3.122   3.127   3.131   3.135   3.171   3.177   3.206   3.220
126 A   127 A   127 B   128 A   129 A   128 B   130 A   129 B                  
  3.230   3.238   3.244   3.267   3.272   3.278   3.292   3.298
131 A   132 A   130 B   131 B   133 A   134 A   135 A   132 B                  
  3.320   3.324   3.328   3.332   3.343   3.354   3.356   3.372
133 B   134 B   135 B   136 A   137 A   136 B   138 A   137 B                  
  3.379   3.384   3.409   3.418   3.422   3.444   3.449   3.491
138 B   139 A   139 B   140 A   140 B   141 A   141 B   142 A                  
  3.510   3.514   3.544   3.558   3.570   3.579   3.604   3.617
142 B   143 B   143 A   144 B   144 A   145 A   145 B   146 A                  
  3.626   3.650   3.719   3.721   3.733   3.748   3.751   3.782
147 A   146 B   148 A   147 B   148 B   149 A   149 B   150 B                  
  3.797   3.818   3.827   3.840   3.843   3.865   3.873   3.888
150 A   151 A   152 A   151 B   152 B   153 A   154 A   153 B                  
  3.938   3.941   3.974   3.978   3.984   4.017   4.022   4.023
155 A   154 B   156 A   155 B   157 A   156 B   157 B   158 A                  
  4.038   4.041   4.049   4.055   4.103   4.139   4.141   4.146
158 B   159 A   160 A   159 B   161 A   162 A   160 B   161 B                  
  4.180   4.201   4.255   4.290   4.316   4.321   4.330   4.354
162 B   163 A   163 B   164 A   165 A   166 A   164 B   167 A                  
  4.356   4.403   4.439   4.452   4.476   4.500   4.508   4.541
165 B   166 B   167 B   168 A   169 A   168 B   170 A   169 B                  
  4.543   4.556   4.585   4.599   4.642   4.670   4.687   4.724
171 A   170 B   171 B   172 A   173 A   172 B   174 A   175 A                  
  4.725   4.802   4.822   4.834   4.857   4.893   4.903   4.914
173 B   174 B   175 B   176 A   177 A   176 B   178 A   179 A                  
  4.934   4.990   5.041   5.051   5.080   5.111   5.179   5.184
177 B   178 B   180 A   179 B   180 B   181 A   181 B   182 A                  
  5.228   5.258   5.269   5.298   5.411   5.424   5.465   5.525
183 A   182 B   183 B   184 A   185 A   184 B   185 B   186 A                  
  5.649   5.738   5.861   5.906   5.936   5.970   6.016   6.070
187 A   186 B   188 A   187 B   189 A   188 B   190 A   189 B                  
  6.294   6.358   6.434   6.531   6.660   9.175  10.942  11.694
190 B   191 A   191 B   192 A   192 B   193 A   193 B   194 A                  
 12.660  13.022  13.708  14.503  15.008
194 B   195 A   195 B   196 A   196 B                                          
 
 Beta MOs, Unrestricted
 -- Occupied --                  
-92.162 -92.162 -11.476 -11.475 -11.439 -11.439 -11.426 -11.426
  1 A     1 B     2 A     2 B     3 B     3 A     4 B     4 A                  
-11.410 -11.410  -9.164  -9.164  -6.845  -6.845  -6.844  -6.844
  5 B     5 A     6 B     6 A     7 B     7 A     8 B     8 A                  
 -6.844  -6.844  -1.383  -1.349  -1.221  -1.188  -1.175  -1.105
  9 B     9 A    10 A    10 B    11 A    12 A    11 B    12 B                  
 -0.992  -0.953  -0.915  -0.900  -0.889  -0.818  -0.752  -0.743
 13 A    14 A    13 B    14 B    15 A    15 B    16 A    17 A                  
 -0.734  -0.729  -0.720  -0.685  -0.669  -0.661  -0.644  -0.539
 16 B    18 A    17 B    18 B    19 A    20 A    19 B    20 B                  
 -0.533  -0.515
 21 A    21 B                                                                  
 -- Virtual --                   
 -0.180  -0.057  -0.020   0.009   0.018   0.025   0.030   0.043
 22 A    22 B    23 A    24 A    25 A    23 B    24 B    26 A                  
  0.046   0.062   0.069   0.073   0.091   0.116   0.140   0.146
 25 B    27 A    26 B    28 A    29 A    27 B    28 B    30 A                  
  0.199   0.200   0.203   0.214   0.222   0.224   0.243   0.271
 31 A    29 B    32 A    30 B    33 A    31 B    32 B    33 B                  
  0.272   0.285   0.292   0.304   0.311   0.319   0.320   0.336
 34 A    35 A    34 B    36 A    35 B    36 B    37 A    37 B                  
  0.355   0.376   0.377   0.390   0.392   0.394   0.411   0.413
 38 A    39 A    38 B    40 A    39 B    41 A    40 B    42 A                  
  0.414   0.426   0.427   0.443   0.445   0.458   0.464   0.467
 41 B    42 B    43 A    44 A    43 B    45 A    44 B    45 B                  
  0.470   0.480   0.486   0.505   0.515   0.518   0.537   0.570
 46 A    47 A    46 B    48 A    49 A    47 B    48 B    50 A                  
  0.571   0.575   0.594   0.616   0.629   0.650   0.652   0.678
 49 B    51 A    50 B    52 A    51 B    52 B    53 A    54 A                  
  0.695   0.697   0.720   0.730   0.742   0.758   0.763   0.783
 53 B    55 A    54 B    56 A    55 B    57 A    56 B    58 A                  
  0.784   0.817   0.826   0.832   0.849   0.885   0.905   0.913
 57 B    58 B    59 A    59 B    60 A    60 B    61 A    61 B                  
  0.916   0.922   0.925   0.941   0.954   0.973   0.994   0.998
 62 A    63 A    62 B    63 B    64 A    64 B    65 B    65 A                  
  0.998   1.035   1.042   1.055   1.060   1.077   1.097   1.101
 66 A    66 B    67 A    67 B    68 A    68 B    69 B    69 A                  
  1.119   1.120   1.153   1.156   1.172   1.215   1.229   1.258
 70 B    70 A    71 B    71 A    72 A    73 A    72 B    74 A                  
  1.265   1.291   1.296   1.311   1.321   1.344   1.355   1.356
 73 B    75 A    74 B    76 A    75 B    77 A    78 A    76 B                  
  1.374   1.387   1.389   1.405   1.406   1.432   1.435   1.476
 77 B    78 B    79 A    79 B    80 A    81 A    80 B    81 B                  
  1.477   1.493   1.498   1.535   1.564   1.583   1.594   1.646
 82 A    83 A    82 B    83 B    84 A    84 B    85 A    86 A                  
  1.649   1.675   1.695   1.698   1.718   1.721   1.750   1.758
 85 B    86 B    87 A    87 B    88 B    88 A    89 B    89 A                  
  1.786   1.796   1.804   1.900   1.905   1.912   1.945   1.949
 90 B    90 A    91 A    91 B    92 A    92 B    93 A    93 B                  
  1.986   2.000   2.020   2.034   2.038   2.062   2.068   2.079
 94 A    94 B    95 A    95 B    96 A    96 B    97 A    97 B                  
  2.116   2.118   2.128   2.139   2.238   2.242   2.265   2.271
 98 B    98 A    99 A    99 B   100 A   100 B   101 A   101 B                  
  2.307   2.318   2.322   2.330   2.360   2.384   2.390   2.403
102 A   102 B   103 A   103 B   104 A   104 B   105 A   105 B                  
  2.415   2.451   2.488   2.495   2.503   2.532   2.563   2.579
106 A   106 B   107 A   108 A   107 B   109 A   108 B   109 B                  
  2.580   2.596   2.599   2.629   2.634   2.643   2.704   2.721
110 A   111 A   110 B   112 A   111 B   112 B   113 A   113 B                  
  2.727   2.728   2.751   2.771   2.776   2.817   2.822   2.845
114 A   114 B   115 A   115 B   116 A   116 B   117 A   118 A                  
  2.863   2.871   2.872   2.924   2.927   2.980   2.983   2.999
117 B   119 A   118 B   120 A   119 B   120 B   121 A   122 A                  
  3.023   3.034   3.048   3.053   3.072   3.073   3.084   3.084
121 B   122 B   123 B   123 A   124 A   124 B   125 B   125 A                  
  3.124   3.124   3.134   3.138   3.148   3.178   3.183   3.209
126 B   126 A   127 A   127 B   128 A   129 A   128 B   130 A                  
  3.221   3.232   3.243   3.246   3.274   3.275   3.285   3.295
129 B   131 A   132 A   130 B   131 B   133 A   134 A   135 A                  
  3.301   3.325   3.332   3.340   3.341   3.351   3.357   3.363
132 B   133 B   134 B   135 B   136 A   137 A   136 B   138 A                  
  3.376   3.382   3.387   3.417   3.421   3.424   3.447   3.453
137 B   138 B   139 A   139 B   140 A   140 B   141 A   141 B                  
  3.494   3.514   3.519   3.549   3.562   3.572   3.583   3.610
142 A   142 B   143 B   143 A   144 B   144 A   145 A   145 B                  
  3.621   3.632   3.652   3.722   3.727   3.737   3.749   3.753
146 A   147 A   146 B   147 B   148 A   148 B   149 A   149 B                  
  3.784   3.799   3.820   3.829   3.844   3.848   3.868   3.876
150 B   150 A   151 A   152 A   151 B   152 B   153 A   154 A                  
  3.890   3.940   3.944   3.976   3.981   3.986   4.018   4.023
153 B   155 A   154 B   156 A   155 B   157 A   156 B   158 A                  
  4.025   4.040   4.043   4.050   4.056   4.105   4.140   4.142
157 B   158 B   159 A   160 A   159 B   161 A   162 A   160 B                  
  4.147   4.181   4.202   4.255   4.291   4.317   4.322   4.332
161 B   162 B   163 A   163 B   164 A   165 A   166 A   164 B                  
  4.355   4.357   4.405   4.442   4.456   4.478   4.501   4.509
167 A   165 B   166 B   167 B   168 A   169 A   168 B   170 A                  
  4.543   4.546   4.558   4.586   4.601   4.642   4.671   4.689
169 B   171 A   170 B   171 B   172 A   173 A   172 B   174 A                  
  4.726   4.726   4.805   4.824   4.835   4.861   4.894   4.904
173 B   175 A   174 B   175 B   176 A   177 A   176 B   178 A                  
  4.916   4.936   4.990   5.042   5.052   5.087   5.117   5.180
179 A   177 B   178 B   180 A   179 B   180 B   181 A   181 B                  
  5.186   5.230   5.259   5.270   5.299   5.412   5.425   5.466
182 A   183 A   182 B   183 B   184 A   185 A   184 B   185 B                  
  5.527   5.650   5.739   5.862   5.907   5.937   5.970   6.016
186 A   187 A   186 B   188 A   187 B   189 A   188 B   190 A                  
  6.071   6.294   6.359   6.435   6.531   6.661   9.177  10.946
189 B   190 B   191 A   191 B   192 A   192 B   193 A   193 B                  
 11.697  12.664  13.027  13.709  14.504  15.011
194 A   194 B   195 A   195 B   196 A   196 B                                  
 --------------------------------------------------------------
 
          Ground-State Mulliken Net Atomic Charges

     Atom                 Charge (a.u.)    Spin (a.u.)
  --------------------------------------------------------
      1 S                     0.243688      -0.030682
      2 C                    -0.111112       0.014972
      3 C                    -0.169246       0.382300
      4 C                    -0.119601      -0.184922
      5 C                    -0.019490       0.321042
      6 H                     0.210025       0.018509
      7 C                    -0.019490       0.321042
      8 S                     0.243688      -0.030682
      9 C                    -0.119601      -0.184922
     10 C                    -0.111112       0.014972
     11 C                    -0.169246       0.382300
     12 H                     0.224537      -0.031158
     13 H                     0.241199       0.009939
     14 H                     0.224537      -0.031158
     15 H                     0.241199       0.009939
     16 H                     0.210025       0.018509
  --------------------------------------------------------
  Sum of atomic charges =     1.000000
  Sum of spin   charges =     1.000000

 -----------------------------------------------------------------
                    Cartesian Multipole Moments
 -----------------------------------------------------------------
    Charge (ESU x 10^10)
                 4.8032
    Dipole Moment (Debye)
         X       0.0000      Y      -0.0000      Z      -0.9317
       Tot       0.9317
    Quadrupole Moments (Debye-Ang)
        XX     -22.3654     XY       0.9935     YY     -72.6810
        XZ       0.0000     YZ      -0.0000     ZZ     -56.3211
    Octopole Moments (Debye-Ang^2)
       XXX       0.0000    XXY      -0.0000    XYY       0.0000
       YYY      -0.0000    XXZ       2.3481    XYZ      -8.8558
       YYZ       2.2279    XZZ       0.0000    YZZ       0.0000
       ZZZ     -14.1013
[...]
 ******************************

                       Coordinates (Angstroms)
     ATOM                X               Y               Z
      1  S         1.6233821514   -0.2341058899    1.1489217066
      2  C         3.0479749972   -0.0154501973    0.3196855943
      3  C         2.8807699038    0.2339290094   -1.0303135813
      4  C         1.5608689872    0.2323852210   -1.3853505565
      5  C         0.6995802252   -0.0243025741   -0.3163600298
      6  H         1.2038186303    0.4286507963   -2.3806612169
      7  C        -0.6995802252    0.0243025741   -0.3163600298
      8  S        -1.6233821514    0.2341058899    1.1489217066
      9  C        -1.5608689872   -0.2323852210   -1.3853505565
     10  C        -3.0479749972    0.0154501973    0.3196855943
     11  C        -2.8807699038   -0.2339290094   -1.0303135813
     12  H        -3.7026988163   -0.4148556486   -1.6964587345
     13  H         3.9864488195   -0.0887154543    0.8387579996
     14  H         3.7026988163    0.4148556486   -1.6964587345
     15  H        -3.9864488195    0.0887154543    0.8387579996
     16  H        -1.2038186303   -0.4286507963   -2.3806612169

Z-matrix Print:
$molecule
1 2
S 
C  1 1.662801
H  2 1.074959 1 119.880446
C  2 1.382984 1 114.012389 3 -179.103628 0
H  4 1.073336 2 122.931816 1 -178.807565 0
C  4 1.366818 2 111.722215 1 0.550527 0
H  6 1.075476 4 124.109981 2 -178.440516 0
C  6 1.396584 4 113.386085 2 0.304222 0
C  8 1.400004 6 127.586473 4 -173.701023 0
C  9 1.396584 8 127.586473 6 -30.000000 0
H  10 1.075476 9 122.491545 8 5.066797 0
C  10 1.366818 9 113.386085 8 -173.701023 0
H  12 1.073336 10 125.342531 9 179.643734 0
C  12 1.382984 10 111.722215 9 0.304222 0
H  14 1.074959 12 126.100292 10 -178.487553 0
S  14 1.662801 12 114.012389 10 0.550527 0
$end

 
 --------------------------------------------------------------
             Orbital Energies (a.u.) and Symmetries
 --------------------------------------------------------------
 
 Alpha MOs, Unrestricted
 -- Occupied --                  
-92.160 -92.160 -11.476 -11.475 -11.452 -11.452 -11.435 -11.435
  1 A     1 B     2 A     2 B     3 B     3 A     4 B     4 A                  
-11.403 -11.403  -9.163  -9.163  -6.843  -6.843  -6.843  -6.843
  5 A     5 B     6 B     6 A     7 B     7 A     8 A     8 B                  
 -6.840  -6.840  -1.395  -1.364  -1.232  -1.192  -1.183  -1.129
  9 A     9 B    10 A    10 B    11 A    12 A    11 B    12 B                  
 -1.001  -0.961  -0.925  -0.905  -0.892  -0.822  -0.753  -0.752
 13 A    14 A    13 B    14 B    15 A    15 B    16 A    16 B                  
 -0.750  -0.736  -0.732  -0.710  -0.692  -0.669  -0.644  -0.582
 17 A    17 B    18 A    19 A    18 B    20 A    19 B    20 B                  
 -0.535  -0.526  -0.477
 21 A    21 B    22 A                                                          
 -- Virtual --                   
 -0.127  -0.029  -0.009   0.013   0.014   0.023   0.041   0.046
 22 B    23 A    24 A    25 A    23 B    24 B    26 A    25 B                  
  0.052   0.067   0.070   0.075   0.116   0.138   0.142   0.192
 27 A    26 B    28 A    29 A    27 B    28 B    30 A    31 A                  
  0.198   0.201   0.212   0.220   0.221   0.242   0.262   0.265
 29 B    32 A    30 B    31 B    33 A    32 B    33 B    34 A                  
  0.281   0.282   0.301   0.303   0.314   0.320   0.340   0.349
 35 A    34 B    35 B    36 A    36 B    37 A    37 B    38 A                  
  0.362   0.370   0.379   0.384   0.384   0.395   0.396   0.407
 38 B    39 A    40 A    41 A    39 B    42 A    40 B    41 B                  
  0.414   0.424   0.440   0.442   0.452   0.457   0.464   0.465
 43 A    42 B    44 A    43 B    45 A    44 B    46 A    45 B                  
  0.475   0.481   0.494   0.512   0.513   0.534   0.568   0.570
 47 A    46 B    48 A    49 A    47 B    48 B    49 B    50 A                  
  0.574   0.588   0.613   0.628   0.648   0.653   0.674   0.692
 51 A    50 B    52 A    51 B    52 B    53 A    54 A    53 B                  
  0.695   0.714   0.724   0.740   0.754   0.765   0.776   0.777
 55 A    54 B    56 A    55 B    57 A    56 B    57 B    58 A                  
  0.812   0.816   0.830   0.845   0.883   0.902   0.913   0.915
 58 B    59 A    59 B    60 A    60 B    61 A    62 A    61 B                  
  0.916   0.923   0.937   0.945   0.966   0.985   0.990   0.997
 63 A    62 B    63 B    64 A    64 B    65 B    65 A    66 A                  
  1.026   1.041   1.052   1.058   1.076   1.093   1.095   1.113
 66 B    67 A    67 B    68 A    68 B    69 B    69 A    70 A                  
  1.120   1.147   1.148   1.168   1.203   1.219   1.247   1.265
 70 B    71 B    71 A    72 A    73 A    72 B    74 A    73 B                  
  1.284   1.290   1.303   1.316   1.338   1.352   1.355   1.371
 75 A    74 B    76 A    75 B    77 A    78 A    76 B    77 B                  
  1.387   1.387   1.403   1.405   1.427   1.432   1.467   1.472
 78 B    79 A    79 B    80 A    81 A    80 B    81 B    82 A                  
  1.490   1.496   1.533   1.563   1.583   1.593   1.641   1.651
 83 A    82 B    83 B    84 A    84 B    85 A    86 A    85 B                  
  1.676   1.696   1.703   1.715   1.724   1.747   1.754   1.787
 86 B    87 A    87 B    88 B    88 A    89 B    89 A    90 B                  
  1.796   1.807   1.901   1.904   1.912   1.942   1.954   1.983
 90 A    91 A    92 A    91 B    92 B    93 A    93 B    94 A                  
  1.999   2.017   2.034   2.037   2.061   2.062   2.083   2.099
 94 B    95 A    95 B    96 A    96 B    97 A    97 B    98 B                  
  2.108   2.117   2.134   2.219   2.243   2.264   2.274   2.304
 98 A    99 A    99 B   100 B   100 A   101 A   101 B   102 A                  
  2.310   2.318   2.326   2.357   2.370   2.373   2.404   2.407
102 B   103 A   103 B   104 A   104 B   105 A   105 B   106 A                  
  2.439   2.485   2.495   2.507   2.529   2.565   2.569   2.574
106 B   107 A   108 A   107 B   109 A   108 B   110 A   109 B                  
  2.586   2.596   2.622   2.629   2.645   2.700   2.716   2.719
111 A   110 B   112 A   111 B   112 B   113 A   113 B   114 A                  
  2.723   2.746   2.756   2.768   2.817   2.820   2.836   2.856
114 B   115 A   115 B   116 A   116 B   117 A   118 A   117 B                  
  2.866   2.872   2.913   2.924   2.974   2.978   2.999   3.014
119 A   118 B   120 A   119 B   121 A   120 B   122 A   121 B                  
  3.030   3.048   3.050   3.063   3.072   3.080   3.081   3.118
122 B   123 B   123 A   124 A   124 B   125 B   125 A   126 B                  
  3.123   3.130   3.131   3.135   3.164   3.175   3.204   3.223
126 A   127 B   127 A   128 A   129 A   128 B   130 A   129 B                  
  3.228   3.239   3.245   3.264   3.275   3.278   3.294   3.302
131 A   132 A   130 B   131 B   133 A   134 A   135 A   132 B                  
  3.318   3.325   3.328   3.334   3.341   3.353   3.355   3.371
133 B   134 B   135 B   136 A   137 A   136 B   138 A   137 B                  
  3.379   3.384   3.406   3.414   3.415   3.442   3.451   3.494
138 B   139 A   139 B   140 B   140 A   141 A   141 B   142 A                  
  3.505   3.515   3.542   3.557   3.571   3.583   3.603   3.614
142 B   143 B   143 A   144 B   144 A   145 A   145 B   146 A                  
  3.628   3.649   3.719   3.721   3.731   3.744   3.752   3.786
147 A   146 B   148 A   147 B   148 B   149 A   149 B   150 B                  
  3.797   3.817   3.828   3.840   3.843   3.861   3.871   3.891
150 A   151 A   152 A   151 B   152 B   153 A   154 A   153 B                  
  3.935   3.939   3.976   3.977   3.979   4.017   4.020   4.025
155 A   154 B   156 A   155 B   157 A   156 B   157 B   158 A                  
  4.037   4.042   4.049   4.060   4.100   4.136   4.142   4.150
158 B   159 A   160 A   159 B   161 A   162 A   160 B   161 B                  
  4.175   4.200   4.256   4.291   4.313   4.322   4.329   4.351
162 B   163 A   163 B   164 A   165 A   166 A   164 B   165 B                  
  4.358   4.400   4.439   4.453   4.476   4.501   4.509   4.540
167 A   166 B   167 B   168 A   169 A   168 B   170 A   169 B                  
  4.543   4.557   4.586   4.592   4.640   4.672   4.687   4.724
171 A   170 B   171 B   172 A   173 A   172 B   174 A   175 A                  
  4.736   4.798   4.825   4.830   4.859   4.892   4.901   4.914
173 B   174 B   175 B   176 A   177 A   176 B   178 A   179 A                  
  4.935   4.990   5.039   5.052   5.081   5.112   5.181   5.185
177 B   178 B   180 A   179 B   180 B   181 A   181 B   182 A                  
  5.228   5.260   5.272   5.299   5.412   5.425   5.465   5.524
183 A   182 B   183 B   184 A   185 A   184 B   185 B   186 A                  
  5.646   5.736   5.858   5.909   5.934   5.971   6.012   6.071
187 A   186 B   188 A   187 B   189 A   188 B   190 A   189 B                  
  6.295   6.355   6.434   6.534   6.654   9.152  10.939  11.665
190 B   191 A   191 B   192 A   192 B   193 A   193 B   194 A                  
 12.717  13.016  13.721  14.494  14.987
194 B   195 A   195 B   196 A   196 B                                          
 
 Beta MOs, Unrestricted
 -- Occupied --                  
-92.162 -92.162 -11.476 -11.475 -11.439 -11.439 -11.427 -11.427
  1 A     1 B     2 A     2 B     3 B     3 A     4 B     4 A                  
-11.410 -11.410  -9.164  -9.164  -6.845  -6.845  -6.844  -6.844
  5 B     5 A     6 B     6 A     7 B     7 A     8 B     8 A                  
 -6.844  -6.844  -1.383  -1.349  -1.222  -1.188  -1.174  -1.105
  9 B     9 A    10 A    10 B    11 A    12 A    11 B    12 B                  
 -0.993  -0.953  -0.914  -0.899  -0.889  -0.818  -0.752  -0.743
 13 A    14 A    13 B    14 B    15 A    15 B    16 A    17 A                  
 -0.733  -0.730  -0.721  -0.684  -0.669  -0.661  -0.643  -0.540
 16 B    18 A    17 B    18 B    19 A    20 A    19 B    20 B                  
 -0.533  -0.517
 21 A    21 B                                                                  
 -- Virtual --                   
 -0.179  -0.058  -0.019   0.010   0.018   0.025   0.030   0.043
 22 A    22 B    23 A    24 A    25 A    23 B    24 B    26 A                  
  0.047   0.062   0.070   0.073   0.091   0.118   0.141   0.144
 25 B    27 A    26 B    28 A    29 A    27 B    28 B    30 A                  
  0.198   0.201   0.203   0.217   0.221   0.221   0.244   0.271
 31 A    29 B    32 A    30 B    31 B    33 A    32 B    33 B                  
  0.273   0.285   0.291   0.305   0.310   0.320   0.320   0.336
 34 A    35 A    34 B    36 A    35 B    37 A    36 B    37 B                  
  0.354   0.377   0.378   0.389   0.393   0.394   0.412   0.412
 38 A    38 B    39 A    40 A    39 B    41 A    40 B    42 A                  
  0.413   0.425   0.428   0.444   0.444   0.457   0.464   0.469
 41 B    42 B    43 A    43 B    44 A    45 A    44 B    45 B                  
  0.470   0.480   0.487   0.503   0.514   0.519   0.538   0.571
 46 A    47 A    46 B    48 A    49 A    47 B    48 B    50 A                  
  0.571   0.577   0.593   0.615   0.629   0.650   0.654   0.676
 49 B    51 A    50 B    52 A    51 B    52 B    53 A    54 A                  
  0.694   0.697   0.720   0.732   0.746   0.757   0.767   0.780
 53 B    55 A    54 B    56 A    55 B    57 A    56 B    58 A                  
  0.784   0.815   0.819   0.832   0.848   0.887   0.903   0.915
 57 B    58 B    59 A    59 B    60 A    60 B    61 A    62 A                  
  0.916   0.922   0.929   0.937   0.955   0.970   0.987   0.993
 61 B    63 A    62 B    63 B    64 A    64 B    65 B    65 A                  
  1.000   1.032   1.043   1.054   1.062   1.078   1.098   1.100
 66 A    66 B    67 A    67 B    68 A    68 B    69 B    69 A                  
  1.114   1.121   1.153   1.155   1.170   1.209   1.227   1.257
 70 A    70 B    71 B    71 A    72 A    73 A    72 B    74 A                  
  1.267   1.286   1.297   1.309   1.322   1.342   1.354   1.360
 73 B    75 A    74 B    76 A    75 B    77 A    78 A    76 B                  
  1.375   1.388   1.390   1.406   1.407   1.430   1.434   1.474
 77 B    78 B    79 A    79 B    80 A    81 A    80 B    81 B                  
  1.475   1.493   1.499   1.533   1.565   1.586   1.596   1.643
 82 A    83 A    82 B    83 B    84 A    84 B    85 A    86 A                  
  1.651   1.677   1.695   1.703   1.718   1.724   1.748   1.757
 85 B    86 B    87 A    87 B    88 B    88 A    89 B    89 A                  
  1.786   1.797   1.807   1.901   1.904   1.912   1.945   1.954
 90 B    90 A    91 A    92 A    91 B    92 B    93 A    93 B                  
  1.982   1.998   2.017   2.034   2.038   2.061   2.062   2.083
 94 A    94 B    95 A    95 B    96 A    96 B    97 A    97 B                  
  2.115   2.117   2.127   2.136   2.233   2.241   2.266   2.269
 98 B    98 A    99 A    99 B   100 B   100 A   101 A   101 B                  
  2.308   2.315   2.324   2.330   2.359   2.382   2.390   2.407
102 A   102 B   103 A   103 B   104 A   104 B   105 A   105 B                  
  2.413   2.447   2.488   2.497   2.511   2.530   2.569   2.575
106 A   106 B   107 A   108 A   107 B   109 A   108 B   110 A                  
  2.579   2.596   2.602   2.628   2.634   2.647   2.705   2.724
109 B   111 A   110 B   112 A   111 B   112 B   113 A   113 B                  
  2.726   2.728   2.751   2.766   2.771   2.820   2.823   2.844
114 B   114 A   115 A   115 B   116 A   116 B   117 A   118 A                  
  2.865   2.876   2.876   2.921   2.928   2.978   2.981   2.999
117 B   119 A   118 B   120 A   119 B   121 A   120 B   122 A                  
  3.026   3.033   3.048   3.054   3.071   3.076   3.087   3.087
121 B   122 B   123 B   123 A   124 A   124 B   125 A   125 B                  
  3.123   3.126   3.137   3.137   3.147   3.173   3.181   3.207
126 B   126 A   127 B   127 A   128 A   129 A   128 B   130 A                  
  3.223   3.230   3.244   3.247   3.271   3.276   3.285   3.298
129 B   131 A   132 A   130 B   131 B   133 A   134 A   135 A                  
  3.305   3.327   3.331   3.338   3.341   3.350   3.356   3.363
132 B   133 B   134 B   135 B   136 A   137 A   136 B   138 A                  
  3.375   3.383   3.387   3.411   3.418   3.419   3.445   3.455
137 B   138 B   139 A   139 B   140 A   140 B   141 A   141 B                  
  3.497   3.509   3.521   3.548   3.562   3.573   3.587   3.610
142 A   142 B   143 B   143 A   144 B   144 A   145 A   145 B                  
  3.618   3.633   3.652   3.723   3.727   3.735   3.745   3.755
146 A   147 A   146 B   147 B   148 A   148 B   149 A   149 B                  
  3.788   3.799   3.820   3.830   3.843   3.849   3.864   3.874
150 B   150 A   151 A   152 A   151 B   152 B   153 A   154 A                  
  3.893   3.936   3.941   3.978   3.980   3.982   4.017   4.023
153 B   155 A   154 B   156 A   155 B   157 A   156 B   157 B                  
  4.026   4.040   4.044   4.051   4.061   4.102   4.137   4.143
158 A   158 B   159 A   160 A   159 B   161 A   162 A   160 B                  
  4.151   4.177   4.201   4.257   4.292   4.314   4.323   4.331
161 B   162 B   163 A   163 B   164 A   165 A   166 A   164 B                  
  4.352   4.359   4.402   4.443   4.457   4.479   4.502   4.510
165 B   167 A   166 B   167 B   168 A   169 A   168 B   170 A                  
  4.542   4.545   4.559   4.586   4.594   4.641   4.673   4.689
169 B   171 A   170 B   171 B   172 A   173 A   172 B   174 A                  
  4.726   4.736   4.802   4.828   4.831   4.863   4.893   4.902
175 A   173 B   174 B   175 B   176 A   177 A   176 B   178 A                  
  4.916   4.937   4.990   5.040   5.054   5.088   5.119   5.182
179 A   177 B   178 B   180 A   179 B   180 B   181 A   181 B                  
  5.187   5.230   5.261   5.273   5.299   5.413   5.426   5.466
182 A   183 A   182 B   183 B   184 A   185 A   184 B   185 B                  
  5.525   5.647   5.737   5.859   5.910   5.935   5.972   6.012
186 A   187 A   186 B   188 A   187 B   189 A   188 B   190 A                  
  6.072   6.295   6.356   6.434   6.534   6.654   9.154  10.943
189 B   190 B   191 A   191 B   192 A   192 B   193 A   193 B                  
 11.669  12.722  13.021  13.721  14.495  14.990
194 A   194 B   195 A   195 B   196 A   196 B                                  
 --------------------------------------------------------------
 
          Ground-State Mulliken Net Atomic Charges

     Atom                 Charge (a.u.)    Spin (a.u.)
  --------------------------------------------------------
      1 S                     0.240131      -0.032845
      2 C                    -0.110536       0.023483
      3 C                    -0.169380       0.368728
      4 C                    -0.119190      -0.171831
      5 C                    -0.015949       0.315563
      6 H                     0.209119       0.017926
      7 C                    -0.015949       0.315563
      8 S                     0.240131      -0.032845
      9 C                    -0.119190      -0.171831
     10 C                    -0.110536       0.023483
     11 C                    -0.169380       0.368728
     12 H                     0.224760      -0.030467
     13 H                     0.241045       0.009442
     14 H                     0.224760      -0.030467
     15 H                     0.241045       0.009442
     16 H                     0.209119       0.017926
  --------------------------------------------------------
  Sum of atomic charges =     1.000000
  Sum of spin   charges =     1.000000

 -----------------------------------------------------------------
                    Cartesian Multipole Moments
 -----------------------------------------------------------------
    Charge (ESU x 10^10)
                 4.8032
    Dipole Moment (Debye)
         X       0.0000      Y       0.0000      Z      -0.9683
       Tot       0.9683
    Quadrupole Moments (Debye-Ang)
        XX     -22.3887     XY       1.2309     YY     -72.8689
        XZ      -0.0000     YZ      -0.0000     ZZ     -56.1420
    Octopole Moments (Debye-Ang^2)
       XXX      -0.0000    XXY       0.0000    XYY       0.0000
       YYY       0.0000    XXZ       2.3884    XYZ      -7.8528
       YYZ       2.3530    XZZ       0.0000    YZZ       0.0000
       ZZZ     -14.9177
    Hexadecapole Moments (Debye-Ang^3)
      XXXX   -1260.0841   XXXY       7.9119   XXYY    -360.4638
      XYYY     -11.1079   YYYY    -104.2393   XXXZ       0.0000
      XXYZ       0.0000   XYYZ      -0.0000   YYYZ      -0.0000
      XXZZ    -324.1852   XYZZ       7.0789   YYZZ    -108.7011
      XZZZ       0.0000   YZZZ       0.0000   ZZZZ    -474.3119
 -----------------------------------------------------------------
Archival summary:
1\1\nid01558\OPT\MP2\BasisUnspecified\286(1+,2)\TueMar710:13:512017TueMar710:13:512017\0\\#,OPT,MP2,BasisUnspecified,\\1,2\S\C,1,1.6628\H,2,1.07496,1,119.88\C,2,1.38298,1,114.012,3,-179.104,0\H,4,1.07334,2,122.932,1,-178.808,0\C,4,1.36682,2,111.722,1,0.550527,0\H,6,1.07548,4,124.11,2,-178.441,0\C,6,1.39658,4,113.386,2,0.304222,0\C,8,1.4,6,127.586,4,-173.701,0\C,9,1.39658,8,127.586,6,-30,0\H,10,1.07548,9,122.492,8,5.0668,0\C,10,1.36682,9,113.386,8,-173.701,0\H,12,1.07334,10,125.343,9,179.644,0\C,12,1.38298,10,111.722,9,0.304222,0\H,14,1.07496,12,126.1,10,-178.488,0\S,14,1.6628,12,114.012,10,0.550527,0\\HF=-1101.36449\MP2=-1103.10647\\@

 Total job time:  18454.23s(wall), 90909.58s(cpu) 
 Tue Mar  7 10:13:51 2017

        *************************************************************
        *                                                           *
        *  Thank you very much for using Q-Chem.  Have a nice day.  *
        *                                                           *
        *************************************************************


0 sent ACK to 0 
now end server 0 ... 
