srun -N 1 --ntasks-per-node 1 --cpus-per-task 64 --cpu_bind=cores --nodelist nid01580 /global/project/projectdirs/jcesr/qchem/qc44/cnl_qc441/dist/exe/qcprog.cori.haswell.exe .pt_mp2_hole_-20.0.in.60822.qcin.1 /dev/shm/eg_qchem/qchem60822/
Process 0 of 1 is on nid01580 - thread support 0
initial socket setup ...start
initial socket setup ...done 
now start server 0 ... 
nid01580 10.128.6
Q-Chem Developer Version! Running on 10.128.6.*
                  Welcome to Q-Chem
     A Quantum Leap Into The Future Of Chemistry


 Q-Chem 4.4, Q-Chem, Inc., Pleasanton, CA (2016)

 Y. Shao,  Z. Gan,  E. Epifanovsky,  A. T. B. Gilbert,  M. Wormit,  
 J. Kussmann,  A. W. Lange,  A. Behn,  J. Deng,  X. Feng,  D. Ghosh,  
 M. Goldey,  P. R. Horn,  L. D. Jacobson,  I. Kaliman,  F.Rob,  
 R. Z. Khaliullin,  T. Kus,  A. Landau,  J. Liu,  E. I. Proynov,  Y. M. Rhee,  
 R. M. Richard,  M. A. Rohrdanz,  R. P. Steele,  E. J. Sundstrom,  
 H. L. Woodcock III,  P. M. Zimmerman,  D. Zuev,  B. Albrecht,  E. Alguire,  
 B. Austin,  S. A. Baeppler,  G. J. O. Beran,  Y. A. Bernard,  E. Berquist,  
 K. Brandhorst,  K. B. Bravaya,  S. T. Brown,  D. Casanova,  C.-M. Chang,  
 Y. Chen,  S. H. Chien,  K. D. Closser,  M. P. Coons,  D. L. Crittenden,  
 S. Dasgupta,  M. Diedenhofen,  R. A. DiStasio Jr.,  H. Do,  A. D. Dutoi,  
 R. G. Edgar,  P.-T. Fang,  S. Fatehi,  Q. Feng,  L. Fusti-Molnar,  
 A. Ghysels,  A. Golubeva-Zadorozhnaya,  J. Gomes,  A. Gunina,  
 M. W. D. Hanson-Heine,  P. H. P. Harbach,  A. W. Hauser,  E. G. Hohenstein,  
 Z. C. Holden,  K. Hui,  T.-C. Jagau,  H. Ji,  B. Kaduk,  K. Khistyaev,  
 Jaehoon Kim,  Jihan Kim,  R. A. King,  P. Klunzinger,  D. Kosenkov,  
 T. Kowalczyk,  C. M. Krauter,  A. Kunitsa,  K. U. Lao,  A. Laurent,  
 K. V. Lawler,  D. Lefrancois,  S. Lehtola,  S. V. Levchenko,  C. Y. Lin,  
 Y.-S. Lin,  F. Liu,  E. Livshits,  R. C. Lochan,  A. Luenser,  P. Manohar,  
 S. F. Manzer,  S.-P. Mao,  Y. Mao,  N. Mardirossian,  A. V. Marenich,  
 L. A. Martinez-Martinez,  S. A. Maurer,  N. J. Mayhall,  J.-M. Mewes,  
 A. F. Morrison,  K. Nanda,  C. M. Oana,  R. Olivares-Amaya,  D. P. O'Neill,  
 J. A. Parkhill,  T. M. Perrine,  R. Peverati,  P. A. Pieniazek,  F. Plasser,  
 A. Prociuk,  D. R. Rehn,  E. Rosta,  N. J. Russ,  N. Sergueev,  
 S. M. Sharada,  S. Sharma,  D. W. Small,  A. Sodt,  T. Stauch,  T. Stein,  
 D. Stuck,  Y.-C. Su,  A. J. W. Thom,  T. Tsuchimochi,  L. Vogt,  O. Vydrov,  
 T. Wang,  M. A. Watson,  J. Wenzel,  A. White,  C. F. Williams,  
 V. Vanovschi,  S. Yeganeh,  S. R. Yost,  Z.-Q. You,  I. Y. Zhang,  X. Zhang,  
 Y. Zhao,  B. R. Brooks,  G. K. L. Chan,  D. M. Chipman,  C. J. Cramer,  
 W. A. Goddard III,  M. S. Gordon,  W. J. Hehre,  A. Klamt,  
 H. F. Schaefer III,  M. W. Schmidt,  C. D. Sherrill,  D. G. Truhlar,  
 A. Warshel,  X. Xu,  A. Aspuru-Guzik,  R. Baer,  A. T. Bell,  N. A. Besley,  
 J.-D. Chai,  A. Dreuw,  B. D. Dunietz,  T. R. Furlani,  S. R. Gwaltney,  
 C.-P. Hsu,  Y. Jung,  J. Kong,  D. S. Lambrecht,  W. Liang,  C. Ochsenfeld,  
 V. A. Rassolov,  L. V. Slipchenko,  J. E. Subotnik,  T. Van Voorhis,  
 J. M. Herbert,  A. I. Krylov,  P. M. W. Gill,  M. Head-Gordon

 Contributors to earlier versions of Q-Chem not listed above: 
 R. D. Adamson,  J. Baker,  E. F. C. Byrd,  A. K. Chakraborty,  C.-L. Cheng,  
 H. Dachsel,  R. J. Doerksen,  G. Hawkins,  A. Heyden,  S. Hirata,  
 G. Kedziora,  F. J. Keil,  C. Kelley,  P. P. Korambath,  W. Kurlancheek,  
 A. M. Lee,  M. S. Lee,  D. Liotard,  I. Lotan,  P. E. Maslen,  N. Nair,  
 D. Neuhauser,  R. Olson,  B. Peters,  J. Ritchie,  N. E. Schultz,  
 N. Shenvi,  A. C. Simmonett,  K. S. Thanthiriwatte,  Q. Wu,  W. Zhang

 Please cite Q-Chem as follows:
 Y. Shao et al., Mol. Phys. 113, 184-215 (2015)
 DOI: 10.1080/00268976.2014.952696

 Q-Chem 4.4.1 for Intel X86 EM64T Linux

 Parts of Q-Chem use Armadillo 5.200.1 (Boston Tea Smuggler).
 http://arma.sourceforge.net/

 Q-Chem begins on Tue Mar  7 05:06:27 2017  

Host: nid01545
0

     Scratch files written to /dev/shm/eg_qchem/qchem60822//
 Parallel job on  1  processors

Checking the input file for inconsistencies... 	...done.

--------------------------------------------------------------
User input:
--------------------------------------------------------------
$molecule
 1  2
 S           1.81042700       -1.22909900       -0.13996800
 C           3.10211600       -0.18861200       -0.13982200
 C           2.74845300        1.15163900       -0.14006900
 C           1.39169900        1.31613900       -0.14029100
 C           0.68906700        0.11310500       -0.14015500
 H           0.90454800        2.27578700       -0.14040700
 C          -0.68906700       -0.11310500       -0.14015500
 S          -1.33722416       -1.65378384       -0.65509273
 C          -1.72892951        0.73836271        0.22682083
 C          -2.88578409       -1.12934194       -0.37581416
 C          -2.96564570        0.17155910        0.09602153
 H          -3.89760242        0.65312885        0.32349578
 H           4.10439600       -0.57731800       -0.13934700
 H           3.47107900        1.94537000       -0.13983300
 H          -3.71656584       -1.78545082       -0.56284520
 H          -1.56409927        1.74238211        0.57755781
$end


$rem
         jobtype = opt
        exchange = hf
           basis = cc-pvtz
  max_scf_cycles = 100
      mem_static = 6200
       mem_total = 62000
          method = mp2
$end


$opt
CONSTRAINT
tors 4 5 7 9 -20.0
ENDCONSTRAINT
$end

--------------------------------------------------------------
 Atom  16: ( -1.2524614831,  0.3935652742, -2.4204643411)
         ->( -1.2524614855,  0.3935652806, -2.4204643381)
 Atom  14: (  3.7339077495, -0.3216202231, -1.6900497676)
         ->(  3.7339077510, -0.3216202197, -1.6900497610)
 Atom  15: ( -3.9605986853, -0.1235030066,  0.8625022790)
         ->( -3.9605986841, -0.1235030125,  0.8625022749)
 ----------------------------------------------------------------
             Standard Nuclear Orientation (Angstroms)
    I     Atom           X                Y                Z
 ----------------------------------------------------------------
    1      S       1.5930578146     0.2247697250     1.1300988271
    2      C       3.0325615432     0.0497357324     0.3249492709
    3      C       2.8951510865    -0.1868288211    -1.0339127162
    4      C       1.5817710649    -0.2230022591    -1.4101654463
    5      C       0.6981014186    -0.0161394474    -0.3531326727
    6      H       1.2524614855    -0.3935652806    -2.4204643381
    7      C      -0.6981014174     0.0161394476    -0.3531326721
    8      S      -1.5930578154    -0.2247697261     1.1300988248
    9      C      -1.5817710645     0.2230022589    -1.4101654496
   10      C      -3.0325615417    -0.0497357314     0.3249492699
   11      C      -2.8951510875     0.1868288239    -1.0339127132
   12      H      -3.7339077510     0.3216202197    -1.6900497610
   13      H       3.9605986841     0.1235030125     0.8625022749
   14      H       3.7339077510    -0.3216202197    -1.6900497610
   15      H      -3.9605986841    -0.1235030125     0.8625022749
   16      H      -1.2524614855     0.3935652806    -2.4204643381
 ----------------------------------------------------------------
 Molecular Point Group                 C2    NOp =  2
 Largest Abelian Subgroup              C2    NOp =  2
 Nuclear Repulsion Energy =   643.7021469367 hartrees
 There are       43 alpha and       42 beta electrons
 Requested basis set is cc-pVTZ
 There are 140 shells and 392 basis functions

 Total QAlloc Memory Limit  62000 MB
 Mega-Array Size      6061 MB
 MEM_STATIC part      6200 MB
 A cutoff of  1.0D-11 yielded   8068 shell pairs
 There are     62744 function pairs (     81776 Cartesian)
 
 -------------------------------------------------------
 OpenMP Integral Computing Module                       
 Release: version 1.0, May 2013, Q-Chem Inc. Pittsburgh 
 -------------------------------------------------------
 Integral Job Info:
 Integral job number is                      11
 Integral operator is                         1
 short-range coefficients                     0
 long-range coefficients              100000000
 Omega coefficients                           0
 if combine SR and LR in K                    0
 Integral screening is                        0
 Integral computing path is                   2
 max size of driver memory is            800000
 size of driver memory is                776718
 size of scratch memory is             26248924
 max col of scratch BK array              10000
 max len of scratch array in speh3          662
 max len of scratch index in speh4           32
 max int batch size is                      520
 min int batch size is                       52
 fixed nKL is                                52
 max L of basis functions is                  3
 order of int derivative is                   0
 number of shells is                        140
 number of basis is                         448
 number of cartesian basis is               448
 number of contracted shell pairs          8068
 number of primitive shell pairs          28648
 maxK2 (contraction) of shell pair          121
 max number of K2 of shell pair               1
 max number of CS2 of shell pair           1056
 max number of PS2 of shell pair           3136
 mem total for path MDJ                  223748
 -------------------------------------------------------
 Smallest overlap matrix eigenvalue = 5.14E-05

 Scale SEOQF with 1.000000e-01/1.000000e+00/1.000000e-01

 Standard Electronic Orientation quadrupole field applied
 Nucleus-field energy     =     0.0000000056 hartrees
 Guess from superposition of atomic densities
 Warning:  Energy on first SCF cycle will be non-variational
 An unrestricted Hartree-Fock SCF calculation will be
 performed using Pulay DIIS extrapolation
 SCF converges when DIIS error is below 1.0E-08
 using 16 threads for integral computing 
 ---------------------------------------
  Cycle       Energy         DIIS Error
 ---------------------------------------
    1   -1106.2161620873      3.03E-02
    2   -1094.8526112481      1.21E-02
    3   -1101.0529706343      3.43E-03
    4   -1101.3063727634      1.47E-03
    5   -1101.3504948639      3.07E-04
    6   -1101.3547575762      1.30E-04
    7   -1101.3569439846      4.63E-05
    8   -1101.3583254534      3.17E-05
    9   -1101.3592634232      2.60E-05
   10   -1101.3605362656      2.59E-05
   11   -1101.3617172357      2.17E-05
   12   -1101.3630273531      1.22E-05
   13   -1101.3632437218      4.79E-06
   14   -1101.3632866282      3.45E-06
   15   -1101.3632998459      1.84E-06
   16   -1101.3633060185      8.39E-07
   17   -1101.3633063334      2.31E-07
   18   -1101.3633064099      1.14E-07
   19   -1101.3633064322      6.79E-08
   20   -1101.3633064415      2.77E-08
   21   -1101.3633064427      1.45E-08
   22   -1101.3633064435      5.87E-09 Convergence criterion met
 ---------------------------------------
 <S^2> = 1.0444
 SCF time:  CPU 1010.75 s  wall 63.28 s
 SCF   energy in the final basis set = -1101.3633064435
 Total energy in the final basis set = -1101.3633064435
 
 Components of the MP2 correlation energy:
        aaaa  correlation energy =        -0.2340383577 au
        abab  correlation energy =        -1.2990549223 au
        bbbb  correlation energy =        -0.2104965749 au
        non-Brillouin singles    =        -0.0000000000 au

 Total  MP2   correlation energy =        -1.7435898549 au
        MP2         total energy =     -1103.1068962984 au

  Entering Z-vector solver.
   1         0           1      0.000539    0.000539
   2         0           1      0.000476    0.000476
   3         0           1      0.000294    0.000294
   4         0           1      0.000213    0.000213
   5         0           1      0.000099    0.000099
   6         0           1      0.000052    0.000052
   7         0           1      0.000031    0.000031
   8         0           1      0.000018    0.000018
   9         0           1      0.000007    0.000007
  10         0           1      0.000003    0.000003
  11         0           1      0.000001    0.000001
  12         1           0      0.000000    0.000000    Roots Converged
 Warning:  Cannot save MP2 spin density
 
 --------------------------------------------------------------
             Orbital Energies (a.u.) and Symmetries
 --------------------------------------------------------------
 
 Alpha MOs, Unrestricted
 -- Occupied --                  
-92.160 -92.160 -11.475 -11.474 -11.452 -11.452 -11.434 -11.434
  1 A     1 B     2 A     2 B     3 B     3 A     4 B     4 A                  
-11.404 -11.404  -9.162  -9.162  -6.843  -6.843  -6.842  -6.842
  5 A     5 B     6 B     6 A     7 B     7 A     8 A     8 B                  
 -6.840  -6.840  -1.395  -1.364  -1.232  -1.193  -1.183  -1.128
  9 A     9 B    10 A    10 B    11 A    12 A    11 B    12 B                  
 -1.001  -0.962  -0.925  -0.905  -0.892  -0.821  -0.754  -0.752
 13 A    14 A    13 B    14 B    15 A    15 B    16 A    16 B                  
 -0.749  -0.737  -0.733  -0.710  -0.691  -0.669  -0.643  -0.582
 17 A    17 B    18 A    19 A    18 B    20 A    19 B    20 B                  
 -0.535  -0.527  -0.475
 21 A    21 B    22 A                                                          
 -- Virtual --                   
 -0.127  -0.029  -0.010   0.012   0.013   0.023   0.040   0.047
 22 B    23 A    24 A    25 A    23 B    24 B    26 A    25 B                  
  0.055   0.067   0.070   0.077   0.116   0.144   0.145   0.194
 27 A    26 B    28 A    29 A    27 B    30 A    28 B    31 A                  
  0.199   0.199   0.211   0.220   0.231   0.241   0.263   0.265
 29 B    32 A    30 B    33 A    31 B    32 B    33 B    34 A                  
  0.281   0.282   0.300   0.303   0.313   0.319   0.347   0.350
 34 B    35 A    35 B    36 A    36 B    37 A    37 B    38 A                  
  0.363   0.370   0.379   0.384   0.387   0.398   0.399   0.402
 38 B    39 A    40 A    39 B    41 A    42 A    40 B    41 B                  
  0.412   0.426   0.440   0.448   0.451   0.455   0.462   0.463
 43 A    42 B    44 A    43 B    45 A    44 B    45 B    46 A                  
  0.476   0.481   0.497   0.511   0.511   0.535   0.570   0.573
 47 A    46 B    48 A    47 B    49 A    48 B    50 A    51 A                  
  0.578   0.596   0.612   0.634   0.647   0.656   0.672   0.694
 49 B    50 B    52 A    51 B    52 B    53 A    54 A    55 A                  
  0.695   0.712   0.725   0.741   0.752   0.773   0.776   0.781
 53 B    54 B    56 A    55 B    57 A    56 B    57 B    58 A                  
  0.805   0.822   0.837   0.846   0.884   0.902   0.905   0.909
 59 A    58 B    59 B    60 A    60 B    61 A    61 B    62 A                  
  0.918   0.921   0.936   0.946   0.968   0.993   0.996   1.009
 62 B    63 A    63 B    64 A    64 B    65 A    66 A    65 B                  
  1.037   1.039   1.060   1.060   1.077   1.089   1.096   1.116
 66 B    67 A    67 B    68 A    68 B    69 B    69 A    70 A                  
  1.125   1.145   1.150   1.167   1.202   1.231   1.252   1.264
 70 B    71 B    71 A    72 A    73 A    72 B    74 A    73 B                  
  1.292   1.295   1.306   1.312   1.335   1.348   1.352   1.372
 75 A    74 B    76 A    75 B    77 A    76 B    78 A    77 B                  
  1.385   1.388   1.405   1.408   1.429   1.445   1.469   1.471
 78 B    79 A    79 B    80 A    81 A    80 B    81 B    82 A                  
  1.490   1.490   1.542   1.569   1.576   1.592   1.636   1.640
 82 B    83 A    83 B    84 A    84 B    85 A    86 A    85 B                  
  1.677   1.687   1.699   1.726   1.726   1.752   1.767   1.793
 86 B    87 B    87 A    88 B    88 A    89 A    89 B    90 A                  
  1.799   1.805   1.901   1.908   1.916   1.940   1.971   1.978
 90 B    91 A    91 B    92 A    92 B    93 A    93 B    94 A                  
  2.001   2.018   2.037   2.043   2.061   2.064   2.084   2.099
 94 B    95 A    96 A    95 B    96 B    97 A    97 B    98 B                  
  2.108   2.117   2.154   2.225   2.233   2.265   2.276   2.304
 98 A    99 A    99 B   100 B   100 A   101 A   101 B   102 A                  
  2.313   2.319   2.335   2.360   2.370   2.374   2.399   2.406
103 A   102 B   103 B   104 A   105 A   104 B   105 B   106 A                  
  2.463   2.484   2.490   2.497   2.529   2.556   2.566   2.581
106 B   107 A   108 A   107 B   109 A   108 B   110 A   109 B                  
  2.587   2.597   2.621   2.623   2.640   2.697   2.699   2.725
111 A   110 B   111 B   112 A   112 B   113 A   113 B   114 A                  
  2.728   2.746   2.758   2.768   2.810   2.821   2.837   2.857
114 B   115 A   115 B   116 A   116 B   117 A   118 A   117 B                  
  2.868   2.880   2.913   2.923   2.983   2.989   2.994   3.008
118 B   119 A   120 A   119 B   121 A   120 B   122 A   121 B                  
  3.026   3.048   3.054   3.058   3.067   3.077   3.080   3.117
122 B   123 B   123 A   124 B   124 A   125 B   125 A   126 B                  
  3.117   3.129   3.137   3.141   3.161   3.183   3.195   3.217
126 A   127 A   127 B   128 A   129 A   128 B   130 A   129 B                  
  3.225   3.232   3.240   3.268   3.269   3.279   3.296   3.300
130 B   131 A   132 A   133 A   131 B   134 A   132 B   135 A                  
  3.323   3.329   3.333   3.336   3.343   3.343   3.355   3.372
133 B   134 B   136 A   135 B   136 B   137 A   138 A   137 B                  
  3.383   3.384   3.397   3.411   3.431   3.441   3.460   3.494
139 A   138 B   139 B   140 A   140 B   141 A   141 B   142 A                  
  3.500   3.531   3.542   3.559   3.574   3.585   3.592   3.619
142 B   143 B   143 A   144 B   144 A   145 A   145 B   146 A                  
  3.635   3.664   3.713   3.726   3.737   3.750   3.757   3.784
147 A   146 B   148 A   147 B   148 B   149 A   149 B   150 B                  
  3.794   3.817   3.825   3.827   3.845   3.858   3.874   3.891
150 A   151 A   152 A   151 B   152 B   153 A   154 A   153 B                  
  3.934   3.952   3.968   3.971   3.995   4.013   4.022   4.025
155 A   154 B   156 A   155 B   157 A   156 B   158 A   157 B                  
  4.042   4.043   4.048   4.068   4.112   4.130   4.137   4.152
159 A   158 B   160 A   159 B   161 A   162 A   160 B   161 B                  
  4.164   4.189   4.258   4.291   4.306   4.321   4.321   4.352
162 B   163 A   163 B   164 A   165 A   166 A   164 B   167 A                  
  4.355   4.402   4.431   4.462   4.470   4.499   4.514   4.542
165 B   166 B   167 B   168 A   169 A   168 B   170 A   169 B                  
  4.551   4.565   4.581   4.586   4.643   4.668   4.691   4.712
171 A   170 B   172 A   171 B   173 A   172 B   174 A   175 A                  
  4.735   4.793   4.835   4.841   4.882   4.891   4.897   4.914
173 B   174 B   175 B   176 A   177 A   176 B   178 A   179 A                  
  4.959   5.006   5.033   5.071   5.080   5.117   5.184   5.185
177 B   178 B   180 A   179 B   180 B   181 A   182 A   181 B                  
  5.223   5.262   5.282   5.296   5.409   5.429   5.461   5.532
183 A   182 B   183 B   184 A   185 A   184 B   185 B   186 A                  
  5.647   5.741   5.855   5.925   5.930   5.990   6.014   6.070
187 A   186 B   188 A   187 B   189 A   188 B   190 A   189 B                  
  6.308   6.356   6.440   6.528   6.700   9.163  11.009  11.665
190 B   191 A   191 B   192 A   192 B   193 A   193 B   194 A                  
 12.774  12.987  13.822  14.462  15.111
194 B   195 A   195 B   196 A   196 B                                          
 
 Beta MOs, Unrestricted
 -- Occupied --                  
-92.161 -92.161 -11.475 -11.474 -11.439 -11.439 -11.426 -11.426
  1 A     1 B     2 A     2 B     3 B     3 A     4 B     4 A                  
-11.411 -11.411  -9.163  -9.163  -6.844  -6.844  -6.844  -6.844
  5 B     5 A     6 B     6 A     7 A     7 B     8 B     8 A                  
 -6.843  -6.843  -1.384  -1.349  -1.222  -1.188  -1.174  -1.104
  9 B     9 A    10 A    10 B    11 A    12 A    11 B    12 B                  
 -0.993  -0.954  -0.915  -0.899  -0.889  -0.817  -0.754  -0.743
 13 A    14 A    13 B    14 B    15 A    15 B    16 A    17 A                  
 -0.733  -0.730  -0.722  -0.684  -0.670  -0.661  -0.642  -0.540
 16 B    18 A    17 B    18 B    19 A    20 A    19 B    20 B                  
 -0.532  -0.517
 21 A    21 B                                                                  
 -- Virtual --                   
 -0.179  -0.059  -0.020   0.010   0.017   0.025   0.029   0.042
 22 A    22 B    23 A    24 A    25 A    23 B    24 B    26 A                  
  0.048   0.063   0.069   0.073   0.096   0.118   0.146   0.148
 25 B    27 A    26 B    28 A    29 A    27 B    30 A    28 B                  
  0.197   0.201   0.203   0.216   0.221   0.232   0.243   0.273
 31 A    29 B    32 A    30 B    33 A    31 B    32 B    33 B                  
  0.274   0.284   0.290   0.305   0.312   0.317   0.319   0.342
 34 A    35 A    34 B    36 A    35 B    36 B    37 A    37 B                  
  0.355   0.376   0.378   0.390   0.392   0.396   0.409   0.412
 38 A    39 A    38 B    39 B    40 A    41 A    40 B    42 A                  
  0.418   0.427   0.428   0.444   0.450   0.456   0.459   0.467
 41 B    43 A    42 B    44 A    43 B    45 A    44 B    45 B                  
  0.469   0.481   0.486   0.504   0.515   0.515   0.540   0.570
 46 A    47 A    46 B    48 A    47 B    49 A    48 B    50 A                  
  0.576   0.581   0.602   0.614   0.636   0.648   0.657   0.675
 51 A    49 B    50 B    52 A    51 B    52 B    53 A    54 A                  
  0.697   0.697   0.718   0.733   0.747   0.755   0.776   0.783
 55 A    53 B    54 B    56 A    55 B    57 A    56 B    58 A                  
  0.784   0.808   0.826   0.838   0.849   0.886   0.903   0.907
 57 B    59 A    58 B    59 B    60 A    60 B    61 A    61 B                  
  0.911   0.923   0.928   0.940   0.956   0.971   0.994   1.001
 62 A    62 B    63 A    63 B    64 A    64 B    65 A    66 A                  
  1.014   1.041   1.041   1.062   1.063   1.078   1.093   1.100
 65 B    67 A    66 B    67 B    68 A    68 B    69 B    69 A                  
  1.117   1.127   1.151   1.157   1.170   1.208   1.241   1.261
 70 A    70 B    71 B    71 A    72 A    73 A    72 B    74 A                  
  1.266   1.296   1.300   1.313   1.318   1.340   1.352   1.352
 73 B    75 A    74 B    76 A    75 B    77 A    76 B    78 A                  
  1.376   1.386   1.390   1.408   1.411   1.432   1.448   1.474
 77 B    78 B    79 A    79 B    80 A    81 A    80 B    82 A                  
  1.476   1.493   1.493   1.543   1.570   1.580   1.597   1.638
 81 B    82 B    83 A    83 B    84 A    84 B    85 A    86 A                  
  1.642   1.676   1.687   1.697   1.726   1.730   1.754   1.769
 85 B    86 B    87 B    87 A    88 A    88 B    89 A    89 B                  
  1.795   1.799   1.806   1.902   1.908   1.917   1.943   1.971
 90 A    90 B    91 A    91 B    92 A    92 B    93 A    93 B                  
  1.978   2.000   2.019   2.037   2.043   2.062   2.064   2.084
 94 A    94 B    95 A    96 A    95 B    96 B    97 A    97 B                  
  2.115   2.116   2.129   2.155   2.232   2.239   2.265   2.274
 98 B    98 A    99 A    99 B   100 A   100 B   101 A   101 B                  
  2.308   2.316   2.321   2.339   2.363   2.388   2.389   2.400
102 A   103 A   102 B   103 B   104 A   104 B   105 A   105 B                  
  2.412   2.469   2.486   2.493   2.502   2.530   2.559   2.571
106 A   106 B   107 A   108 A   107 B   109 A   108 B   110 A                  
  2.586   2.597   2.604   2.626   2.629   2.642   2.702   2.709
109 B   111 A   110 B   111 B   112 A   112 B   113 A   113 B                  
  2.730   2.734   2.752   2.768   2.769   2.813   2.824   2.845
114 B   114 A   115 A   115 B   116 A   116 B   117 A   118 A                  
  2.864   2.873   2.891   2.920   2.927   2.985   2.993   2.996
117 B   118 B   119 A   120 A   119 B   121 A   120 B   122 A                  
  3.020   3.030   3.048   3.057   3.064   3.075   3.084   3.085
121 B   122 B   123 B   123 A   124 B   124 A   125 B   125 A                  
  3.121   3.122   3.138   3.144   3.150   3.170   3.189   3.198
126 A   126 B   127 A   127 B   128 A   129 A   128 B   130 A                  
  3.217   3.227   3.234   3.247   3.270   3.275   3.285   3.300
129 B   130 B   131 A   132 A   133 A   131 B   134 A   132 B                  
  3.307   3.333   3.337   3.338   3.341   3.349   3.351   3.365
135 A   133 B   134 B   136 A   135 B   136 B   137 A   138 A                  
  3.376   3.386   3.388   3.403   3.414   3.432   3.444   3.463
137 B   139 A   138 B   139 B   140 A   140 B   141 A   141 B                  
  3.496   3.504   3.536   3.547   3.563   3.575   3.589   3.598
142 A   142 B   143 B   143 A   144 B   144 A   145 A   145 B                  
  3.623   3.640   3.666   3.721   3.728   3.739   3.751   3.761
146 A   147 A   146 B   148 A   147 B   148 B   149 A   149 B                  
  3.786   3.796   3.819   3.827   3.830   3.850   3.861   3.878
150 B   150 A   151 A   152 A   151 B   152 B   153 A   154 A                  
  3.893   3.934   3.955   3.971   3.974   3.997   4.013   4.023
153 B   155 A   154 B   156 A   155 B   157 A   156 B   158 A                  
  4.028   4.044   4.046   4.050   4.069   4.113   4.132   4.139
157 B   159 A   158 B   160 A   159 B   161 A   162 A   160 B                  
  4.153   4.165   4.191   4.258   4.292   4.307   4.322   4.323
161 B   162 B   163 A   163 B   164 A   165 A   166 A   164 B                  
  4.353   4.356   4.404   4.435   4.467   4.473   4.500   4.516
167 A   165 B   166 B   167 B   168 A   169 A   168 B   170 A                  
  4.546   4.553   4.565   4.583   4.587   4.643   4.670   4.693
169 B   171 A   170 B   172 A   171 B   173 A   172 B   174 A                  
  4.714   4.736   4.797   4.837   4.842   4.886   4.893   4.899
175 A   173 B   174 B   175 B   176 A   177 A   176 B   178 A                  
  4.917   4.961   5.007   5.034   5.072   5.087   5.122   5.186
179 A   177 B   178 B   180 A   179 B   180 B   181 A   181 B                  
  5.186   5.224   5.262   5.284   5.296   5.410   5.430   5.462
182 A   183 A   182 B   183 B   184 A   185 A   184 B   185 B                  
  5.534   5.647   5.742   5.855   5.925   5.931   5.990   6.014
186 A   187 A   186 B   188 A   187 B   189 A   188 B   190 A                  
  6.071   6.308   6.357   6.441   6.529   6.700   9.165  11.014
189 B   190 B   191 A   191 B   192 A   192 B   193 A   193 B                  
 11.668  12.779  12.992  13.822  14.463  15.114
194 A   194 B   195 A   195 B   196 A   196 B                                  
 --------------------------------------------------------------
 
          Ground-State Mulliken Net Atomic Charges

     Atom                 Charge (a.u.)    Spin (a.u.)
  --------------------------------------------------------
      1 S                     0.243403      -0.024051
      2 C                    -0.117231       0.012423
      3 C                    -0.163761       0.392204
      4 C                    -0.124778      -0.193853
      5 C                    -0.009930       0.316259
      6 H                     0.206995       0.018774
      7 C                    -0.009935       0.316259
      8 S                     0.243405      -0.024051
      9 C                    -0.124776      -0.193853
     10 C                    -0.117234       0.012423
     11 C                    -0.163760       0.392204
     12 H                     0.223908      -0.031798
     13 H                     0.241395       0.010042
     14 H                     0.223908      -0.031798
     15 H                     0.241394       0.010042
     16 H                     0.206997       0.018774
  --------------------------------------------------------
  Sum of atomic charges =     1.000000
  Sum of spin   charges =     1.000000

 -----------------------------------------------------------------
                    Cartesian Multipole Moments
 -----------------------------------------------------------------
    Charge (ESU x 10^10)
                 4.8032
    Dipole Moment (Debye)
         X       0.0000      Y       0.0000      Z      -0.9826
       Tot       0.9826
    Quadrupole Moments (Debye-Ang)
        XX     -22.3364     XY      -0.4575     YY     -72.9930
        XZ      -0.0000     YZ      -0.0000     ZZ     -55.9112
    Octopole Moments (Debye-Ang^2)
       XXX       0.0000    XXY       0.0000    XYY      -0.0000
       YYY       0.0000    XXZ       2.4798    XYZ       7.0779
       YYZ       3.9284    XZZ      -0.0000    YZZ      -0.0000
       ZZZ     -12.5215
    Hexadecapole Moments (Debye-Ang^3)
      XXXX   -1252.8407   XXXY      -4.1650   XXYY    -359.7236
      XYYY       4.0307   YYYY    -101.3874   XXXZ      -0.0000
      XXYZ      -0.0000   XYYZ       0.0000   YYYZ       0.0000
      XXZZ    -320.2565   XYZZ      -7.1078   YYZZ    -109.3141
      XZZZ      -0.0000   YZZZ       0.0000   ZZZZ    -472.7407
 -----------------------------------------------------------------
 DrvMan is completing analytic gradient of the MP2 energy
 MP2 relaxed dipole moment
            1
    1   0.0000000
    2   0.0000000
    3  -0.3866041
	Magnitude:	 0.387 au	 0.983 Debye
 MP2 energy read as -1103.106896
 Full Analytical Gradient of MP2 Energy (in au.)
             1             2             3             4             5
    1   -0.00102853   -0.00093449    0.00014336    0.00006300   -0.00175439
    2    0.00218777    0.00131933   -0.00003817   -0.00455820    0.00085498
    3    0.00033705    0.00071575   -0.00152704    0.00291619   -0.00183274
             6             7             8             9            10
    1    0.00039079    0.00175439    0.00102852   -0.00006300    0.00093449
    2    0.00062627   -0.00085497   -0.00218778    0.00455820   -0.00131933
    3   -0.00069953   -0.00183274    0.00033705    0.00291619    0.00071575
            11            12            13            14            15
    1   -0.00014336   -0.00005313   -0.00008537    0.00005313    0.00008537
    2    0.00003818   -0.00056629   -0.00104053    0.00056629    0.00104053
    3   -0.00152704   -0.00012877    0.00021908   -0.00012877    0.00021908
            16
    1   -0.00039079
    2   -0.00062627
    3   -0.00069953
 Gradient time:  CPU 1.48 s  wall 0.10 s
 Geometry Optimization Parameters
   NAtoms,    NIC,     NZ,  NCons,   NDum,   NFix, NCnnct, MaxDiis
       16     111       0       1       0       0       0       0


** CONSTRAINED OPTIMIZATION IN DELOCALIZED INTERNAL COORDINATES **
   Searching for a Minimum

   Optimization Cycle:   1

                       Coordinates (Angstroms)
     ATOM                X               Y               Z
      1  S         1.5930578150    0.2247697256    1.1300988259
      2  C         3.0325615425    0.0497357319    0.3249492704
      3  C         2.8951510870   -0.1868288225   -1.0339127147
      4  C         1.5817710647   -0.2230022590   -1.4101654480
      5  C         0.6981014180   -0.0161394475   -0.3531326724
      6  H         1.2524614855   -0.3935652806   -2.4204643381
      7  C        -0.6981014180    0.0161394475   -0.3531326724
      8  S        -1.5930578150   -0.2247697256    1.1300988259
      9  C        -1.5817710647    0.2230022590   -1.4101654480
     10  C        -3.0325615425   -0.0497357319    0.3249492704
     11  C        -2.8951510870    0.1868288225   -1.0339127147
     12  H        -3.7339077510    0.3216202197   -1.6900497610
     13  H         3.9605986841    0.1235030125    0.8625022749
     14  H         3.7339077510   -0.3216202197   -1.6900497610
     15  H        -3.9605986841   -0.1235030125    0.8625022749
     16  H        -1.2524614855    0.3935652806   -2.4204643381
   Point Group: c2    Number of degrees of freedom:    22


   Energy is  -1103.106896298

              Constraints and their Current Values
                                        Value     Constraint
   Dihedral:        4   5   7   9      -20.000      -20.000

 Attempting to Generate Delocalized Internal Coordinates

 21 Hessian modes will be used to form the next step
  Hessian Eigenvalues:
     0.045000    0.045000    0.045000    0.045000    0.045000    0.045000
     0.160000    0.160000    0.160000    0.221335    0.237679    0.250000
     0.299411    0.364554    0.366034    0.368031    0.392996    0.445237
     0.461927    0.467905    0.501257

 Minimum Search - Taking Simple RFO Step
 Searching for Lamda that Minimizes Along All modes
 Value Taken    Lamda =  -0.00069424
 Step Taken.  Stepsize is  0.095006

                             Maximum     Tolerance    Cnvgd?
         Gradient           0.007574      0.000300      NO
         Displacement       0.050941      0.001200      NO
         Energy change     *********      0.000001      NO


 New Cartesian Coordinates Obtained by Inverse Iteration

 Displacement from previous Coordinates is:  0.213816
 ----------------------------------------------------------------
             Standard Nuclear Orientation (Angstroms)
    I     Atom           X                Y                Z
 ----------------------------------------------------------------
    1      S       1.6190789151     0.2059479211     1.1437151824
    2      C       3.0477882959     0.0430947277     0.3158374804
    3      C       2.8885090170    -0.1799259597    -1.0417351231
    4      C       1.5697762516    -0.2044604186    -1.4010258300
    5      C       0.7000550054    -0.0069432296    -0.3298233476
    6      H       1.2230727036    -0.3720356633    -2.4053118155
    7      C      -0.7000550054     0.0069432296    -0.3298233476
    8      S      -1.6190789151    -0.2059479211     1.1437151824
    9      C      -1.5697762516     0.2044604186    -1.4010258300
   10      C      -3.0477882959    -0.0430947277     0.3158374804
   11      C      -2.8885090170     0.1799259597    -1.0417351231
   12      H      -3.7169419897     0.3152528832    -1.7106381366
   13      H       3.9841741038     0.1169367110     0.8388070270
   14      H       3.7169419897    -0.3152528832    -1.7106381366
   15      H      -3.9841741038    -0.1169367110     0.8388070270
   16      H      -1.2230727036     0.3720356633    -2.4053118155
 ----------------------------------------------------------------
 Molecular Point Group                 C2    NOp =  2
 Largest Abelian Subgroup              C2    NOp =  2
 Nuclear Repulsion Energy =   642.5502070864 hartrees
 There are       43 alpha and       42 beta electrons
 Applying Cartesian multipole field
    Component          Value
    ---------          -----
     (2,0,0)        1.00000E-11
     (0,2,0)        2.00000E-10
     (0,0,2)       -3.00000E-11
 Nucleus-field energy     =     0.0000000053 hartrees
 Requested basis set is cc-pVTZ
 There are 140 shells and 392 basis functions
 A cutoff of  1.0D-11 yielded   8062 shell pairs
 There are     62570 function pairs (     81552 Cartesian)
 Smallest overlap matrix eigenvalue = 5.32E-05
 Guess MOs from SCF MO coefficient file
 Reading MOs from coefficient file
 Reading MOs from coefficient file
 An unrestricted Hartree-Fock SCF calculation will be
 performed using Pulay DIIS extrapolation
 SCF converges when DIIS error is below 1.0E-08
 Geometry optimization detected.  Setting ReadMinima to 0
 Setting SaveMinima to 0
 using 16 threads for integral computing 
 ---------------------------------------
  Cycle       Energy         DIIS Error
 ---------------------------------------
    1   -1101.3551248271      3.90E-04
    2   -1101.3648000295      5.28E-05
    3   -1101.3649026465      2.07E-05
    4   -1101.3649164034      1.10E-05
    5   -1101.3649208105      2.98E-06
    6   -1101.3649213874      1.27E-06
    7   -1101.3649216247      5.77E-07
    8   -1101.3649217284      2.93E-07
    9   -1101.3649217967      2.14E-07
   10   -1101.3649218534      1.51E-07
   11   -1101.3649218949      8.50E-08
   12   -1101.3649219064      4.64E-08
   13   -1101.3649219100      2.29E-08
   14   -1101.3649219106      1.23E-08
   15   -1101.3649219106      5.72E-09 Convergence criterion met
 ---------------------------------------
 <S^2> = 1.0460
 SCF time:  CPU 1114.81 s  wall 69.72 s
 SCF   energy in the final basis set = -1101.3649219106
 Total energy in the final basis set = -1101.3649219106
 
 Components of the MP2 correlation energy:
        aaaa  correlation energy =        -0.2338953863 au
        abab  correlation energy =        -1.2985894087 au
        bbbb  correlation energy =        -0.2103243259 au
        non-Brillouin singles    =        -0.0000000000 au

 Total  MP2   correlation energy =        -1.7428091209 au
        MP2         total energy =     -1103.1077310315 au

  Entering Z-vector solver.
   1         0           1      0.000538    0.000538
   2         0           1      0.000475    0.000475
   3         0           1      0.000293    0.000293
   4         0           1      0.000211    0.000211
   5         0           1      0.000097    0.000097
   6         0           1      0.000051    0.000051
   7         0           1      0.000030    0.000030
   8         0           1      0.000018    0.000018
   9         0           1      0.000007    0.000007
  10         0           1      0.000003    0.000003
  11         0           1      0.000001    0.000001
  12         1           0      0.000000    0.000000    Roots Converged
 Warning:  Cannot save MP2 spin density
 
 --------------------------------------------------------------
             Orbital Energies (a.u.) and Symmetries
 --------------------------------------------------------------
 
 Alpha MOs, Unrestricted
 -- Occupied --                  
-92.160 -92.160 -11.476 -11.475 -11.452 -11.452 -11.434 -11.434
  1 A     1 B     2 A     2 B     3 B     3 A     4 B     4 A                  
-11.404 -11.404  -9.162  -9.162  -6.843  -6.843  -6.842  -6.842
  5 A     5 B     6 B     6 A     7 B     7 A     8 A     8 B                  
 -6.840  -6.840  -1.394  -1.364  -1.232  -1.192  -1.183  -1.129
  9 A     9 B    10 A    10 B    11 A    12 A    11 B    12 B                  
 -1.001  -0.962  -0.925  -0.905  -0.892  -0.821  -0.754  -0.752
 13 A    14 A    13 B    14 B    15 A    15 B    16 A    16 B                  
 -0.750  -0.737  -0.733  -0.710  -0.692  -0.668  -0.642  -0.583
 17 A    17 B    18 A    19 A    18 B    20 A    19 B    20 B                  
 -0.535  -0.527  -0.475
 21 A    21 B    22 A                                                          
 -- Virtual --                   
 -0.127  -0.028  -0.011   0.013   0.013   0.023   0.041   0.046
 22 B    23 A    24 A    25 A    23 B    24 B    26 A    25 B                  
  0.055   0.067   0.070   0.076   0.117   0.143   0.145   0.194
 27 A    26 B    28 A    29 A    27 B    30 A    28 B    31 A                  
  0.200   0.200   0.212   0.221   0.227   0.242   0.262   0.265
 29 B    32 A    30 B    33 A    31 B    32 B    33 B    34 A                  
  0.281   0.281   0.300   0.304   0.314   0.319   0.347   0.349
 34 B    35 A    35 B    36 A    36 B    37 A    37 B    38 A                  
  0.363   0.370   0.378   0.382   0.386   0.399   0.401   0.406
 38 B    39 A    40 A    39 B    41 A    42 A    40 B    41 B                  
  0.411   0.425   0.441   0.447   0.452   0.456   0.462   0.463
 43 A    42 B    44 A    43 B    45 A    44 B    45 B    46 A                  
  0.477   0.482   0.494   0.511   0.512   0.534   0.570   0.574
 47 A    46 B    48 A    49 A    47 B    48 B    50 A    51 A                  
  0.578   0.598   0.612   0.635   0.649   0.655   0.673   0.694
 49 B    50 B    52 A    51 B    52 B    53 A    54 A    55 A                  
  0.694   0.713   0.724   0.741   0.753   0.772   0.774   0.776
 53 B    54 B    56 A    55 B    57 A    56 B    57 B    58 A                  
  0.807   0.820   0.837   0.845   0.884   0.907   0.910   0.910
 59 A    58 B    59 B    60 A    60 B    61 A    62 A    61 B                  
  0.919   0.925   0.935   0.947   0.968   0.990   0.996   1.006
 63 A    62 B    63 B    64 A    64 B    65 A    66 A    65 B                  
  1.033   1.041   1.058   1.060   1.078   1.087   1.094   1.109
 66 B    67 A    67 B    68 A    68 B    69 B    69 A    70 A                  
  1.129   1.143   1.150   1.165   1.199   1.230   1.250   1.267
 70 B    71 B    71 A    72 A    73 A    72 B    74 A    73 B                  
  1.284   1.295   1.306   1.315   1.334   1.350   1.352   1.373
 75 A    74 B    76 A    75 B    77 A    78 A    76 B    77 B                  
  1.386   1.390   1.405   1.407   1.429   1.447   1.468   1.470
 78 B    79 A    79 B    80 A    81 A    80 B    81 B    82 A                  
  1.487   1.492   1.543   1.567   1.579   1.592   1.638   1.652
 83 A    82 B    83 B    84 A    84 B    85 A    86 A    85 B                  
  1.681   1.689   1.694   1.720   1.725   1.750   1.761   1.793
 86 B    87 B    87 A    88 B    88 A    89 A    89 B    90 A                  
  1.793   1.806   1.901   1.904   1.919   1.943   1.959   1.978
 90 B    91 A    91 B    92 A    92 B    93 A    93 B    94 A                  
  1.998   2.014   2.036   2.044   2.060   2.060   2.088   2.099
 94 B    95 A    96 A    95 B    96 B    97 A    97 B    98 B                  
  2.107   2.117   2.148   2.223   2.237   2.262   2.276   2.306
 98 A    99 A    99 B   100 B   100 A   101 A   101 B   102 A                  
  2.315   2.318   2.332   2.358   2.371   2.371   2.404   2.405
103 A   102 B   103 B   104 A   105 A   104 B   106 A   105 B                  
  2.463   2.485   2.489   2.501   2.528   2.559   2.564   2.581
106 B   107 A   108 A   107 B   109 A   108 B   110 A   109 B                  
  2.587   2.597   2.622   2.625   2.639   2.696   2.699   2.723
111 A   110 B   112 A   111 B   112 B   113 A   113 B   114 A                  
  2.727   2.746   2.756   2.765   2.809   2.821   2.833   2.859
114 B   115 A   115 B   116 A   116 B   117 A   118 A   117 B                  
  2.868   2.881   2.909   2.926   2.978   2.982   2.993   3.011
118 B   119 A   120 A   119 B   121 A   120 B   122 A   121 B                  
  3.027   3.048   3.049   3.065   3.066   3.075   3.081   3.116
122 B   123 B   123 A   124 A   124 B   125 B   125 A   126 A                  
  3.121   3.131   3.135   3.136   3.161   3.182   3.190   3.218
126 B   127 A   127 B   128 A   129 A   128 B   130 A   129 B                  
  3.228   3.235   3.242   3.266   3.268   3.279   3.296   3.299
130 B   131 A   132 A   133 A   131 B   134 A   132 B   135 A                  
  3.322   3.326   3.334   3.334   3.343   3.352   3.355   3.373
133 B   134 B   135 B   136 A   137 A   136 B   138 A   137 B                  
  3.382   3.382   3.394   3.409   3.422   3.439   3.458   3.494
139 A   138 B   139 B   140 A   140 B   141 A   141 B   142 A                  
  3.502   3.531   3.541   3.557   3.571   3.587   3.593   3.617
142 B   143 B   143 A   144 B   144 A   145 A   145 B   146 A                  
  3.632   3.661   3.713   3.728   3.730   3.741   3.754   3.789
147 A   146 B   148 A   147 B   148 B   149 A   149 B   150 B                  
  3.798   3.817   3.827   3.829   3.846   3.855   3.873   3.891
150 A   151 A   152 A   151 B   152 B   153 A   154 A   153 B                  
  3.931   3.952   3.968   3.973   3.991   4.014   4.022   4.025
155 A   154 B   156 A   155 B   157 A   156 B   158 A   157 B                  
  4.041   4.042   4.048   4.066   4.107   4.132   4.142   4.153
158 B   159 A   160 A   159 B   161 A   162 A   160 B   161 B                  
  4.169   4.192   4.258   4.294   4.310   4.320   4.320   4.348
162 B   163 A   163 B   164 A   165 A   166 A   164 B   167 A                  
  4.356   4.402   4.430   4.461   4.473   4.499   4.513   4.543
165 B   166 B   167 B   168 A   169 A   168 B   170 A   169 B                  
  4.545   4.569   4.581   4.589   4.641   4.676   4.687   4.709
171 A   170 B   172 A   171 B   173 A   172 B   174 A   175 A                  
  4.744   4.792   4.831   4.839   4.876   4.892   4.895   4.915
173 B   174 B   176 A   175 B   177 A   176 B   178 A   179 A                  
  4.959   5.007   5.036   5.066   5.079   5.115   5.179   5.184
177 B   178 B   180 A   179 B   180 B   181 A   182 A   181 B                  
  5.223   5.264   5.279   5.295   5.409   5.430   5.460   5.530
183 A   182 B   183 B   184 A   185 A   184 B   185 B   186 A                  
  5.643   5.743   5.852   5.921   5.930   5.985   6.011   6.075
187 A   186 B   188 A   187 B   189 A   188 B   190 A   189 B                  
  6.319   6.356   6.445   6.525   6.693   9.139  11.006  11.650
190 B   191 A   191 B   192 A   192 B   193 A   193 B   194 A                  
 12.743  12.986  13.822  14.462  15.093
194 B   195 A   195 B   196 A   196 B                                          
 
 Beta MOs, Unrestricted
 -- Occupied --                  
-92.161 -92.161 -11.476 -11.475 -11.440 -11.440 -11.426 -11.426
  1 A     1 B     2 A     2 B     3 B     3 A     4 B     4 A                  
-11.410 -11.410  -9.164  -9.164  -6.845  -6.845  -6.844  -6.844
  5 B     5 A     6 B     6 A     7 A     7 B     8 B     8 A                  
 -6.843  -6.843  -1.383  -1.349  -1.222  -1.188  -1.174  -1.105
  9 B     9 A    10 A    10 B    11 A    12 A    11 B    12 B                  
 -0.993  -0.954  -0.914  -0.899  -0.890  -0.818  -0.753  -0.743
 13 A    14 A    13 B    14 B    15 A    15 B    16 A    17 A                  
 -0.733  -0.730  -0.721  -0.685  -0.669  -0.661  -0.642  -0.540
 16 B    18 A    17 B    18 B    19 A    20 A    19 B    20 B                  
 -0.532  -0.518
 21 A    21 B                                                                  
 -- Virtual --                   
 -0.179  -0.059  -0.019   0.010   0.017   0.025   0.030   0.042
 22 A    22 B    23 A    24 A    25 A    23 B    24 B    26 A                  
  0.047   0.062   0.069   0.073   0.096   0.119   0.145   0.148
 25 B    27 A    26 B    28 A    29 A    27 B    30 A    28 B                  
  0.198   0.202   0.203   0.216   0.221   0.229   0.244   0.271
 31 A    29 B    32 A    30 B    33 A    31 B    32 B    33 B                  
  0.273   0.284   0.290   0.306   0.313   0.318   0.319   0.342
 34 A    35 A    34 B    36 A    35 B    36 B    37 A    37 B                  
  0.355   0.376   0.377   0.390   0.390   0.394   0.412   0.412
 38 A    39 A    38 B    39 B    40 A    41 A    40 B    42 A                  
  0.420   0.427   0.428   0.445   0.449   0.457   0.460   0.467
 41 B    42 B    43 A    44 A    43 B    45 A    44 B    45 B                  
  0.469   0.481   0.487   0.503   0.514   0.517   0.539   0.570
 46 A    47 A    46 B    48 A    49 A    47 B    48 B    50 A                  
  0.577   0.581   0.603   0.614   0.637   0.651   0.656   0.675
 51 A    49 B    50 B    52 A    51 B    52 B    53 A    54 A                  
  0.696   0.697   0.719   0.733   0.747   0.756   0.775   0.779
 53 B    55 A    54 B    56 A    55 B    57 A    56 B    58 A                  
  0.781   0.811   0.823   0.838   0.848   0.887   0.908   0.913
 57 B    59 A    58 B    59 B    60 A    60 B    61 A    61 B                  
  0.913   0.926   0.928   0.939   0.956   0.971   0.992   1.001
 62 A    63 A    62 B    63 B    64 A    64 B    65 A    66 A                  
  1.011   1.037   1.043   1.060   1.063   1.080   1.091   1.098
 65 B    66 B    67 A    67 B    68 A    68 B    69 B    69 A                  
  1.110   1.130   1.149   1.158   1.168   1.205   1.240   1.260
 70 A    70 B    71 B    71 A    72 A    73 A    72 B    74 A                  
  1.269   1.287   1.300   1.312   1.321   1.339   1.350   1.356
 73 B    75 A    74 B    76 A    75 B    77 A    78 A    76 B                  
  1.377   1.387   1.392   1.407   1.411   1.432   1.449   1.474
 77 B    78 B    79 A    79 B    80 A    81 A    80 B    82 A                  
  1.474   1.490   1.494   1.544   1.569   1.582   1.596   1.639
 81 B    83 A    82 B    83 B    84 A    84 B    85 A    86 A                  
  1.653   1.680   1.689   1.693   1.725   1.726   1.753   1.763
 85 B    86 B    87 B    87 A    88 B    88 A    89 A    89 B                  
  1.793   1.794   1.806   1.901   1.903   1.919   1.946   1.959
 90 B    90 A    91 A    91 B    92 A    92 B    93 A    93 B                  
  1.977   1.998   2.014   2.037   2.044   2.059   2.060   2.088
 94 A    94 B    95 A    96 A    95 B    97 A    96 B    97 B                  
  2.115   2.115   2.128   2.150   2.236   2.238   2.263   2.273
 98 A    98 B    99 A    99 B   100 A   100 B   101 A   101 B                  
  2.309   2.320   2.320   2.336   2.360   2.386   2.389   2.406
102 A   102 B   103 A   103 B   104 A   104 B   105 A   105 B                  
  2.410   2.469   2.487   2.491   2.506   2.529   2.563   2.569
106 A   106 B   107 A   108 A   107 B   109 A   108 B   110 A                  
  2.585   2.597   2.603   2.627   2.630   2.642   2.701   2.709
109 B   111 A   110 B   112 A   111 B   112 B   113 A   113 B                  
  2.729   2.733   2.751   2.766   2.767   2.812   2.824   2.841
114 B   114 A   115 A   116 A   115 B   116 B   117 A   118 A                  
  2.865   2.873   2.891   2.916   2.930   2.981   2.986   2.994
117 B   118 B   119 A   120 A   119 B   121 A   120 B   122 A                  
  3.023   3.030   3.048   3.052   3.071   3.073   3.082   3.086
121 B   122 B   123 B   123 A   124 B   124 A   125 B   125 A                  
  3.119   3.126   3.139   3.141   3.147   3.170   3.187   3.193
126 A   126 B   127 A   127 B   128 A   129 A   128 B   130 A                  
  3.218   3.231   3.237   3.247   3.268   3.274   3.284   3.300
129 B   130 B   131 A   132 A   133 A   131 B   134 A   132 B                  
  3.305   3.330   3.337   3.340   3.340   3.350   3.357   3.365
135 A   133 B   134 B   135 B   136 A   137 A   136 B   138 A                  
  3.377   3.385   3.385   3.402   3.413   3.423   3.442   3.462
137 B   138 B   139 A   139 B   140 A   140 B   141 A   141 B                  
  3.496   3.506   3.537   3.546   3.562   3.572   3.591   3.599
142 A   142 B   143 B   143 A   144 B   144 A   145 A   145 B                  
  3.621   3.638   3.663   3.722   3.729   3.734   3.742   3.758
146 A   147 A   146 B   148 A   147 B   148 B   149 A   149 B                  
  3.791   3.800   3.819   3.829   3.833   3.852   3.858   3.876
150 B   150 A   151 A   152 A   151 B   152 B   153 A   154 A                  
  3.894   3.931   3.955   3.971   3.975   3.993   4.014   4.023
153 B   155 A   154 B   156 A   155 B   157 A   156 B   158 A                  
  4.028   4.044   4.045   4.050   4.067   4.108   4.133   4.143
157 B   159 A   158 B   160 A   159 B   161 A   162 A   160 B                  
  4.155   4.170   4.193   4.259   4.295   4.311   4.321   4.322
161 B   162 B   163 A   163 B   164 A   165 A   166 A   164 B                  
  4.350   4.357   4.405   4.434   4.466   4.475   4.500   4.514
167 A   165 B   166 B   167 B   168 A   169 A   168 B   170 A                  
  4.547   4.547   4.569   4.583   4.589   4.642   4.677   4.689
171 A   169 B   170 B   172 A   171 B   173 A   172 B   174 A                  
  4.711   4.744   4.796   4.832   4.841   4.880   4.894   4.896
175 A   173 B   174 B   176 A   175 B   177 A   176 B   178 A                  
  4.917   4.961   5.007   5.036   5.068   5.086   5.121   5.181
179 A   177 B   178 B   180 A   179 B   180 B   181 A   182 A                  
  5.184   5.224   5.265   5.280   5.296   5.410   5.432   5.461
181 B   183 A   182 B   183 B   184 A   185 A   184 B   185 B                  
  5.531   5.643   5.744   5.853   5.922   5.932   5.986   6.011
186 A   187 A   186 B   188 A   187 B   189 A   188 B   190 A                  
  6.076   6.319   6.357   6.446   6.525   6.694   9.141  11.010
189 B   190 B   191 A   191 B   192 A   192 B   193 A   193 B                  
 11.654  12.747  12.991  13.821  14.463  15.096
194 A   194 B   195 A   195 B   196 A   196 B                                  
 --------------------------------------------------------------
 
          Ground-State Mulliken Net Atomic Charges

     Atom                 Charge (a.u.)    Spin (a.u.)
  --------------------------------------------------------
      1 S                     0.242029      -0.026720
      2 C                    -0.111877       0.016921
      3 C                    -0.170821       0.384203
      4 C                    -0.116999      -0.186132
      5 C                    -0.017057       0.314940
      6 H                     0.208321       0.018414
      7 C                    -0.017057       0.314940
      8 S                     0.242029      -0.026720
      9 C                    -0.116999      -0.186132
     10 C                    -0.111877       0.016921
     11 C                    -0.170821       0.384203
     12 H                     0.224267      -0.031379
     13 H                     0.242137       0.009754
     14 H                     0.224267      -0.031379
     15 H                     0.242137       0.009754
     16 H                     0.208321       0.018414
  --------------------------------------------------------
  Sum of atomic charges =     1.000000
  Sum of spin   charges =     1.000000

 -----------------------------------------------------------------
                    Cartesian Multipole Moments
 -----------------------------------------------------------------
    Charge (ESU x 10^10)
                 4.8032
    Dipole Moment (Debye)
         X       0.0000      Y      -0.0000      Z      -0.9863
       Tot       0.9863
    Quadrupole Moments (Debye-Ang)
        XX     -22.1177     XY      -0.4924     YY     -73.0661
        XZ      -0.0000     YZ       0.0000     ZZ     -55.9778
    Octopole Moments (Debye-Ang^2)
       XXX       0.0000    XXY      -0.0000    XYY       0.0000
       YYY       0.0000    XXZ       2.2586    XYZ       6.7605
       YYZ       3.4708    XZZ       0.0000    YZZ      -0.0000
       ZZZ     -13.7291
    Hexadecapole Moments (Debye-Ang^3)
      XXXX   -1258.2730   XXXY      -3.5613   XXYY    -361.8735
      XYYY       4.2547   YYYY     -99.3079   XXXZ       0.0000
      XXYZ       0.0000   XYYZ       0.0000   YYYZ       0.0000
      XXZZ    -323.4946   XYZZ      -6.9342   YYZZ    -109.6467
      XZZZ      -0.0000   YZZZ       0.0000   ZZZZ    -475.9772
 -----------------------------------------------------------------
 DrvMan is completing analytic gradient of the MP2 energy
 MP2 relaxed dipole moment
            1
    1   0.0000000
    2  -0.0000000
    3  -0.3880311
	Magnitude:	 0.388 au	 0.986 Debye
 MP2 energy read as -1103.107731
 Full Analytical Gradient of MP2 Energy (in au.)
             1             2             3             4             5
    1    0.00089195   -0.00007980    0.00013482   -0.00041910    0.00035656
    2    0.00097310    0.00119259   -0.00032596   -0.00329706    0.00266781
    3   -0.00002254    0.00085908   -0.00015567    0.00188980   -0.00251686
             6             7             8             9            10
    1    0.00005427   -0.00035656   -0.00089195    0.00041910    0.00007980
    2    0.00019175   -0.00266781   -0.00097310    0.00329706   -0.00119259
    3   -0.00010710   -0.00251686   -0.00002254    0.00188980    0.00085908
            11            12            13            14            15
    1   -0.00013481   -0.00003237    0.00008934    0.00003237   -0.00008934
    2    0.00032596   -0.00024732   -0.00047295    0.00024732    0.00047295
    3   -0.00015567    0.00003120    0.00002208    0.00003120    0.00002208
            16
    1   -0.00005427
    2   -0.00019175
    3   -0.00010710
 Gradient time:  CPU 1.56 s  wall 0.10 s
 Geometry Optimization Parameters
   NAtoms,    NIC,     NZ,  NCons,   NDum,   NFix, NCnnct, MaxDiis
       16     111       0       1       0       0       0       0

 Cartesian Hessian Update
 Hessian Updated using BFGS Update


** CONSTRAINED OPTIMIZATION IN DELOCALIZED INTERNAL COORDINATES **
   Searching for a Minimum

   Optimization Cycle:   2

                       Coordinates (Angstroms)
     ATOM                X               Y               Z
      1  S         1.6190789151    0.2059479211    1.1437151824
      2  C         3.0477882959    0.0430947277    0.3158374804
      3  C         2.8885090170   -0.1799259597   -1.0417351231
      4  C         1.5697762516   -0.2044604186   -1.4010258300
      5  C         0.7000550054   -0.0069432296   -0.3298233476
      6  H         1.2230727036   -0.3720356633   -2.4053118155
      7  C        -0.7000550054    0.0069432296   -0.3298233476
      8  S        -1.6190789151   -0.2059479211    1.1437151824
      9  C        -1.5697762516    0.2044604186   -1.4010258300
     10  C        -3.0477882959   -0.0430947277    0.3158374804
     11  C        -2.8885090170    0.1799259597   -1.0417351231
     12  H        -3.7169419897    0.3152528832   -1.7106381366
     13  H         3.9841741038    0.1169367110    0.8388070270
     14  H         3.7169419897   -0.3152528832   -1.7106381366
     15  H        -3.9841741038   -0.1169367110    0.8388070270
     16  H        -1.2230727036    0.3720356633   -2.4053118155
   Point Group: c2    Number of degrees of freedom:    22


   Energy is  -1103.107731031

              Constraints and their Current Values
                                        Value     Constraint
   Dihedral:        4   5   7   9      -20.000      -20.000
 Hessian Updated using BFGS Update

 16 Hessian modes will be used to form the next step
  Hessian Eigenvalues:
     0.023419    0.047118    0.159596    0.160684    0.208396    0.223108
     0.257870    0.313416    0.364729    0.366088    0.368055    0.394101
     0.441648    0.467744    0.487894    0.523305

 Minimum Search - Taking Simple RFO Step
 Searching for Lamda that Minimizes Along All modes
 Value Taken    Lamda =  -0.00046943
 Step Taken.  Stepsize is  0.131035

                             Maximum     Tolerance    Cnvgd?
         Gradient           0.003003      0.000300      NO
         Displacement       0.087461      0.001200      NO
         Energy change     -0.000835      0.000001      NO


 New Cartesian Coordinates Obtained by Inverse Iteration

 Displacement from previous Coordinates is:  0.253994
 ----------------------------------------------------------------
             Standard Nuclear Orientation (Angstroms)
    I     Atom           X                Y                Z
 ----------------------------------------------------------------
    1      S       1.6356598329     0.1792852971     1.1605310508
    2      C       3.0526744245     0.0278184409     0.3071089808
    3      C       2.8760048486    -0.1663331434    -1.0517046243
    4      C       1.5534096654    -0.1764036072    -1.3934268417
    5      C       0.6996285490     0.0070388404    -0.3044132873
    6      H       1.1895160540    -0.3342009099    -2.3928244496
    7      C      -0.6996285490    -0.0070388404    -0.3044132873
    8      S      -1.6356598329    -0.1792852971     1.1605310508
    9      C      -1.5534096654     0.1764036072    -1.3934268417
   10      C      -3.0526744245    -0.0278184409     0.3071089808
   11      C      -2.8760048486     0.1663331434    -1.0517046243
   12      H      -3.6944146283     0.2982178082    -1.7335721838
   13      H       3.9959124785     0.0961158485     0.8181267921
   14      H       3.6944146283    -0.2982178082    -1.7335721838
   15      H      -3.9959124785    -0.0961158485     0.8181267921
   16      H      -1.1895160540     0.3342009099    -2.3928244496
 ----------------------------------------------------------------
 Molecular Point Group                 C2    NOp =  2
 Largest Abelian Subgroup              C2    NOp =  2
 Nuclear Repulsion Energy =   642.2814931696 hartrees
 There are       43 alpha and       42 beta electrons
 Applying Cartesian multipole field
    Component          Value
    ---------          -----
     (2,0,0)        1.00000E-11
     (0,2,0)        2.00000E-10
     (0,0,2)       -3.00000E-11
 Nucleus-field energy     =     0.0000000048 hartrees
 Requested basis set is cc-pVTZ
 There are 140 shells and 392 basis functions
 A cutoff of  1.0D-11 yielded   8072 shell pairs
 There are     62764 function pairs (     81796 Cartesian)
 Smallest overlap matrix eigenvalue = 5.62E-05
 Guess MOs from SCF MO coefficient file
 Reading MOs from coefficient file
 Reading MOs from coefficient file
 An unrestricted Hartree-Fock SCF calculation will be
 performed using Pulay DIIS extrapolation
 SCF converges when DIIS error is below 1.0E-08
 Geometry optimization detected.  Setting ReadMinima to 0
 Setting SaveMinima to 0
 using 16 threads for integral computing 
 ---------------------------------------
  Cycle       Energy         DIIS Error
 ---------------------------------------
    1   -1101.3572055220      5.03E-04
    2   -1101.3658640501      6.66E-05
    3   -1101.3660470045      2.65E-05
    4   -1101.3660757915      1.29E-05
    5   -1101.3660839415      3.74E-06
    6   -1101.3660854082      1.74E-06
    7   -1101.3660860467      9.81E-07
    8   -1101.3660863836      4.99E-07
    9   -1101.3660866471      4.11E-07
   10   -1101.3660868635      2.83E-07
   11   -1101.3660870390      1.31E-07
   12   -1101.3660870677      5.49E-08
   13   -1101.3660870715      2.61E-08
   14   -1101.3660870722      1.58E-08
   15   -1101.3660870726      9.39E-09 Convergence criterion met
 ---------------------------------------
 <S^2> = 1.0514
 SCF time:  CPU 1140.28 s  wall 71.32 s
 SCF   energy in the final basis set = -1101.3660870726
 Total energy in the final basis set = -1101.3660870726
 
 Components of the MP2 correlation energy:
        aaaa  correlation energy =        -0.2338493559 au
        abab  correlation energy =        -1.2979612178 au
        bbbb  correlation energy =        -0.2100949208 au
        non-Brillouin singles    =        -0.0000000000 au

 Total  MP2   correlation energy =        -1.7419054944 au
        MP2         total energy =     -1103.1079925670 au

  Entering Z-vector solver.
   1         0           1      0.000539    0.000539
   2         0           1      0.000473    0.000473
   3         0           1      0.000288    0.000288
   4         0           1      0.000204    0.000204
   5         0           1      0.000092    0.000092
   6         0           1      0.000048    0.000048
   7         0           1      0.000028    0.000028
   8         0           1      0.000016    0.000016
   9         0           1      0.000007    0.000007
  10         0           1      0.000003    0.000003
  11         0           1      0.000001    0.000001
  12         1           0      0.000000    0.000000    Roots Converged
 Warning:  Cannot save MP2 spin density
 
 --------------------------------------------------------------
             Orbital Energies (a.u.) and Symmetries
 --------------------------------------------------------------
 
 Alpha MOs, Unrestricted
 -- Occupied --                  
-92.160 -92.160 -11.476 -11.475 -11.452 -11.452 -11.434 -11.434
  1 A     1 B     2 A     2 B     3 B     3 A     4 B     4 A                  
-11.403 -11.403  -9.163  -9.163  -6.843  -6.843  -6.843  -6.843
  5 A     5 B     6 B     6 A     7 B     7 A     8 A     8 B                  
 -6.841  -6.841  -1.395  -1.364  -1.232  -1.193  -1.183  -1.129
  9 A     9 B    10 A    10 B    11 A    12 A    11 B    12 B                  
 -1.001  -0.962  -0.924  -0.905  -0.892  -0.821  -0.753  -0.752
 13 A    14 A    13 B    14 B    15 A    15 B    16 A    16 B                  
 -0.750  -0.736  -0.733  -0.711  -0.692  -0.669  -0.643  -0.584
 17 A    17 B    18 A    19 A    18 B    20 A    19 B    20 B                  
 -0.534  -0.528  -0.475
 21 A    21 B    22 A                                                          
 -- Virtual --                   
 -0.128  -0.027  -0.011   0.013   0.013   0.023   0.041   0.046
 22 B    23 A    24 A    25 A    23 B    24 B    26 A    25 B                  
  0.056   0.068   0.070   0.074   0.119   0.142   0.144   0.193
 27 A    26 B    28 A    29 A    27 B    30 A    28 B    31 A                  
  0.201   0.201   0.214   0.221   0.223   0.243   0.262   0.264
 29 B    32 A    30 B    33 A    31 B    32 B    33 B    34 A                  
  0.280   0.281   0.300   0.306   0.316   0.320   0.346   0.347
 34 B    35 A    35 B    36 A    36 B    37 A    37 B    38 A                  
  0.362   0.371   0.377   0.383   0.385   0.399   0.401   0.409
 38 B    39 A    40 A    39 B    41 A    42 A    40 B    41 B                  
  0.410   0.426   0.443   0.446   0.452   0.458   0.462   0.463
 43 A    42 B    44 A    43 B    45 A    44 B    45 B    46 A                  
  0.478   0.482   0.492   0.511   0.514   0.534   0.570   0.576
 47 A    46 B    48 A    49 A    47 B    48 B    50 A    51 A                  
  0.578   0.597   0.612   0.636   0.652   0.654   0.673   0.695
 49 B    50 B    52 A    51 B    52 B    53 A    54 A    53 B                  
  0.696   0.715   0.724   0.743   0.754   0.769   0.772   0.775
 55 A    54 B    56 A    55 B    57 A    56 B    58 A    57 B                  
  0.808   0.817   0.838   0.842   0.885   0.910   0.912   0.915
 59 A    58 B    59 B    60 A    60 B    61 A    62 A    61 B                  
  0.919   0.931   0.934   0.948   0.968   0.983   0.998   1.000
 63 A    62 B    63 B    64 A    64 B    65 A    66 A    65 B                  
  1.027   1.042   1.058   1.061   1.078   1.085   1.091   1.100
 66 B    67 A    67 B    68 A    68 B    69 B    69 A    70 A                  
  1.134   1.144   1.151   1.164   1.196   1.228   1.249   1.271
 70 B    71 B    71 A    72 A    73 A    72 B    74 A    73 B                  
  1.276   1.294   1.305   1.317   1.333   1.347   1.356   1.378
 75 A    74 B    76 A    75 B    77 A    78 A    76 B    77 B                  
  1.387   1.391   1.406   1.408   1.428   1.446   1.465   1.469
 78 B    79 A    79 B    80 A    81 A    80 B    81 B    82 A                  
  1.484   1.497   1.544   1.565   1.583   1.593   1.638   1.659
 83 A    82 B    83 B    84 A    84 B    85 A    86 A    85 B                  
  1.686   1.689   1.693   1.715   1.726   1.749   1.755   1.789
 86 B    87 A    87 B    88 B    88 A    89 A    89 B    90 B                  
  1.792   1.809   1.898   1.900   1.924   1.945   1.954   1.977
 90 A    91 A    92 A    91 B    92 B    93 A    93 B    94 A                  
  1.997   2.010   2.036   2.045   2.053   2.058   2.094   2.099
 94 B    95 A    96 A    95 B    97 A    96 B    97 B    98 B                  
  2.108   2.115   2.143   2.221   2.243   2.261   2.275   2.305
 98 A    99 A    99 B   100 B   100 A   101 A   101 B   102 A                  
  2.318   2.319   2.330   2.358   2.370   2.373   2.400   2.409
102 B   103 A   103 B   104 A   104 B   105 A   106 A   105 B                  
  2.461   2.487   2.489   2.509   2.528   2.561   2.563   2.581
106 B   107 A   108 A   107 B   109 A   110 A   108 B   109 B                  
  2.587   2.598   2.620   2.631   2.641   2.695   2.701   2.722
111 A   110 B   112 A   111 B   112 B   113 A   113 B   114 A                  
  2.725   2.747   2.754   2.761   2.807   2.820   2.831   2.859
114 B   115 A   115 B   116 A   116 B   117 A   118 A   117 B                  
  2.871   2.885   2.905   2.931   2.972   2.976   2.995   3.018
118 B   119 A   120 A   119 B   121 A   120 B   122 A   121 B                  
  3.028   3.047   3.050   3.063   3.072   3.079   3.082   3.115
122 B   123 A   123 B   124 A   124 B   125 B   125 A   126 A                  
  3.124   3.132   3.133   3.136   3.161   3.181   3.187   3.219
126 B   127 B   127 A   128 A   129 A   128 B   130 A   129 B                  
  3.232   3.236   3.243   3.265   3.265   3.280   3.297   3.298
130 B   131 A   132 A   133 A   131 B   134 A   132 B   135 A                  
  3.322   3.324   3.330   3.336   3.343   3.355   3.362   3.376
133 B   134 B   135 B   136 A   137 A   138 A   136 B   137 B                  
  3.380   3.381   3.394   3.408   3.414   3.438   3.457   3.496
138 B   139 A   139 B   140 A   140 B   141 A   141 B   142 A                  
  3.505   3.532   3.540   3.558   3.570   3.592   3.593   3.614
142 B   143 B   143 A   144 B   144 A   145 A   145 B   146 A                  
  3.631   3.657   3.715   3.724   3.729   3.730   3.752   3.797
147 A   146 B   148 A   147 B   149 A   148 B   149 B   150 B                  
  3.804   3.819   3.829   3.832   3.849   3.855   3.871   3.894
150 A   151 A   152 A   151 B   152 B   153 A   154 A   153 B                  
  3.930   3.950   3.967   3.975   3.989   4.016   4.024   4.025
155 A   154 B   156 A   155 B   157 A   156 B   157 B   158 A                  
  4.041   4.045   4.050   4.067   4.101   4.135   4.149   4.156
158 B   159 A   160 A   159 B   161 A   162 A   160 B   161 B                  
  4.175   4.195   4.260   4.297   4.313   4.320   4.323   4.348
162 B   163 A   163 B   164 A   165 A   164 B   166 A   167 A                  
  4.357   4.401   4.430   4.463   4.478   4.499   4.511   4.539
165 B   166 B   167 B   168 A   169 A   168 B   170 A   171 A                  
  4.545   4.570   4.582   4.594   4.643   4.684   4.687   4.709
169 B   170 B   172 A   171 B   173 A   174 A   172 B   175 A                  
  4.757   4.791   4.821   4.844   4.869   4.894   4.897   4.916
173 B   174 B   176 A   175 B   177 A   176 B   178 A   179 A                  
  4.962   5.006   5.039   5.070   5.079   5.114   5.176   5.182
177 B   178 B   180 A   179 B   180 B   181 A   182 A   181 B                  
  5.224   5.266   5.278   5.296   5.409   5.430   5.460   5.529
183 A   182 B   183 B   184 A   185 A   184 B   185 B   186 A                  
  5.637   5.750   5.855   5.921   5.933   5.982   6.011   6.083
187 A   186 B   188 A   187 B   189 A   188 B   190 A   189 B                  
  6.335   6.353   6.448   6.526   6.689   9.115  11.019  11.632
190 B   191 A   191 B   192 A   192 B   193 A   193 B   194 A                  
 12.764  12.977  13.842  14.472  15.078
194 B   195 A   195 B   196 A   196 B                                          
 
 Beta MOs, Unrestricted
 -- Occupied --                  
-92.162 -92.162 -11.476 -11.475 -11.439 -11.439 -11.426 -11.426
  1 A     1 B     2 A     2 B     3 B     3 A     4 B     4 A                  
-11.410 -11.410  -9.164  -9.164  -6.845  -6.845  -6.845  -6.845
  5 B     5 A     6 B     6 A     7 A     7 B     8 B     8 A                  
 -6.844  -6.844  -1.383  -1.349  -1.222  -1.188  -1.174  -1.104
  9 B     9 A    10 A    10 B    11 A    12 A    11 B    12 B                  
 -0.993  -0.954  -0.914  -0.899  -0.890  -0.818  -0.753  -0.743
 13 A    14 A    13 B    14 B    15 A    15 B    16 A    17 A                  
 -0.733  -0.730  -0.720  -0.686  -0.670  -0.661  -0.643  -0.540
 16 B    18 A    17 B    18 B    19 A    20 A    19 B    20 B                  
 -0.532  -0.519
 21 A    21 B                                                                  
 -- Virtual --                   
 -0.177  -0.059  -0.019   0.011   0.017   0.025   0.029   0.043
 22 A    22 B    23 A    24 A    25 A    23 B    24 B    26 A                  
  0.046   0.062   0.070   0.073   0.096   0.121   0.144   0.147
 25 B    27 A    26 B    28 A    29 A    27 B    30 A    28 B                  
  0.198   0.203   0.203   0.218   0.222   0.225   0.246   0.271
 31 A    29 B    32 A    30 B    33 A    31 B    32 B    33 B                  
  0.273   0.283   0.289   0.307   0.312   0.319   0.320   0.343
 34 A    35 A    34 B    36 A    35 B    37 A    36 B    37 B                  
  0.353   0.376   0.376   0.389   0.391   0.393   0.411   0.415
 38 A    39 A    38 B    40 A    39 B    41 A    42 A    40 B                  
  0.422   0.427   0.429   0.447   0.447   0.457   0.463   0.467
 41 B    42 B    43 A    44 A    43 B    45 A    44 B    45 B                  
  0.469   0.482   0.487   0.502   0.513   0.519   0.538   0.571
 46 A    47 A    46 B    48 A    49 A    47 B    48 B    50 A                  
  0.579   0.581   0.603   0.613   0.638   0.654   0.655   0.676
 51 A    49 B    50 B    52 A    51 B    52 B    53 A    54 A                  
  0.697   0.698   0.721   0.734   0.749   0.757   0.773   0.775
 53 B    55 A    54 B    56 A    55 B    57 A    56 B    58 A                  
  0.780   0.812   0.820   0.839   0.845   0.889   0.911   0.915
 57 B    59 A    58 B    59 B    60 A    60 B    61 A    62 A                  
  0.917   0.926   0.935   0.937   0.957   0.971   0.985   1.001
 61 B    63 A    62 B    63 B    64 A    64 B    65 A    66 A                  
  1.005   1.032   1.044   1.060   1.066   1.081   1.088   1.093
 65 B    66 B    67 A    67 B    68 A    68 B    69 B    69 A                  
  1.103   1.135   1.149   1.158   1.167   1.202   1.237   1.259
 70 A    70 B    71 B    71 A    72 A    73 A    72 B    74 A                  
  1.273   1.278   1.300   1.312   1.323   1.339   1.348   1.360
 73 B    75 A    74 B    76 A    75 B    77 A    78 A    76 B                  
  1.381   1.388   1.392   1.408   1.412   1.431   1.448   1.471
 77 B    78 B    79 A    79 B    80 A    81 A    80 B    81 B                  
  1.473   1.487   1.500   1.545   1.566   1.586   1.597   1.640
 82 A    83 A    82 B    83 B    84 A    84 B    85 A    86 A                  
  1.660   1.686   1.687   1.694   1.718   1.726   1.753   1.758
 85 B    86 B    87 A    87 B    88 B    88 A    89 A    89 B                  
  1.789   1.793   1.809   1.897   1.900   1.924   1.949   1.954
 90 B    90 A    91 A    92 A    91 B    92 B    93 A    93 B                  
  1.977   1.996   2.010   2.037   2.045   2.052   2.059   2.095
 94 A    94 B    95 A    96 A    95 B    97 A    96 B    97 B                  
  2.114   2.114   2.127   2.145   2.236   2.240   2.262   2.272
 98 B    98 A    99 A    99 B   100 B   100 A   101 A   101 B                  
  2.308   2.320   2.327   2.335   2.360   2.385   2.390   2.407
102 A   102 B   103 A   103 B   104 A   104 B   105 A   106 A                  
  2.410   2.468   2.488   2.491   2.514   2.529   2.566   2.568
105 B   106 B   107 A   108 A   107 B   109 A   110 A   108 B                  
  2.585   2.598   2.604   2.626   2.636   2.644   2.700   2.711
109 B   111 A   110 B   112 A   111 B   112 B   113 A   113 B                  
  2.727   2.731   2.752   2.764   2.765   2.810   2.823   2.838
114 B   114 A   115 A   116 A   115 B   116 B   117 A   118 A                  
  2.866   2.876   2.896   2.912   2.936   2.975   2.980   2.995
117 B   118 B   119 A   120 A   119 B   121 A   120 B   122 A                  
  3.028   3.031   3.050   3.051   3.071   3.081   3.083   3.088
121 B   122 B   123 A   123 B   124 A   124 B   125 B   125 A                  
  3.118   3.130   3.137   3.140   3.148   3.170   3.187   3.191
126 A   126 B   127 B   127 A   128 A   129 A   128 B   130 A                  
  3.219   3.236   3.238   3.247   3.269   3.271   3.285   3.301
129 B   130 B   131 A   132 A   133 A   131 B   134 A   132 B                  
  3.303   3.328   3.335   3.339   3.344   3.350   3.364   3.365
135 A   133 B   134 B   135 B   136 A   137 A   138 A   136 B                  
  3.380   3.382   3.384   3.402   3.411   3.417   3.441   3.460
137 B   138 B   139 A   139 B   140 A   140 B   141 A   141 B                  
  3.498   3.509   3.538   3.545   3.562   3.571   3.596   3.600
142 A   142 B   143 B   143 A   144 B   144 A   145 A   145 B                  
  3.619   3.637   3.659   3.723   3.726   3.730   3.733   3.756
146 A   147 A   146 B   148 A   147 B   149 A   148 B   149 B                  
  3.798   3.806   3.821   3.831   3.835   3.854   3.857   3.875
150 B   150 A   151 A   152 A   151 B   152 B   153 A   154 A                  
  3.896   3.931   3.953   3.970   3.978   3.991   4.016   4.026
153 B   155 A   154 B   156 A   155 B   157 A   156 B   158 A                  
  4.026   4.044   4.047   4.052   4.067   4.103   4.137   4.150
157 B   158 B   159 A   160 A   159 B   161 A   162 A   160 B                  
  4.158   4.177   4.196   4.260   4.298   4.314   4.322   4.324
161 B   162 B   163 A   163 B   164 A   165 A   164 B   166 A                  
  4.350   4.358   4.404   4.433   4.468   4.480   4.500   4.513
167 A   165 B   166 B   167 B   168 A   169 A   168 B   170 A                  
  4.540   4.549   4.571   4.585   4.594   4.644   4.687   4.689
171 A   169 B   170 B   172 A   171 B   173 A   174 A   172 B                  
  4.711   4.759   4.795   4.822   4.846   4.873   4.896   4.898
175 A   173 B   174 B   176 A   175 B   177 A   176 B   178 A                  
  4.919   4.964   5.007   5.040   5.071   5.087   5.120   5.178
179 A   177 B   178 B   180 A   179 B   180 B   181 A   182 A                  
  5.183   5.225   5.267   5.279   5.296   5.410   5.431   5.461
181 B   183 A   182 B   183 B   184 A   185 A   184 B   185 B                  
  5.531   5.638   5.751   5.856   5.921   5.934   5.982   6.011
186 A   187 A   186 B   188 A   187 B   189 A   188 B   190 A                  
  6.084   6.335   6.354   6.449   6.526   6.689   9.117  11.023
189 B   190 B   191 A   191 B   192 A   192 B   193 A   193 B                  
 11.636  12.768  12.982  13.842  14.473  15.081
194 A   194 B   195 A   195 B   196 A   196 B                                  
 --------------------------------------------------------------
 
          Ground-State Mulliken Net Atomic Charges

     Atom                 Charge (a.u.)    Spin (a.u.)
  --------------------------------------------------------
      1 S                     0.240363      -0.030192
      2 C                    -0.111263       0.026873
      3 C                    -0.171930       0.368964
      4 C                    -0.115374      -0.171465
      5 C                    -0.015064       0.309504
      6 H                     0.207461       0.017763
      7 C                    -0.015064       0.309504
      8 S                     0.240363      -0.030192
      9 C                    -0.115374      -0.171465
     10 C                    -0.111263       0.026873
     11 C                    -0.171930       0.368964
     12 H                     0.224266      -0.030616
     13 H                     0.241541       0.009171
     14 H                     0.224266      -0.030616
     15 H                     0.241541       0.009171
     16 H                     0.207461       0.017763
  --------------------------------------------------------
  Sum of atomic charges =     1.000000
  Sum of spin   charges =     1.000000

 -----------------------------------------------------------------
                    Cartesian Multipole Moments
 -----------------------------------------------------------------
    Charge (ESU x 10^10)
                 4.8032
    Dipole Moment (Debye)
         X       0.0000      Y      -0.0000      Z      -0.9975
       Tot       0.9975
    Quadrupole Moments (Debye-Ang)
        XX     -22.2941     XY      -0.6137     YY     -73.1533
        XZ       0.0000     YZ       0.0000     ZZ     -55.8890
    Octopole Moments (Debye-Ang^2)
       XXX       0.0000    XXY      -0.0000    XYY       0.0000
       YYY       0.0000    XXZ       1.6753    XYZ       6.1324
       YYZ       2.9878    XZZ       0.0000    YZZ      -0.0000
       ZZZ     -15.1881
    Hexadecapole Moments (Debye-Ang^3)
      XXXX   -1261.3892   XXXY      -3.8168   XXYY    -362.1014
      XYYY       5.1734   YYYY     -96.3567   XXXZ       0.0000
[...]
 ******************************

                       Coordinates (Angstroms)
     ATOM                X               Y               Z
      1  S         1.6289080431    0.1610704942    1.1598459611
      2  C         3.0512850132    0.0139778415    0.3116920773
      3  C         2.8795157525   -0.1563554118   -1.0503900401
      4  C         1.5579424954   -0.1573471332   -1.3977910376
      5  C         0.6988939453    0.0154791999   -0.3100073064
      6  H         1.2000144660   -0.2926309807   -2.4027159115
      7  C        -0.6988939453   -0.0154791999   -0.3100073064
      8  S        -1.6289080431   -0.1610704942    1.1598459611
      9  C        -1.5579424954    0.1573471332   -1.3977910376
     10  C        -3.0512850132   -0.0139778415    0.3116920773
     11  C        -2.8795157525    0.1563554118   -1.0503900401
     12  H        -3.7003831860    0.2780199406   -1.7311498086
     13  H         3.9914334191    0.0650339587    0.8303415028
     14  H         3.7003831860   -0.2780199406   -1.7311498086
     15  H        -3.9914334191   -0.0650339587    0.8303415028
     16  H        -1.2000144660    0.2926309807   -2.4027159115

Z-matrix Print:
$molecule
1 2
S 
C  1 1.662576
H  2 1.074934 1 119.861699
C  2 1.383396 1 114.013488 3 179.411060 0
H  4 1.073340 2 122.920178 1 179.230225 0
C  4 1.366471 2 111.745821 1 -0.365817 0
H  6 1.075308 4 124.028614 2 178.897717 0
C  6 1.396820 4 113.373342 2 -0.163740 0
C  8 1.398131 6 127.742405 4 175.969339 0
C  9 1.396820 8 127.742405 6 20.000000 0
H  10 1.075308 9 122.591103 8 -3.107467 0
C  10 1.366471 9 113.373342 8 175.969339 0
H  12 1.073340 10 125.332640 9 -179.748087 0
C  12 1.383396 10 111.745821 9 -0.163740 0
H  14 1.074934 12 126.121845 10 179.001886 0
S  14 1.662576 12 114.013488 10 -0.365817 0
$end

 
 --------------------------------------------------------------
             Orbital Energies (a.u.) and Symmetries
 --------------------------------------------------------------
 
 Alpha MOs, Unrestricted
 -- Occupied --                  
-92.160 -92.160 -11.476 -11.475 -11.452 -11.452 -11.434 -11.434
  1 A     1 B     2 A     2 B     3 B     3 A     4 B     4 A                  
-11.403 -11.403  -9.162  -9.162  -6.843  -6.843  -6.843  -6.843
  5 A     5 B     6 B     6 A     7 B     7 A     8 A     8 B                  
 -6.840  -6.840  -1.395  -1.364  -1.232  -1.193  -1.182  -1.129
  9 A     9 B    10 A    10 B    11 A    12 A    11 B    12 B                  
 -1.002  -0.962  -0.924  -0.905  -0.892  -0.822  -0.753  -0.752
 13 A    14 A    13 B    14 B    15 A    15 B    16 A    16 B                  
 -0.750  -0.736  -0.733  -0.710  -0.692  -0.669  -0.643  -0.584
 17 A    17 B    18 A    19 A    18 B    20 A    19 B    20 B                  
 -0.534  -0.528  -0.475
 21 A    21 B    22 A                                                          
 -- Virtual --                   
 -0.129  -0.026  -0.011   0.012   0.013   0.024   0.041   0.046
 22 B    23 A    24 A    25 A    23 B    24 B    26 A    25 B                  
  0.057   0.068   0.070   0.074   0.120   0.141   0.146   0.193
 27 A    26 B    28 A    29 A    27 B    30 A    28 B    31 A                  
  0.201   0.201   0.216   0.221   0.221   0.245   0.262   0.264
 32 A    29 B    30 B    33 A    31 B    32 B    33 B    34 A                  
  0.279   0.280   0.300   0.306   0.316   0.320   0.346   0.347
 34 B    35 A    35 B    36 A    36 B    37 A    37 B    38 A                  
  0.362   0.371   0.376   0.384   0.386   0.399   0.400   0.410
 38 B    39 A    40 A    39 B    41 A    42 A    40 B    43 A                  
  0.411   0.425   0.443   0.445   0.452   0.458   0.463   0.463
 41 B    42 B    44 A    43 B    45 A    44 B    45 B    46 A                  
  0.477   0.482   0.491   0.510   0.514   0.535   0.570   0.577
 47 A    46 B    48 A    49 A    47 B    48 B    50 A    51 A                  
  0.579   0.596   0.611   0.638   0.653   0.655   0.672   0.694
 49 B    50 B    52 A    51 B    52 B    53 A    54 A    53 B                  
  0.696   0.715   0.725   0.746   0.753   0.767   0.770   0.779
 55 A    54 B    56 A    55 B    57 A    56 B    58 A    57 B                  
  0.804   0.818   0.838   0.841   0.886   0.908   0.913   0.916
 59 A    58 B    59 B    60 A    60 B    61 A    62 A    61 B                  
  0.919   0.931   0.936   0.949   0.967   0.981   0.997   0.999
 63 A    62 B    63 B    64 A    64 B    65 A    65 B    66 A                  
  1.023   1.042   1.057   1.064   1.077   1.087   1.090   1.097
 66 B    67 A    67 B    68 A    68 B    69 B    69 A    70 A                  
  1.134   1.144   1.150   1.164   1.191   1.227   1.249   1.273
 70 B    71 B    71 A    72 A    73 A    72 B    74 A    73 B                  
  1.275   1.295   1.304   1.316   1.331   1.348   1.357   1.377
 75 A    74 B    76 A    75 B    77 A    78 A    76 B    77 B                  
  1.389   1.391   1.406   1.409   1.427   1.444   1.464   1.468
 78 B    79 A    79 B    80 A    81 A    80 B    81 B    82 A                  
  1.484   1.497   1.543   1.566   1.585   1.594   1.636   1.660
 83 A    82 B    83 B    84 A    84 B    85 A    86 A    85 B                  
  1.687   1.690   1.697   1.713   1.728   1.749   1.756   1.790
 86 B    87 A    87 B    88 B    88 A    89 A    89 B    90 B                  
  1.793   1.811   1.896   1.900   1.925   1.945   1.959   1.975
 90 A    91 A    92 A    91 B    92 B    93 A    93 B    94 A                  
  1.995   2.009   2.036   2.046   2.049   2.057   2.094   2.102
 94 B    95 A    96 A    95 B    97 A    96 B    97 B    98 B                  
  2.108   2.114   2.143   2.216   2.244   2.260   2.275   2.306
 98 A    99 A    99 B   100 B   100 A   101 A   101 B   102 A                  
  2.317   2.320   2.329   2.358   2.369   2.374   2.399   2.411
102 B   103 A   103 B   104 A   104 B   105 A   106 A   105 B                  
  2.459   2.486   2.491   2.513   2.526   2.558   2.566   2.581
106 B   107 A   108 A   107 B   109 A   110 A   108 B   109 B                  
  2.587   2.602   2.620   2.631   2.642   2.696   2.702   2.723
111 A   110 B   112 A   111 B   112 B   113 A   113 B   114 A                  
  2.727   2.747   2.752   2.759   2.808   2.821   2.830   2.860
114 B   115 A   115 B   116 A   116 B   117 A   118 A   117 B                  
  2.872   2.889   2.903   2.930   2.969   2.978   2.994   3.019
118 B   119 A   120 A   119 B   121 A   120 B   122 A   121 B                  
  3.028   3.048   3.049   3.062   3.074   3.081   3.084   3.116
122 B   123 A   123 B   124 A   124 B   125 B   125 A   126 A                  
  3.124   3.132   3.134   3.135   3.157   3.179   3.187   3.220
126 B   127 B   127 A   128 A   129 A   128 B   130 A   129 B                  
  3.234   3.237   3.243   3.264   3.266   3.279   3.298   3.300
131 A   130 B   132 A   131 B   133 A   134 A   132 B   135 A                  
  3.321   3.324   3.330   3.337   3.342   3.355   3.361   3.376
133 B   134 B   135 B   136 A   137 A   138 A   136 B   137 B                  
  3.380   3.381   3.392   3.406   3.411   3.437   3.457   3.498
138 B   139 A   139 B   140 A   140 B   141 A   141 B   142 A                  
  3.504   3.533   3.539   3.558   3.570   3.592   3.596   3.613
142 B   143 B   143 A   144 B   144 A   145 B   145 A   146 A                  
  3.632   3.657   3.714   3.725   3.726   3.728   3.754   3.798
147 A   146 B   148 A   147 B   149 A   148 B   149 B   150 B                  
  3.803   3.818   3.829   3.831   3.850   3.853   3.871   3.895
150 A   151 A   152 A   151 B   152 B   153 A   154 A   153 B                  
  3.928   3.947   3.966   3.974   3.990   4.014   4.023   4.026
155 A   154 B   156 A   155 B   157 A   156 B   157 B   158 A                  
  4.042   4.044   4.051   4.070   4.098   4.136   4.148   4.156
158 B   159 A   160 A   159 B   161 A   162 A   160 B   161 B                  
  4.173   4.193   4.260   4.297   4.310   4.319   4.323   4.349
162 B   163 A   163 B   164 A   165 A   164 B   166 A   167 A                  
  4.354   4.400   4.430   4.464   4.478   4.500   4.512   4.537
165 B   166 B   167 B   168 A   169 A   168 B   170 A   171 A                  
  4.543   4.568   4.578   4.596   4.641   4.685   4.687   4.709
169 B   170 B   172 A   171 B   173 A   174 A   172 B   175 A                  
  4.763   4.788   4.820   4.846   4.871   4.895   4.895   4.916
173 B   174 B   176 A   175 B   177 A   176 B   178 A   179 A                  
  4.964   5.006   5.037   5.071   5.080   5.115   5.177   5.184
177 B   178 B   180 A   179 B   180 B   181 A   182 A   181 B                  
  5.224   5.267   5.280   5.296   5.410   5.430   5.460   5.529
183 A   182 B   183 B   184 A   185 A   184 B   185 B   186 A                  
  5.636   5.748   5.853   5.924   5.931   5.984   6.009   6.084
187 A   186 B   188 A   187 B   189 A   188 B   190 A   189 B                  
  6.335   6.353   6.449   6.527   6.687   9.107  11.014  11.619
190 B   191 A   191 B   192 A   192 B   193 A   193 B   194 A                  
 12.788  12.978  13.853  14.464  15.069
194 B   195 A   195 B   196 A   196 B                                          
 
 Beta MOs, Unrestricted
 -- Occupied --                  
-92.161 -92.161 -11.476 -11.475 -11.439 -11.439 -11.427 -11.427
  1 A     1 B     2 A     2 B     3 B     3 A     4 B     4 A                  
-11.410 -11.410  -9.164  -9.164  -6.845  -6.845  -6.844  -6.844
  5 B     5 A     6 B     6 A     7 A     7 B     8 B     8 A                  
 -6.844  -6.844  -1.383  -1.349  -1.223  -1.188  -1.174  -1.104
  9 B     9 A    10 A    10 B    11 A    12 A    11 B    12 B                  
 -0.993  -0.954  -0.914  -0.899  -0.890  -0.818  -0.753  -0.744
 13 A    14 A    13 B    14 B    15 A    15 B    16 A    17 A                  
 -0.732  -0.731  -0.721  -0.686  -0.670  -0.661  -0.642  -0.541
 16 B    18 A    17 B    18 B    19 A    20 A    19 B    20 B                  
 -0.532  -0.520
 21 A    21 B                                                                  
 -- Virtual --                   
 -0.177  -0.059  -0.019   0.011   0.017   0.026   0.029   0.043
 22 A    22 B    23 A    24 A    25 A    23 B    24 B    26 A                  
  0.047   0.062   0.070   0.073   0.096   0.122   0.143   0.149
 25 B    27 A    26 B    28 A    29 A    27 B    30 A    28 B                  
  0.198   0.203   0.203   0.219   0.221   0.224   0.247   0.272
 31 A    32 A    29 B    30 B    33 A    31 B    32 B    33 B                  
  0.273   0.283   0.288   0.307   0.312   0.319   0.320   0.343
 34 A    35 A    34 B    36 A    35 B    37 A    36 B    37 B                  
  0.353   0.376   0.376   0.389   0.391   0.394   0.411   0.416
 38 A    39 A    38 B    40 A    39 B    41 A    42 A    40 B                  
  0.420   0.426   0.430   0.446   0.447   0.457   0.465   0.466
 41 B    42 B    43 A    43 B    44 A    45 A    44 B    45 B                  
  0.469   0.482   0.487   0.501   0.512   0.519   0.539   0.571
 46 A    47 A    46 B    48 A    49 A    47 B    48 B    50 A                  
  0.580   0.582   0.601   0.613   0.640   0.654   0.656   0.675
 51 A    49 B    50 B    52 A    51 B    52 B    53 A    54 A                  
  0.696   0.698   0.721   0.735   0.751   0.756   0.773   0.773
 53 B    55 A    54 B    56 A    55 B    57 A    58 A    56 B                  
  0.783   0.808   0.821   0.839   0.843   0.889   0.910   0.914
 57 B    59 A    58 B    59 B    60 A    60 B    61 A    62 A                  
  0.919   0.926   0.933   0.939   0.958   0.971   0.984   1.001
 61 B    63 A    62 B    63 B    64 A    64 B    65 A    65 B                  
  1.003   1.029   1.044   1.060   1.068   1.081   1.090   1.091
 66 A    66 B    67 A    67 B    68 A    68 B    69 B    69 A                  
  1.100   1.135   1.149   1.157   1.167   1.198   1.236   1.259
 70 A    70 B    71 B    71 A    72 A    73 A    72 B    74 A                  
  1.275   1.277   1.302   1.311   1.322   1.337   1.348   1.362
 73 B    75 A    74 B    76 A    75 B    77 A    78 A    76 B                  
  1.380   1.390   1.393   1.408   1.413   1.431   1.447   1.470
 77 B    78 B    79 A    79 B    80 A    81 A    80 B    81 B                  
  1.472   1.487   1.500   1.544   1.567   1.588   1.599   1.637
 82 A    83 A    82 B    83 B    84 A    84 B    85 A    86 A                  
  1.660   1.687   1.688   1.697   1.717   1.728   1.752   1.758
 85 B    86 B    87 A    87 B    88 B    88 A    89 A    89 B                  
  1.790   1.793   1.812   1.895   1.901   1.925   1.949   1.960
 90 B    90 A    91 A    92 A    91 B    92 B    93 A    93 B                  
  1.975   1.995   2.009   2.037   2.046   2.049   2.058   2.099
 94 A    94 B    95 A    96 A    95 B    97 A    96 B    97 B                  
  2.114   2.114   2.126   2.144   2.231   2.241   2.262   2.271
 98 B    98 A    99 A    99 B   100 B   100 A   101 A   101 B                  
  2.309   2.319   2.328   2.334   2.360   2.383   2.390   2.406
102 A   102 B   103 A   103 B   104 A   104 B   105 A   106 A                  
  2.412   2.466   2.487   2.493   2.518   2.527   2.563   2.572
105 B   106 B   107 A   108 A   107 B   109 A   110 A   108 B                  
  2.585   2.598   2.608   2.626   2.636   2.645   2.700   2.712
109 B   111 A   110 B   112 A   111 B   112 B   113 A   113 B                  
  2.728   2.732   2.751   2.762   2.763   2.811   2.824   2.837
114 B   114 A   115 A   116 A   115 B   116 B   117 A   118 A                  
  2.867   2.877   2.900   2.911   2.936   2.973   2.981   2.995
117 B   118 B   119 A   120 A   119 B   121 A   120 B   122 A                  
  3.030   3.031   3.050   3.050   3.070   3.082   3.086   3.090
121 B   122 B   123 A   123 B   124 A   124 B   125 B   125 A                  
  3.118   3.130   3.137   3.141   3.146   3.167   3.185   3.190
126 A   126 B   127 B   127 A   128 A   129 A   128 B   130 A                  
  3.219   3.236   3.240   3.247   3.270   3.270   3.285   3.302
129 B   131 A   130 B   132 A   131 B   133 A   134 A   132 B                  
  3.306   3.328   3.334   3.338   3.344   3.349   3.363   3.363
135 A   133 B   134 B   135 B   136 A   137 A   136 B   138 A                  
  3.380   3.383   3.384   3.399   3.409   3.414   3.440   3.460
137 B   138 B   139 A   139 B   140 A   140 B   141 A   141 B                  
  3.500   3.508   3.540   3.544   3.562   3.572   3.599   3.600
142 A   142 B   143 B   143 A   144 B   144 A   145 B   145 A                  
  3.617   3.638   3.659   3.723   3.727   3.728   3.730   3.758
146 A   147 A   146 B   148 A   149 A   147 B   148 B   149 B                  
  3.799   3.806   3.820   3.831   3.834   3.855   3.856   3.874
150 B   150 A   151 A   152 A   151 B   153 A   152 B   154 A                  
  3.897   3.929   3.950   3.969   3.977   3.993   4.015   4.026
153 B   155 A   154 B   156 A   155 B   157 A   156 B   157 B                  
  4.027   4.045   4.046   4.053   4.071   4.100   4.138   4.149
158 A   158 B   159 A   160 A   159 B   161 A   162 A   160 B                  
  4.157   4.174   4.194   4.261   4.297   4.311   4.322   4.324
161 B   162 B   163 A   163 B   164 A   165 A   164 B   166 A                  
  4.351   4.355   4.403   4.433   4.468   4.480   4.501   4.513
167 A   165 B   166 B   167 B   168 A   169 A   168 B   170 A                  
  4.539   4.547   4.569   4.581   4.596   4.642   4.687   4.689
171 A   169 B   170 B   172 A   171 B   173 A   174 A   172 B                  
  4.711   4.764   4.792   4.822   4.848   4.875   4.896   4.897
175 A   173 B   174 B   176 A   175 B   177 A   178 A   176 B                  
  4.918   4.966   5.007   5.038   5.072   5.087   5.121   5.179
179 A   177 B   178 B   180 A   179 B   180 B   181 A   182 A                  
  5.185   5.225   5.268   5.281   5.296   5.411   5.432   5.461
181 B   183 A   182 B   183 B   184 A   185 A   184 B   185 B                  
  5.530   5.637   5.749   5.853   5.925   5.933   5.984   6.009
186 A   187 A   186 B   188 A   187 B   189 A   188 B   190 A                  
  6.085   6.335   6.354   6.450   6.528   6.688   9.109  11.018
189 B   190 B   191 A   191 B   192 A   192 B   193 A   193 B                  
 11.622  12.793  12.983  13.853  14.465  15.072
194 A   194 B   195 A   195 B   196 A   196 B                                  
 --------------------------------------------------------------
 
          Ground-State Mulliken Net Atomic Charges

     Atom                 Charge (a.u.)    Spin (a.u.)
  --------------------------------------------------------
      1 S                     0.238296      -0.031008
      2 C                    -0.110983       0.029757
      3 C                    -0.171770       0.364374
      4 C                    -0.115435      -0.166786
      5 C                    -0.013440       0.307511
      6 H                     0.207345       0.017545
      7 C                    -0.013440       0.307511
      8 S                     0.238296      -0.031008
      9 C                    -0.115435      -0.166786
     10 C                    -0.110983       0.029757
     11 C                    -0.171770       0.364374
     12 H                     0.224427      -0.030391
     13 H                     0.241561       0.008998
     14 H                     0.224427      -0.030391
     15 H                     0.241561       0.008998
     16 H                     0.207345       0.017545
  --------------------------------------------------------
  Sum of atomic charges =     1.000000
  Sum of spin   charges =     1.000000

 -----------------------------------------------------------------
                    Cartesian Multipole Moments
 -----------------------------------------------------------------
    Charge (ESU x 10^10)
                 4.8032
    Dipole Moment (Debye)
         X      -0.0000      Y       0.0000      Z      -1.0177
       Tot       1.0177
    Quadrupole Moments (Debye-Ang)
        XX     -22.2878     XY      -0.7722     YY     -73.2446
        XZ       0.0000     YZ      -0.0000     ZZ     -55.8010
    Octopole Moments (Debye-Ang^2)
       XXX      -0.0000    XXY       0.0000    XYY       0.0000
       YYY       0.0000    XXZ       1.8044    XYZ       5.4181
       YYZ       3.1473    XZZ      -0.0000    YZZ       0.0000
       ZZZ     -15.3284
    Hexadecapole Moments (Debye-Ang^3)
      XXXX   -1260.3207   XXXY      -5.3766   XXYY    -362.1917
      XYYY       6.7170   YYYY     -94.4712   XXXZ       0.0000
      XXYZ      -0.0000   XYYZ       0.0000   YYYZ      -0.0000
      XXZZ    -323.5537   XYZZ      -5.3053   YYZZ    -110.6553
      XZZZ       0.0000   YZZZ      -0.0000   ZZZZ    -480.1761
 -----------------------------------------------------------------
Archival summary:
1\1\nid01580\OPT\MP2\BasisUnspecified\286(1+,2)\TueMar711:17:092017TueMar711:17:092017\0\\#,OPT,MP2,BasisUnspecified,\\1,2\S\C,1,1.66258\H,2,1.07493,1,119.862\C,2,1.3834,1,114.013,3,179.411,0\H,4,1.07334,2,122.92,1,179.23,0\C,4,1.36647,2,111.746,1,-0.365817,0\H,6,1.07531,4,124.029,2,178.898,0\C,6,1.39682,4,113.373,2,-0.16374,0\C,8,1.39813,6,127.742,4,175.969,0\C,9,1.39682,8,127.742,6,20,0\H,10,1.07531,9,122.591,8,-3.10747,0\C,10,1.36647,9,113.373,8,175.969,0\H,12,1.07334,10,125.333,9,-179.748,0\C,12,1.3834,10,111.746,9,-0.16374,0\H,14,1.07493,12,126.122,10,179.002,0\S,14,1.66258,12,114.013,10,-0.365817,0\\HF=-1101.36647\MP2=-1103.10805\\@

 Total job time:  22242.04s(wall), 106543.47s(cpu) 
 Tue Mar  7 11:17:09 2017

        *************************************************************
        *                                                           *
        *  Thank you very much for using Q-Chem.  Have a nice day.  *
        *                                                           *
        *************************************************************


0 sent ACK to 0 
now end server 0 ... 
