srun -N 1 --ntasks-per-node 1 --cpus-per-task 64 --cpu_bind=cores --nodelist nid01585 /global/project/projectdirs/jcesr/qchem/qc44/cnl_qc441/dist/exe/qcprog.cori.haswell.exe .pt_mp2_hole_-130.0.in.60317.qcin.1 /dev/shm/eg_qchem/qchem60317/
Process 0 of 1 is on nid01585 - thread support 0
initial socket setup ...start
initial socket setup ...done 
now start server 0 ... 
nid01585 10.128.6
Q-Chem Developer Version! Running on 10.128.6.*
                  Welcome to Q-Chem
     A Quantum Leap Into The Future Of Chemistry


 Q-Chem 4.4, Q-Chem, Inc., Pleasanton, CA (2016)

 Y. Shao,  Z. Gan,  E. Epifanovsky,  A. T. B. Gilbert,  M. Wormit,  
 J. Kussmann,  A. W. Lange,  A. Behn,  J. Deng,  X. Feng,  D. Ghosh,  
 M. Goldey,  P. R. Horn,  L. D. Jacobson,  I. Kaliman,  F.Rob,  
 R. Z. Khaliullin,  T. Kus,  A. Landau,  J. Liu,  E. I. Proynov,  Y. M. Rhee,  
 R. M. Richard,  M. A. Rohrdanz,  R. P. Steele,  E. J. Sundstrom,  
 H. L. Woodcock III,  P. M. Zimmerman,  D. Zuev,  B. Albrecht,  E. Alguire,  
 B. Austin,  S. A. Baeppler,  G. J. O. Beran,  Y. A. Bernard,  E. Berquist,  
 K. Brandhorst,  K. B. Bravaya,  S. T. Brown,  D. Casanova,  C.-M. Chang,  
 Y. Chen,  S. H. Chien,  K. D. Closser,  M. P. Coons,  D. L. Crittenden,  
 S. Dasgupta,  M. Diedenhofen,  R. A. DiStasio Jr.,  H. Do,  A. D. Dutoi,  
 R. G. Edgar,  P.-T. Fang,  S. Fatehi,  Q. Feng,  L. Fusti-Molnar,  
 A. Ghysels,  A. Golubeva-Zadorozhnaya,  J. Gomes,  A. Gunina,  
 M. W. D. Hanson-Heine,  P. H. P. Harbach,  A. W. Hauser,  E. G. Hohenstein,  
 Z. C. Holden,  K. Hui,  T.-C. Jagau,  H. Ji,  B. Kaduk,  K. Khistyaev,  
 Jaehoon Kim,  Jihan Kim,  R. A. King,  P. Klunzinger,  D. Kosenkov,  
 T. Kowalczyk,  C. M. Krauter,  A. Kunitsa,  K. U. Lao,  A. Laurent,  
 K. V. Lawler,  D. Lefrancois,  S. Lehtola,  S. V. Levchenko,  C. Y. Lin,  
 Y.-S. Lin,  F. Liu,  E. Livshits,  R. C. Lochan,  A. Luenser,  P. Manohar,  
 S. F. Manzer,  S.-P. Mao,  Y. Mao,  N. Mardirossian,  A. V. Marenich,  
 L. A. Martinez-Martinez,  S. A. Maurer,  N. J. Mayhall,  J.-M. Mewes,  
 A. F. Morrison,  K. Nanda,  C. M. Oana,  R. Olivares-Amaya,  D. P. O'Neill,  
 J. A. Parkhill,  T. M. Perrine,  R. Peverati,  P. A. Pieniazek,  F. Plasser,  
 A. Prociuk,  D. R. Rehn,  E. Rosta,  N. J. Russ,  N. Sergueev,  
 S. M. Sharada,  S. Sharma,  D. W. Small,  A. Sodt,  T. Stauch,  T. Stein,  
 D. Stuck,  Y.-C. Su,  A. J. W. Thom,  T. Tsuchimochi,  L. Vogt,  O. Vydrov,  
 T. Wang,  M. A. Watson,  J. Wenzel,  A. White,  C. F. Williams,  
 V. Vanovschi,  S. Yeganeh,  S. R. Yost,  Z.-Q. You,  I. Y. Zhang,  X. Zhang,  
 Y. Zhao,  B. R. Brooks,  G. K. L. Chan,  D. M. Chipman,  C. J. Cramer,  
 W. A. Goddard III,  M. S. Gordon,  W. J. Hehre,  A. Klamt,  
 H. F. Schaefer III,  M. W. Schmidt,  C. D. Sherrill,  D. G. Truhlar,  
 A. Warshel,  X. Xu,  A. Aspuru-Guzik,  R. Baer,  A. T. Bell,  N. A. Besley,  
 J.-D. Chai,  A. Dreuw,  B. D. Dunietz,  T. R. Furlani,  S. R. Gwaltney,  
 C.-P. Hsu,  Y. Jung,  J. Kong,  D. S. Lambrecht,  W. Liang,  C. Ochsenfeld,  
 V. A. Rassolov,  L. V. Slipchenko,  J. E. Subotnik,  T. Van Voorhis,  
 J. M. Herbert,  A. I. Krylov,  P. M. W. Gill,  M. Head-Gordon

 Contributors to earlier versions of Q-Chem not listed above: 
 R. D. Adamson,  J. Baker,  E. F. C. Byrd,  A. K. Chakraborty,  C.-L. Cheng,  
 H. Dachsel,  R. J. Doerksen,  G. Hawkins,  A. Heyden,  S. Hirata,  
 G. Kedziora,  F. J. Keil,  C. Kelley,  P. P. Korambath,  W. Kurlancheek,  
 A. M. Lee,  M. S. Lee,  D. Liotard,  I. Lotan,  P. E. Maslen,  N. Nair,  
 D. Neuhauser,  R. Olson,  B. Peters,  J. Ritchie,  N. E. Schultz,  
 N. Shenvi,  A. C. Simmonett,  K. S. Thanthiriwatte,  Q. Wu,  W. Zhang

 Please cite Q-Chem as follows:
 Y. Shao et al., Mol. Phys. 113, 184-215 (2015)
 DOI: 10.1080/00268976.2014.952696

 Q-Chem 4.4.1 for Intel X86 EM64T Linux

 Parts of Q-Chem use Armadillo 5.200.1 (Boston Tea Smuggler).
 http://arma.sourceforge.net/

 Q-Chem begins on Tue Mar  7 05:06:25 2017  

Host: nid01545
0

     Scratch files written to /dev/shm/eg_qchem/qchem60317//
 Parallel job on  1  processors

Checking the input file for inconsistencies... 	...done.

--------------------------------------------------------------
User input:
--------------------------------------------------------------
$molecule
 1  2
 S           1.81042700       -1.22909900       -0.13996800
 C           3.10211600       -0.18861200       -0.13982200
 C           2.74845300        1.15163900       -0.14006900
 C           1.39169900        1.31613900       -0.14029100
 C           0.68906700        0.11310500       -0.14015500
 H           0.90454800        2.27578700       -0.14040700
 C          -0.68906700       -0.11310500       -0.14015500
 S          -1.72326014        0.69805432       -1.29402890
 C          -1.45381861       -0.93768910        0.68215795
 C          -3.06229453       -0.05399143       -0.66754045
 C          -2.78848080       -0.90777856        0.38954228
 H          -3.54970310       -1.46637018        0.90014320
 H           4.10439600       -0.57731800       -0.13934700
 H           3.47107900        1.94537000       -0.13983300
 H          -4.03302989        0.14253586       -1.08552091
 H          -1.02604237       -1.53560964        1.46812162
$end


$rem
         jobtype = opt
        exchange = hf
           basis = cc-pvtz
  max_scf_cycles = 100
      mem_static = 6200
       mem_total = 62000
          method = mp2
$end


$opt
CONSTRAINT
tors 4 5 7 9 -130.0
ENDCONSTRAINT
$end

--------------------------------------------------------------
 Atom   9: ( -1.4209741763, -1.2017137135,  0.6050854261)
         ->( -1.4209741813, -1.2017137103,  0.6050854273)
 Atom  16: ( -0.9587063981, -2.0715221456,  1.0386545288)
         ->( -0.9587063973, -2.0715221478,  1.0386545361)
 Atom  14: (  3.5110521812,  1.7820601283,  0.7256052806)
         ->(  3.5110521771,  1.7820601319,  0.7256052751)
 Atom  15: ( -4.0804937511,  0.5073011386, -0.3696602891)
         ->( -4.0804937487,  0.5073011430, -0.3696602922)
 ----------------------------------------------------------------
             Standard Nuclear Orientation (Angstroms)
    I     Atom           X                Y                Z
 ----------------------------------------------------------------
    1      S       1.7757639994    -1.1089826575    -0.4850412624
    2      C       3.0901618942    -0.1582438935    -0.1393135255
    3      C       2.7704757962     1.0579674082     0.4437655342
    4      C       1.4209741813     1.2017137103     0.6050854273
    5      C       0.6902418384     0.1056989905     0.1514726762
    6      H       0.9587063973     2.0715221478     1.0386545361
    7      C      -0.6902418376    -0.1056989905     0.1514726761
    8      S      -1.7757640014     1.1089826582    -0.4850412628
    9      C      -1.4209741813    -1.2017137103     0.6050854273
   10      C      -3.0901618937     0.1582438943    -0.1393135242
   11      C      -2.7704757972    -1.0579674065     0.4437655370
   12      H      -3.5110521771    -1.7820601319     0.7256052751
   13      H       4.0804937487    -0.5073011430    -0.3696602922
   14      H       3.5110521771     1.7820601319     0.7256052751
   15      H      -4.0804937487     0.5073011430    -0.3696602922
   16      H      -0.9587063973    -2.0715221478     1.0386545361
 ----------------------------------------------------------------
 Molecular Point Group                 C2    NOp =  2
 Largest Abelian Subgroup              C2    NOp =  2
 Nuclear Repulsion Energy =   639.0532941429 hartrees
 There are       43 alpha and       42 beta electrons
 Requested basis set is cc-pVTZ
 There are 140 shells and 392 basis functions

 Total QAlloc Memory Limit  62000 MB
 Mega-Array Size      6061 MB
 MEM_STATIC part      6200 MB
 A cutoff of  1.0D-11 yielded   8063 shell pairs
 There are     62695 function pairs (     81698 Cartesian)
 
 -------------------------------------------------------
 OpenMP Integral Computing Module                       
 Release: version 1.0, May 2013, Q-Chem Inc. Pittsburgh 
 -------------------------------------------------------
 Integral Job Info:
 Integral job number is                      11
 Integral operator is                         1
 short-range coefficients                     0
 long-range coefficients              100000000
 Omega coefficients                           0
 if combine SR and LR in K                    0
 Integral screening is                        0
 Integral computing path is                   2
 max size of driver memory is            800000
 size of driver memory is                776718
 size of scratch memory is             26248924
 max col of scratch BK array              10000
 max len of scratch array in speh3          662
 max len of scratch index in speh4           32
 max int batch size is                      520
 min int batch size is                       52
 fixed nKL is                                52
 max L of basis functions is                  3
 order of int derivative is                   0
 number of shells is                        140
 number of basis is                         448
 number of cartesian basis is               448
 number of contracted shell pairs          8063
 number of primitive shell pairs          28697
 maxK2 (contraction) of shell pair          121
 max number of K2 of shell pair               1
 max number of CS2 of shell pair           1062
 max number of PS2 of shell pair           3108
 mem total for path MDJ                  223748
 -------------------------------------------------------
 Smallest overlap matrix eigenvalue = 7.76E-05

 Scale SEOQF with 1.000000e-01/1.000000e-01/1.000000e+00

 Standard Electronic Orientation quadrupole field applied
 Nucleus-field energy     =     0.0000000008 hartrees
 Guess from superposition of atomic densities
 Warning:  Energy on first SCF cycle will be non-variational
 An unrestricted Hartree-Fock SCF calculation will be
 performed using Pulay DIIS extrapolation
 SCF converges when DIIS error is below 1.0E-08
 using 16 threads for integral computing 
 ---------------------------------------
  Cycle       Energy         DIIS Error
 ---------------------------------------
    1   -1106.1738008720      3.04E-02
    2   -1082.1152204061      2.47E-02
    3   -1092.0050026737      1.42E-02
    4   -1098.6146599392      7.36E-03
    5   -1101.0201879395      3.67E-03
    6   -1101.3166802436      8.91E-04
    7   -1101.3374050216      2.74E-04
    8   -1101.3416662115      1.01E-04
    9   -1101.3438014891      5.19E-05
   10   -1101.3451374137      3.61E-05
   11   -1101.3464875032      2.65E-05
   12   -1101.3475488375      1.92E-05
   13   -1101.3483158975      1.37E-05
   14   -1101.3488180285      9.12E-06
   15   -1101.3489414213      5.56E-06
   16   -1101.3489851700      3.00E-06
   17   -1101.3490051568      1.23E-06
   18   -1101.3490063500      4.71E-07
   19   -1101.3490065680      2.17E-07
   20   -1101.3490066359      1.07E-07
   21   -1101.3490066595      6.20E-08
   22   -1101.3490066713      2.74E-08
   23   -1101.3490066742      1.32E-08
   24   -1101.3490066745      4.36E-09 Convergence criterion met
 ---------------------------------------
 <S^2> = 1.0264
 SCF time:  CPU 1119.04 s  wall 70.01 s
 SCF   energy in the final basis set = -1101.3490066745
 Total energy in the final basis set = -1101.3490066745
 
 Components of the MP2 correlation energy:
        aaaa  correlation energy =        -0.2340353878 au
        abab  correlation energy =        -1.3023447759 au
        bbbb  correlation energy =        -0.2119090672 au
        non-Brillouin singles    =        -0.0000000000 au

 Total  MP2   correlation energy =        -1.7482892310 au
        MP2         total energy =     -1103.0972959054 au

  Entering Z-vector solver.
   1         0           1      0.000540    0.000540
   2         0           1      0.000487    0.000487
   3         0           1      0.000340    0.000340
   4         0           1      0.000275    0.000275
   5         0           1      0.000113    0.000113
   6         0           1      0.000055    0.000055
   7         0           1      0.000032    0.000032
   8         0           1      0.000020    0.000020
   9         0           1      0.000009    0.000009
  10         0           1      0.000004    0.000004
  11         0           1      0.000002    0.000002
  12         1           0      0.000000    0.000000    Roots Converged
 Warning:  Cannot save MP2 spin density
 
 --------------------------------------------------------------
             Orbital Energies (a.u.) and Symmetries
 --------------------------------------------------------------
 Warning : Irrep of orbital(   1) could not be determined
 Warning : Irrep of orbital(   2) could not be determined
 
 Alpha MOs, Unrestricted
 -- Occupied --                  
-92.161 -92.161 -11.475 -11.474 -11.451 -11.451 -11.433 -11.433
  0 xxx   0 xxx   1 A     1 B     2 B     2 A     3 B     3 A                  
-11.403 -11.403  -9.163  -9.163  -6.844  -6.844  -6.843  -6.843
  4 B     4 A     5 B     5 A     6 B     6 A     7 A     7 B                  
 -6.841  -6.841  -1.394  -1.364  -1.232  -1.194  -1.180  -1.129
  8 B     8 A     9 A     9 B    10 A    10 B    11 A    11 B                  
 -1.000  -0.958  -0.930  -0.905  -0.888  -0.823  -0.752  -0.749
 12 A    12 B    13 A    13 B    14 A    14 B    15 A    15 B                  
 -0.748  -0.736  -0.734  -0.708  -0.697  -0.662  -0.649  -0.565
 16 A    17 A    16 B    17 B    18 A    18 B    19 A    20 A                  
 -0.536  -0.521  -0.486
 19 B    21 A    20 B                                                          
 -- Virtual --                   
 -0.112  -0.048  -0.001   0.000   0.021   0.024   0.032   0.046
 22 A    21 B    22 B    23 A    24 A    23 B    25 A    24 B                  
  0.050   0.054   0.073   0.081   0.098   0.114   0.160   0.172
 25 B    26 A    27 A    26 B    27 B    28 A    28 B    29 A                  
  0.195   0.200   0.210   0.213   0.239   0.242   0.264   0.269
 30 A    29 B    30 B    31 A    32 A    31 B    32 B    33 A                  
  0.275   0.285   0.290   0.301   0.309   0.325   0.346   0.347
 34 A    33 B    34 B    35 A    36 A    35 B    36 B    37 A                  
  0.351   0.356   0.366   0.379   0.383   0.384   0.398   0.403
 38 A    37 B    38 B    39 A    39 B    40 A    40 B    41 B                  
  0.416   0.429   0.436   0.440   0.454   0.460   0.465   0.469
 41 A    42 A    42 B    43 A    43 B    44 A    44 B    45 A                  
  0.474   0.491   0.500   0.501   0.515   0.518   0.531   0.537
 45 B    46 A    47 A    46 B    47 B    48 A    48 B    49 A                  
  0.600   0.608   0.617   0.618   0.646   0.661   0.668   0.671
 49 B    50 A    51 A    50 B    51 B    52 A    52 B    53 B                  
  0.698   0.706   0.723   0.738   0.741   0.756   0.773   0.776
 54 B    53 A    54 A    55 A    55 B    56 A    56 B    57 A                  
  0.820   0.834   0.850   0.858   0.863   0.864   0.902   0.912
 58 A    59 A    57 B    58 B    60 A    59 B    60 B    61 A                  
  0.923   0.934   0.941   0.945   0.972   0.987   1.007   1.012
 61 B    62 A    63 A    62 B    64 A    63 B    65 A    64 B                  
  1.023   1.032   1.052   1.053   1.070   1.095   1.098   1.122
 65 B    66 A    66 B    67 A    67 B    68 B    68 A    69 A                  
  1.135   1.152   1.168   1.200   1.220   1.221   1.246   1.273
 69 B    70 A    71 A    70 B    72 A    71 B    72 B    73 A                  
  1.289   1.302   1.315   1.328   1.335   1.338   1.354   1.374
 73 B    74 A    74 B    75 B    75 A    76 B    76 A    77 A                  
  1.374   1.379   1.398   1.423   1.428   1.442   1.453   1.475
 77 B    78 A    78 B    79 B    79 A    80 A    80 B    81 A                  
  1.511   1.519   1.546   1.562   1.577   1.593   1.598   1.673
 81 B    82 B    82 A    83 B    83 A    84 B    84 A    85 A                  
  1.676   1.678   1.690   1.723   1.729   1.751   1.758   1.770
 85 B    86 A    86 B    87 B    87 A    88 B    88 A    89 B                  
  1.781   1.816   1.873   1.904   1.907   1.924   1.943   1.989
 89 A    90 B    90 A    91 B    91 A    92 A    92 B    93 A                  
  2.005   2.023   2.036   2.041   2.056   2.078   2.087   2.103
 94 A    93 B    94 B    95 B    95 A    96 A    96 B    97 A                  
  2.116   2.144   2.154   2.209   2.224   2.249   2.277   2.281
 97 B    98 B    98 A    99 B    99 A   100 A   100 B   101 A                  
  2.317   2.322   2.343   2.349   2.349   2.382   2.399   2.407
101 B   102 A   102 B   103 B   103 A   104 B   104 A   105 A                  
  2.447   2.503   2.511   2.517   2.531   2.538   2.573   2.580
105 B   106 B   106 A   107 B   107 A   108 B   108 A   109 B                  
  2.583   2.596   2.601   2.620   2.621   2.677   2.705   2.712
109 A   110 A   110 B   111 A   111 B   112 A   112 B   113 A                  
  2.740   2.752   2.763   2.785   2.828   2.833   2.835   2.847
113 B   114 B   114 A   115 A   115 B   116 A   116 B   117 A                  
  2.853   2.880   2.887   2.951   2.983   2.988   2.998   3.000
117 B   118 B   118 A   119 A   120 A   119 B   120 B   121 A                  
  3.044   3.046   3.057   3.069   3.080   3.085   3.095   3.112
122 A   121 B   123 A   124 A   122 B   123 B   125 A   126 A                  
  3.114   3.136   3.156   3.161   3.161   3.173   3.188   3.205
124 B   125 B   127 A   128 A   126 B   127 B   128 B   129 B                  
  3.224   3.257   3.258   3.262   3.273   3.282   3.290   3.308
129 A   130 B   130 A   131 A   131 B   132 A   133 A   132 B                  
  3.315   3.322   3.330   3.331   3.350   3.353   3.354   3.358
134 A   133 B   135 A   134 B   136 A   137 A   135 B   136 B                  
  3.382   3.386   3.403   3.418   3.422   3.438   3.465   3.487
137 B   138 A   139 A   138 B   140 A   141 A   139 B   140 B                  
  3.528   3.531   3.543   3.566   3.576   3.600   3.615   3.622
142 A   141 B   142 B   143 A   144 A   143 B   144 B   145 A                  
  3.658   3.664   3.688   3.704   3.724   3.736   3.754   3.759
146 A   145 B   146 B   147 A   147 B   148 A   148 B   149 A                  
  3.811   3.811   3.829   3.837   3.849   3.871   3.882   3.884
150 A   149 B   150 B   151 A   151 B   152 A   153 A   152 B                  
  3.911   3.959   3.966   3.971   3.991   4.005   4.020   4.025
153 B   154 A   154 B   155 A   155 B   156 A   156 B   157 A                  
  4.049   4.057   4.063   4.105   4.109   4.125   4.138   4.155
157 B   158 A   159 A   160 A   158 B   159 B   160 B   161 A                  
  4.177   4.188   4.212   4.254   4.276   4.311   4.370   4.373
161 B   162 A   163 A   162 B   163 B   164 A   165 A   164 B                  
  4.379   4.397   4.448   4.465   4.466   4.484   4.504   4.535
165 B   166 A   166 B   167 B   167 A   168 A   169 A   168 B                  
  4.554   4.569   4.592   4.613   4.629   4.664   4.687   4.726
169 B   170 B   170 A   171 B   171 A   172 A   172 B   173 B                  
  4.735   4.782   4.828   4.840   4.857   4.890   4.891   4.911
173 A   174 A   174 B   175 B   175 A   176 A   176 B   177 A                  
  4.919   4.957   5.032   5.080   5.087   5.124   5.150   5.224
177 B   178 A   178 B   179 A   179 B   180 B   180 A   181 A                  
  5.236   5.267   5.267   5.339   5.389   5.422   5.477   5.511
181 B   182 A   182 B   183 A   183 B   184 A   185 A   184 B                  
  5.609   5.776   5.824   5.917   5.921   5.988   6.034   6.067
185 B   186 A   186 B   187 B   187 A   188 A   188 B   189 B                  
  6.105   6.369   6.404   6.588   6.592   9.340  10.828  11.775
189 A   190 A   190 B   191 A   191 B   192 A   192 B   193 A                  
 12.593  13.201  13.546  14.695  14.707
193 B   194 A   194 B   195 B   195 A                                          
 Warning : Irrep of orbital(   1) could not be determined
 Warning : Irrep of orbital(   2) could not be determined
 
 Beta MOs, Unrestricted
 -- Occupied --                  
-92.162 -92.162 -11.475 -11.473 -11.439 -11.439 -11.426 -11.426
  0 xxx   0 xxx   1 A     1 B     2 B     2 A     3 A     3 B                  
-11.410 -11.410  -9.164  -9.164  -6.845  -6.845  -6.845  -6.845
  4 B     4 A     5 A     5 B     6 B     6 A     7 A     7 B                  
 -6.844  -6.844  -1.382  -1.349  -1.221  -1.185  -1.175  -1.105
  8 A     8 B     9 A     9 B    10 A    10 B    11 A    11 B                  
 -0.992  -0.948  -0.918  -0.901  -0.886  -0.818  -0.745  -0.744
 12 A    12 B    13 A    13 B    14 A    14 B    15 B    15 A                  
 -0.738  -0.729  -0.721  -0.683  -0.667  -0.658  -0.647  -0.536
 16 A    16 B    17 A    18 A    17 B    18 B    19 A    20 A                  
 -0.534  -0.495
 19 B    21 A                                                                  
 -- Virtual --                   
 -0.195  -0.053  -0.016   0.006   0.008   0.023   0.027   0.048
 20 B    22 A    21 B    22 B    23 A    24 A    23 B    25 A                  
  0.050   0.057   0.062   0.075   0.084   0.106   0.115   0.161
 24 B    26 A    25 B    27 A    26 B    27 B    28 A    28 B                  
  0.173   0.199   0.202   0.212   0.215   0.241   0.245   0.269
 29 A    30 A    29 B    30 B    31 A    32 A    31 B    32 B                  
  0.273   0.284   0.291   0.295   0.309   0.313   0.329   0.351
 33 A    34 A    33 B    34 B    35 A    36 A    35 B    36 B                  
  0.352   0.357   0.366   0.380   0.381   0.394   0.395   0.407
 37 A    38 A    37 B    38 B    39 A    39 B    40 A    40 B                  
  0.414   0.421   0.438   0.444   0.450   0.460   0.462   0.469
 41 B    41 A    42 A    42 B    43 A    43 B    44 A    44 B                  
  0.473   0.480   0.497   0.501   0.506   0.521   0.523   0.537
 45 A    45 B    46 A    46 B    47 A    48 A    47 B    48 B                  
  0.541   0.602   0.612   0.619   0.620   0.647   0.663   0.672
 49 A    49 B    50 A    51 A    50 B    51 B    52 A    52 B                  
  0.675   0.702   0.713   0.728   0.740   0.745   0.760   0.777
 53 B    54 B    53 A    54 A    55 A    55 B    56 A    56 B                  
  0.778   0.826   0.836   0.855   0.861   0.865   0.866   0.909
 57 A    58 A    59 A    57 B    58 B    60 A    59 B    60 B                  
  0.917   0.925   0.936   0.949   0.955   0.974   0.988   1.010
 61 A    61 B    62 A    63 A    62 B    64 A    63 B    65 A                  
  1.013   1.029   1.036   1.055   1.056   1.072   1.099   1.099
 64 B    65 B    66 A    67 A    66 B    67 B    68 B    68 A                  
  1.126   1.137   1.157   1.174   1.204   1.226   1.231   1.251
 69 A    69 B    70 A    71 A    70 B    72 A    71 B    72 B                  
  1.280   1.293   1.305   1.316   1.336   1.338   1.342   1.360
 73 A    73 B    74 A    74 B    75 B    75 A    76 B    76 A                  
  1.374   1.375   1.383   1.400   1.425   1.430   1.445   1.458
 77 B    77 A    78 A    78 B    79 B    79 A    80 A    80 B                  
  1.478   1.514   1.520   1.551   1.566   1.581   1.597   1.598
 81 A    81 B    82 B    82 A    83 B    83 A    84 B    84 A                  
  1.671   1.677   1.678   1.692   1.723   1.728   1.752   1.760
 85 A    85 B    86 A    86 B    87 B    87 A    88 B    88 A                  
  1.770   1.784   1.817   1.874   1.905   1.907   1.923   1.945
 89 B    89 A    90 B    90 A    91 B    91 A    92 A    92 B                  
  1.990   2.006   2.023   2.035   2.043   2.058   2.080   2.092
 93 A    94 A    93 B    94 B    95 B    95 A    96 A    96 B                  
  2.117   2.124   2.150   2.157   2.211   2.227   2.256   2.275
 97 A    97 B    98 B    98 A    99 B    99 A   100 A   100 B                  
  2.277   2.319   2.324   2.347   2.358   2.362   2.395   2.405
101 A   101 B   102 A   102 B   103 B   103 A   104 B   104 A                  
  2.417   2.454   2.506   2.512   2.521   2.531   2.543   2.578
105 A   105 B   106 B   106 A   107 B   107 A   108 B   108 A                  
  2.586   2.588   2.602   2.607   2.625   2.628   2.679   2.714
109 B   109 A   110 A   110 B   111 A   111 B   112 A   112 B                  
  2.722   2.743   2.761   2.772   2.790   2.830   2.835   2.842
113 A   113 B   114 B   114 A   115 A   115 B   116 A   116 B                  
  2.853   2.861   2.882   2.891   2.955   2.988   3.000   3.002
117 A   117 B   118 B   118 A   119 A   120 A   119 B   121 A                  
  3.004   3.044   3.050   3.061   3.075   3.082   3.091   3.103
120 B   121 B   122 A   123 A   124 A   122 B   123 B   125 A                  
  3.117   3.120   3.144   3.162   3.167   3.168   3.176   3.193
126 A   124 B   125 B   127 A   128 A   126 B   127 B   128 B                  
  3.209   3.225   3.259   3.262   3.265   3.277   3.286   3.297
129 B   129 A   130 B   130 A   131 A   131 B   132 A   133 A                  
  3.314   3.324   3.335   3.336   3.342   3.352   3.355   3.358
132 B   134 A   133 B   134 B   135 A   136 A   137 A   135 B                  
  3.364   3.384   3.390   3.409   3.423   3.428   3.441   3.470
136 B   137 B   138 A   139 A   138 B   140 A   141 A   139 B                  
  3.490   3.531   3.535   3.546   3.572   3.578   3.606   3.619
140 B   142 A   141 B   142 B   143 A   144 A   143 B   144 B                  
  3.626   3.661   3.668   3.690   3.707   3.727   3.742   3.757
145 A   146 A   145 B   146 B   147 A   147 B   148 A   148 B                  
  3.759   3.813   3.817   3.831   3.840   3.851   3.875   3.886
149 A   150 A   149 B   150 B   151 A   151 B   152 A   153 A                  
  3.887   3.914   3.961   3.969   3.973   3.993   4.006   4.022
152 B   153 B   154 A   154 B   155 A   155 B   156 A   156 B                  
  4.027   4.050   4.060   4.064   4.107   4.110   4.126   4.139
157 A   157 B   158 A   159 A   160 A   158 B   159 B   160 B                  
  4.157   4.179   4.191   4.213   4.256   4.278   4.312   4.372
161 A   161 B   162 A   163 A   162 B   163 B   164 A   165 A                  
  4.374   4.380   4.398   4.450   4.467   4.470   4.487   4.506
164 B   165 B   166 A   166 B   167 B   167 A   168 A   169 A                  
  4.538   4.556   4.570   4.595   4.614   4.630   4.665   4.689
168 B   169 B   170 B   170 A   171 B   171 A   172 A   172 B                  
  4.728   4.737   4.784   4.830   4.844   4.859   4.892   4.893
173 B   173 A   174 A   174 B   175 B   175 A   176 A   176 B                  
  4.913   4.921   4.958   5.033   5.086   5.089   5.128   5.152
177 A   177 B   178 A   178 B   179 A   179 B   180 B   180 A                  
  5.225   5.238   5.268   5.268   5.340   5.390   5.423   5.478
181 A   181 B   182 B   182 A   183 A   183 B   184 A   185 A                  
  5.512   5.610   5.776   5.825   5.918   5.922   5.989   6.035
184 B   185 B   186 A   186 B   187 B   187 A   188 A   188 B                  
  6.066   6.105   6.370   6.405   6.588   6.592   9.342  10.832
189 B   189 A   190 A   190 B   191 A   191 B   192 A   192 B                  
 11.779  12.598  13.204  13.547  14.696  14.709
193 A   193 B   194 A   194 B   195 B   195 A                                  
 --------------------------------------------------------------
 
          Ground-State Mulliken Net Atomic Charges

     Atom                 Charge (a.u.)    Spin (a.u.)
  --------------------------------------------------------
      1 S                     0.276798      -0.029282
      2 C                    -0.115013      -0.062320
      3 C                    -0.157284       0.472370
      4 C                    -0.147871      -0.285517
      5 C                    -0.038488       0.402174
      6 H                     0.216182       0.022755
      7 C                    -0.038490       0.402174
      8 S                     0.276798      -0.029282
      9 C                    -0.147870      -0.285517
     10 C                    -0.115013      -0.062320
     11 C                    -0.157285       0.472370
     12 H                     0.224378      -0.035827
     13 H                     0.241299       0.015647
     14 H                     0.224378      -0.035827
     15 H                     0.241299       0.015647
     16 H                     0.216182       0.022755
  --------------------------------------------------------
  Sum of atomic charges =     1.000000
  Sum of spin   charges =     1.000000

 -----------------------------------------------------------------
                    Cartesian Multipole Moments
 -----------------------------------------------------------------
    Charge (ESU x 10^10)
                 4.8032
    Dipole Moment (Debye)
         X       0.0000      Y       0.0000      Z       0.2998
       Tot       0.2998
    Quadrupole Moments (Debye-Ang)
        XX     -22.1639     XY       1.7832     YY     -58.8080
        XZ      -0.0000     YZ      -0.0000     ZZ     -70.2113
    Octopole Moments (Debye-Ang^2)
       XXX       0.0000    XXY       0.0000    XYY       0.0000
       YYY      -0.0000    XXZ      -5.6154    XYZ      14.3860
       YYZ       7.6519    XZZ      -0.0000    YZZ      -0.0000
       ZZZ      -4.2436
    Hexadecapole Moments (Debye-Ang^3)
      XXXX   -1266.5762   XXXY       1.9068   XXYY    -339.1714
      XYYY      16.2382   YYYY    -437.3948   XXXZ      -0.0000
      XXYZ      -0.0000   XYYZ      -0.0000   YYYZ       0.0000
      XXZZ    -359.2975   XYZZ      -1.4216   YYZZ     -98.3128
      XZZZ      -0.0000   YZZZ      -0.0000   ZZZZ    -172.0034
 -----------------------------------------------------------------
 DrvMan is completing analytic gradient of the MP2 energy
 MP2 relaxed dipole moment
            1
    1   0.0000000
    2   0.0000000
    3   0.1179538
	Magnitude:	 0.118 au	 0.300 Debye
 MP2 energy read as -1103.097296
 Full Analytical Gradient of MP2 Energy (in au.)
             1             2             3             4             5
    1   -0.00247786    0.00261991   -0.00152327    0.00258667   -0.01689652
    2    0.00062799    0.00175808    0.00192108   -0.00215529   -0.00494419
    3   -0.00811449   -0.00051828   -0.00094063    0.01049358   -0.00176386
             6             7             8             9            10
    1    0.00074835    0.01689652    0.00247786   -0.00258667   -0.00261991
    2    0.00071754    0.00494419   -0.00062799    0.00215529   -0.00175808
    3   -0.00030852   -0.00176386   -0.00811449    0.01049357   -0.00051828
            11            12            13            14            15
    1    0.00152327    0.00022069   -0.00020306   -0.00022069    0.00020306
    2   -0.00192108   -0.00068589   -0.00128975    0.00068589    0.00128975
    3   -0.00094063   -0.00137278    0.00252499   -0.00137278    0.00252498
            16
    1   -0.00074835
    2   -0.00071754
    3   -0.00030852
 Gradient time:  CPU 1.52 s  wall 0.10 s
 Geometry Optimization Parameters
   NAtoms,    NIC,     NZ,  NCons,   NDum,   NFix, NCnnct, MaxDiis
       16     111       0       1       0       0       0       0


** CONSTRAINED OPTIMIZATION IN DELOCALIZED INTERNAL COORDINATES **
   Searching for a Minimum

   Optimization Cycle:   1

                       Coordinates (Angstroms)
     ATOM                X               Y               Z
      1  S         1.7757640004   -1.1089826579   -0.4850412626
      2  C         3.0901618939   -0.1582438939   -0.1393135248
      3  C         2.7704757967    1.0579674074    0.4437655356
      4  C         1.4209741813    1.2017137103    0.6050854273
      5  C         0.6902418380    0.1056989905    0.1514726762
      6  H         0.9587063973    2.0715221478    1.0386545361
      7  C        -0.6902418380   -0.1056989905    0.1514726762
      8  S        -1.7757640004    1.1089826579   -0.4850412626
      9  C        -1.4209741813   -1.2017137103    0.6050854273
     10  C        -3.0901618939    0.1582438939   -0.1393135248
     11  C        -2.7704757967   -1.0579674074    0.4437655356
     12  H        -3.5110521771   -1.7820601319    0.7256052751
     13  H         4.0804937487   -0.5073011430   -0.3696602922
     14  H         3.5110521771    1.7820601319    0.7256052751
     15  H        -4.0804937487    0.5073011430   -0.3696602922
     16  H        -0.9587063973   -2.0715221478    1.0386545361
   Point Group: c2    Number of degrees of freedom:    22


   Energy is  -1103.097295905

              Constraints and their Current Values
                                        Value     Constraint
   Dihedral:        4   5   7   9     -130.000     -130.000

 Attempting to Generate Delocalized Internal Coordinates

 21 Hessian modes will be used to form the next step
  Hessian Eigenvalues:
     0.045000    0.045000    0.045000    0.045000    0.045000    0.045000
     0.160000    0.160000    0.160000    0.221335    0.237679    0.250000
     0.299411    0.364554    0.366034    0.368031    0.392996    0.445237
     0.461927    0.467905    0.501257

 Minimum Search - Taking Simple RFO Step
 Searching for Lamda that Minimizes Along All modes
 Value Taken    Lamda =  -0.00406927
 Step Taken.  Stepsize is  0.266195

                             Maximum     Tolerance    Cnvgd?
         Gradient           0.008577      0.000300      NO
         Displacement       0.141105      0.001200      NO
         Energy change     *********      0.000001      NO


 New Cartesian Coordinates Obtained by Inverse Iteration

 Displacement from previous Coordinates is:  0.436140
 ----------------------------------------------------------------
             Standard Nuclear Orientation (Angstroms)
    I     Atom           X                Y                Z
 ----------------------------------------------------------------
    1      S       1.8011337113    -1.1344983275    -0.4288236590
    2      C       3.1043886407    -0.1705962756    -0.0967323136
    3      C       2.7711732564     1.0570832934     0.4509625496
    4      C       1.4157343745     1.2149405638     0.5499388854
    5      C       0.6977699092     0.1147576924     0.0980469752
    6      H       0.9375370715     2.0908069439     0.9524374941
    7      C      -0.6977699092    -0.1147576924     0.0980469752
    8      S      -1.8011337113     1.1344983275    -0.4288236590
    9      C      -1.4157343745    -1.2149405638     0.5499388854
   10      C      -3.1043886407     0.1705962756    -0.0967323136
   11      C      -2.7711732564    -1.0570832934     0.4509625496
   12      H      -3.5058229764    -1.7811206114     0.7482934203
   13      H       4.1001923349    -0.5201836871    -0.3035549812
   14      H       3.5058229764     1.7811206114     0.7482934203
   15      H      -4.1001923349     0.5201836871    -0.3035549812
   16      H      -0.9375370715    -2.0908069439     0.9524374941
 ----------------------------------------------------------------
 Molecular Point Group                 C2    NOp =  2
 Largest Abelian Subgroup              C2    NOp =  2
 Nuclear Repulsion Energy =   638.3874538237 hartrees
 There are       43 alpha and       42 beta electrons
 Applying Cartesian multipole field
    Component          Value
    ---------          -----
     (2,0,0)        1.00000E-11
     (0,2,0)        2.00000E-11
     (0,0,2)       -3.00000E-10
 Nucleus-field energy     =     0.0000000043 hartrees
 Requested basis set is cc-pVTZ
 There are 140 shells and 392 basis functions
 A cutoff of  1.0D-11 yielded   8057 shell pairs
 There are     62661 function pairs (     81660 Cartesian)
 Smallest overlap matrix eigenvalue = 7.54E-05
 Guess MOs from SCF MO coefficient file
 Reading MOs from coefficient file
 Reading MOs from coefficient file
 An unrestricted Hartree-Fock SCF calculation will be
 performed using Pulay DIIS extrapolation
 SCF converges when DIIS error is below 1.0E-08
 Geometry optimization detected.  Setting ReadMinima to 0
 Setting SaveMinima to 0
 using 16 threads for integral computing 
 ---------------------------------------
  Cycle       Energy         DIIS Error
 ---------------------------------------
    1   -1101.3399332589      1.01E-03
    2   -1101.3510594426      1.23E-04
    3   -1101.3518320940      4.95E-05
    4   -1101.3519702554      2.53E-05
    5   -1101.3520005622      9.20E-06
    6   -1101.3520057395      3.27E-06
    7   -1101.3520069654      1.40E-06
    8   -1101.3520072778      4.55E-07
    9   -1101.3520073800      2.39E-07
   10   -1101.3520074233      1.69E-07
   11   -1101.3520074603      1.31E-07
   12   -1101.3520074933      8.98E-08
   13   -1101.3520075126      4.44E-08
   14   -1101.3520075154      1.92E-08
   15   -1101.3520075158      8.05E-09 Convergence criterion met
 ---------------------------------------
 <S^2> = 1.0186
 SCF time:  CPU 1145.72 s  wall 71.66 s
 SCF   energy in the final basis set = -1101.3520075158
 Total energy in the final basis set = -1101.3520075158
 
 Components of the MP2 correlation energy:
        aaaa  correlation energy =        -0.2338783107 au
        abab  correlation energy =        -1.3022302972 au
        bbbb  correlation energy =        -0.2120423991 au
        non-Brillouin singles    =        -0.0000000000 au

 Total  MP2   correlation energy =        -1.7481510069 au
        MP2         total energy =     -1103.1001585227 au

  Entering Z-vector solver.
   1         0           1      0.000534    0.000534
   2         0           1      0.000478    0.000478
   3         0           1      0.000330    0.000330
   4         0           1      0.000267    0.000267
   5         0           1      0.000111    0.000111
   6         0           1      0.000054    0.000054
   7         0           1      0.000031    0.000031
   8         0           1      0.000020    0.000020
   9         0           1      0.000009    0.000009
  10         0           1      0.000004    0.000004
  11         0           1      0.000002    0.000002
  12         1           0      0.000000    0.000000    Roots Converged
 Warning:  Cannot save MP2 spin density
 
 --------------------------------------------------------------
             Orbital Energies (a.u.) and Symmetries
 --------------------------------------------------------------
 
 Alpha MOs, Unrestricted
 -- Occupied --                  
-92.160 -92.160 -11.477 -11.476 -11.451 -11.451 -11.433 -11.433
  1 A     1 B     2 A     2 B     3 B     3 A     4 B     4 A                  
-11.404 -11.404  -9.162  -9.162  -6.843  -6.843  -6.843  -6.843
  5 B     5 A     6 B     6 A     7 B     7 A     8 A     8 B                  
 -6.840  -6.840  -1.394  -1.365  -1.230  -1.195  -1.179  -1.130
  9 B     9 A    10 A    10 B    11 A    11 B    12 A    12 B                  
 -0.998  -0.959  -0.929  -0.905  -0.888  -0.824  -0.753  -0.748
 13 A    13 B    14 A    14 B    15 A    15 B    16 A    16 B                  
 -0.748  -0.736  -0.734  -0.711  -0.697  -0.662  -0.647  -0.570
 17 A    18 A    17 B    18 B    19 A    19 B    20 A    21 A                  
 -0.537  -0.520  -0.485
 20 B    22 A    21 B                                                          
 -- Virtual --                   
 -0.112  -0.045  -0.001   0.001   0.021   0.025   0.035   0.045
 23 A    22 B    24 A    23 B    25 A    24 B    26 A    25 B                  
  0.050   0.054   0.073   0.076   0.100   0.117   0.162   0.175
 26 B    27 A    28 A    27 B    28 B    29 A    29 B    30 A                  
  0.197   0.198   0.209   0.212   0.237   0.241   0.262   0.271
 31 A    30 B    31 B    32 A    33 A    32 B    33 B    34 A                  
  0.277   0.285   0.289   0.302   0.312   0.323   0.345   0.347
 35 A    34 B    35 B    36 A    37 A    36 B    37 B    38 A                  
  0.359   0.360   0.365   0.379   0.384   0.385   0.398   0.401
 38 B    39 A    39 B    40 A    40 B    41 A    41 B    42 B                  
  0.414   0.430   0.436   0.440   0.453   0.461   0.466   0.470
 42 A    43 A    43 B    44 A    44 B    45 A    45 B    46 A                  
  0.472   0.488   0.497   0.501   0.513   0.517   0.533   0.538
 46 B    47 A    48 A    47 B    48 B    49 A    49 B    50 A                  
  0.605   0.610   0.618   0.618   0.642   0.663   0.669   0.673
 50 B    51 A    51 B    52 A    52 B    53 A    53 B    54 B                  
  0.699   0.704   0.724   0.738   0.738   0.751   0.785   0.785
 55 B    54 A    55 A    56 B    56 A    57 A    57 B    58 A                  
  0.810   0.841   0.842   0.855   0.857   0.863   0.909   0.912
 59 A    60 A    58 B    59 B    60 B    61 A    61 B    62 A                  
  0.923   0.933   0.943   0.947   0.977   0.986   1.008   1.010
 62 B    63 A    64 A    63 B    65 A    64 B    66 A    65 B                  
  1.023   1.029   1.046   1.057   1.071   1.090   1.098   1.121
 66 B    67 A    67 B    68 A    68 B    69 B    69 A    70 A                  
  1.136   1.150   1.168   1.197   1.219   1.221   1.246   1.273
 70 B    71 A    72 A    71 B    73 A    72 B    73 B    74 A                  
  1.292   1.294   1.314   1.329   1.330   1.336   1.350   1.371
 74 B    75 A    75 B    76 B    76 A    77 B    77 A    78 B                  
  1.372   1.384   1.399   1.418   1.423   1.438   1.455   1.475
 78 A    79 A    79 B    80 B    80 A    81 A    81 B    82 A                  
  1.511   1.515   1.544   1.558   1.574   1.599   1.603   1.674
 82 B    83 B    83 A    84 B    84 A    85 B    85 A    86 A                  
  1.675   1.681   1.689   1.723   1.726   1.751   1.766   1.772
 87 A    86 B    87 B    88 B    88 A    89 B    89 A    90 A                  
  1.774   1.813   1.867   1.897   1.904   1.925   1.945   1.992
 90 B    91 B    91 A    92 A    92 B    93 A    93 B    94 A                  
  2.013   2.020   2.030   2.040   2.061   2.085   2.093   2.109
 95 A    94 B    95 B    96 B    96 A    97 A    97 B    98 A                  
  2.112   2.146   2.153   2.200   2.216   2.253   2.271   2.285
 98 B    99 B    99 A   100 B   100 A   101 A   101 B   102 A                  
  2.314   2.321   2.343   2.344   2.348   2.389   2.401   2.407
102 B   103 A   104 A   103 B   104 B   105 B   105 A   106 A                  
  2.442   2.494   2.513   2.516   2.536   2.545   2.573   2.581
106 B   107 B   108 B   107 A   109 B   108 A   109 A   110 B                  
  2.590   2.596   2.600   2.620   2.624   2.676   2.704   2.716
110 A   111 A   111 B   112 B   112 A   113 A   113 B   114 A                  
  2.735   2.747   2.769   2.779   2.825   2.829   2.829   2.847
114 B   115 B   115 A   116 A   116 B   117 A   117 B   118 A                  
  2.851   2.882   2.885   2.947   2.976   2.987   2.999   3.004
118 B   119 B   119 A   120 A   121 A   120 B   122 A   121 B                  
  3.042   3.048   3.057   3.070   3.071   3.084   3.093   3.110
123 A   122 B   124 A   123 B   125 A   124 B   126 A   127 A                  
  3.123   3.129   3.144   3.149   3.167   3.168   3.205   3.216
125 B   126 B   127 B   128 A   128 B   129 A   129 B   130 B                  
  3.219   3.248   3.249   3.261   3.275   3.281   3.290   3.304
130 A   131 A   131 B   132 A   132 B   133 A   134 A   133 B                  
  3.315   3.325   3.327   3.331   3.342   3.353   3.355   3.360
135 A   136 A   134 B   135 B   137 A   138 A   136 B   137 B                  
  3.379   3.385   3.405   3.412   3.414   3.439   3.461   3.487
138 B   139 A   140 A   139 B   141 A   142 A   140 B   141 B                  
  3.521   3.531   3.553   3.561   3.572   3.601   3.616   3.622
143 A   142 B   143 B   144 A   145 A   144 B   146 A   145 B                  
  3.648   3.656   3.692   3.703   3.728   3.734   3.752   3.758
147 A   146 B   147 B   148 A   148 B   149 A   149 B   150 A                  
  3.811   3.812   3.825   3.835   3.843   3.873   3.885   3.885
151 A   150 B   151 B   152 A   152 B   153 A   153 B   154 A                  
  3.902   3.951   3.965   3.966   3.992   4.004   4.022   4.023
154 B   155 A   156 A   155 B   156 B   157 A   157 B   158 A                  
  4.049   4.059   4.061   4.109   4.112   4.121   4.136   4.153
158 B   159 A   160 A   159 B   161 A   160 B   161 B   162 A                  
  4.173   4.186   4.210   4.255   4.273   4.311   4.365   4.373
162 B   163 A   164 A   163 B   164 B   165 A   165 B   166 A                  
  4.379   4.393   4.445   4.465   4.466   4.484   4.508   4.532
166 B   167 A   167 B   168 A   168 B   169 A   170 A   169 B                  
  4.553   4.573   4.587   4.610   4.611   4.661   4.684   4.724
170 B   171 B   171 A   172 A   172 B   173 A   173 B   174 B                  
  4.733   4.783   4.828   4.838   4.853   4.881   4.888   4.908
174 A   175 A   175 B   176 B   176 A   177 B   177 A   178 A                  
  4.919   4.957   5.029   5.078   5.080   5.116   5.149   5.224
178 B   179 A   179 B   180 A   180 B   181 B   181 A   182 A                  
  5.235   5.261   5.265   5.341   5.384   5.426   5.474   5.511
182 B   183 A   183 B   184 A   184 B   185 A   186 A   185 B                  
  5.611   5.765   5.813   5.918   5.919   5.998   6.033   6.088
186 B   187 A   187 B   188 B   188 A   189 A   189 B   190 B                  
  6.112   6.381   6.404   6.577   6.594   9.313  10.750  11.790
190 A   191 A   191 B   192 A   192 B   193 A   193 B   194 A                  
 12.459  13.281  13.443  14.665  14.733
194 B   195 A   195 B   196 B   196 A                                          
 
 Beta MOs, Unrestricted
 -- Occupied --                  
-92.161 -92.161 -11.476 -11.475 -11.439 -11.439 -11.426 -11.426
  1 A     1 B     2 A     2 B     3 B     3 A     4 A     4 B                  
-11.410 -11.410  -9.164  -9.164  -6.845  -6.845  -6.844  -6.844
  5 B     5 A     6 A     6 B     7 B     7 A     8 A     8 B                  
 -6.843  -6.843  -1.382  -1.350  -1.218  -1.186  -1.176  -1.107
  9 A     9 B    10 A    10 B    11 A    11 B    12 A    12 B                  
 -0.990  -0.949  -0.917  -0.901  -0.886  -0.819  -0.745  -0.743
 13 A    13 B    14 A    14 B    15 A    15 B    16 B    16 A                  
 -0.739  -0.729  -0.720  -0.684  -0.666  -0.659  -0.645  -0.535
 17 A    17 B    18 A    19 A    18 B    19 B    20 A    21 A                  
 -0.534  -0.499
 20 B    22 A                                                                  
 -- Virtual --                   
 -0.194  -0.053  -0.014   0.007   0.007   0.023   0.028   0.050
 21 B    23 A    22 B    24 A    23 B    25 A    24 B    25 B                  
  0.050   0.058   0.062   0.075   0.081   0.107   0.119   0.163
 26 A    27 A    26 B    28 A    27 B    28 B    29 A    29 B                  
  0.176   0.201   0.201   0.211   0.213   0.240   0.244   0.267
 30 A    31 A    30 B    31 B    32 A    33 A    32 B    33 B                  
  0.274   0.287   0.291   0.294   0.310   0.316   0.326   0.348
 34 A    35 A    34 B    35 B    36 A    37 A    36 B    37 B                  
  0.352   0.365   0.368   0.380   0.382   0.396   0.399   0.404
 38 A    39 A    38 B    39 B    40 A    41 A    40 B    41 B                  
  0.414   0.419   0.435   0.444   0.452   0.459   0.464   0.469
 42 B    42 A    43 A    43 B    44 A    44 B    45 A    45 B                  
  0.474   0.478   0.495   0.501   0.502   0.519   0.520   0.539
 46 A    46 B    47 A    47 B    48 A    49 A    48 B    49 B                  
  0.543   0.608   0.614   0.619   0.620   0.644   0.664   0.672
 50 A    50 B    51 A    51 B    52 A    52 B    53 A    53 B                  
  0.678   0.703   0.710   0.729   0.742   0.743   0.754   0.787
 54 B    55 B    54 A    55 A    56 B    56 A    57 A    58 A                  
  0.788   0.816   0.843   0.845   0.857   0.861   0.864   0.915
 57 B    59 A    60 A    58 B    59 B    60 B    61 A    61 B                  
  0.917   0.926   0.937   0.948   0.957   0.979   0.986   1.011
 62 A    62 B    63 A    64 A    63 B    65 A    64 B    66 A                  
  1.011   1.029   1.034   1.050   1.059   1.071   1.094   1.099
 65 B    66 B    67 A    67 B    68 A    68 B    69 B    69 A                  
  1.125   1.137   1.155   1.175   1.200   1.226   1.231   1.252
 70 A    70 B    71 A    72 A    71 B    73 A    72 B    73 B                  
  1.279   1.295   1.298   1.315   1.332   1.336   1.342   1.358
 74 A    74 B    75 A    75 B    76 A    76 B    77 B    77 A                  
  1.372   1.373   1.388   1.401   1.421   1.423   1.442   1.460
 78 B    78 A    79 A    79 B    80 B    80 A    81 A    81 B                  
  1.479   1.513   1.518   1.549   1.562   1.578   1.602   1.603
 82 A    82 B    83 B    83 A    84 B    84 A    85 B    85 A                  
  1.673   1.676   1.682   1.692   1.723   1.725   1.753   1.767
 86 A    87 A    86 B    87 B    88 B    88 A    89 B    89 A                  
  1.773   1.776   1.814   1.866   1.898   1.904   1.925   1.947
 90 B    90 A    91 B    91 A    92 A    92 B    93 A    93 B                  
  1.993   2.015   2.019   2.029   2.041   2.064   2.086   2.098
 94 A    95 A    94 B    95 B    96 B    96 A    97 A    97 B                  
  2.120   2.122   2.152   2.156   2.202   2.219   2.260   2.268
 98 B    98 A    99 B    99 A   100 B   100 A   101 A   101 B                  
  2.281   2.316   2.323   2.348   2.353   2.361   2.399   2.407
102 A   102 B   103 A   103 B   104 A   104 B   105 B   105 A                  
  2.417   2.449   2.499   2.517   2.517   2.541   2.546   2.576
106 A   106 B   107 B   108 B   107 A   109 B   108 A   109 A                  
  2.588   2.599   2.602   2.606   2.627   2.629   2.678   2.713
110 B   110 A   111 A   111 B   112 B   112 A   113 A   113 B                  
  2.725   2.739   2.755   2.777   2.783   2.828   2.831   2.835
114 A   114 B   115 B   115 A   116 A   116 B   117 A   117 B                  
  2.854   2.859   2.884   2.888   2.951   2.981   2.999   3.001
118 A   118 B   119 B   119 A   120 A   121 A   120 B   122 A                  
  3.009   3.047   3.047   3.061   3.072   3.076   3.090   3.101
121 B   122 B   123 A   124 A   123 B   125 A   124 B   126 A                  
  3.117   3.128   3.137   3.153   3.156   3.172   3.173   3.208
127 A   125 B   126 B   127 B   128 A   128 B   129 A   129 B                  
  3.220   3.220   3.252   3.253   3.265   3.278   3.285   3.296
130 B   130 A   131 A   131 B   132 A   132 B   133 A   134 A                  
  3.311   3.321   3.335   3.340   3.340   3.345   3.354   3.359
133 B   135 A   134 B   135 B   136 A   137 A   138 A   136 B                  
  3.366   3.382   3.389   3.410   3.417   3.420   3.443   3.465
137 B   138 B   139 A   140 A   139 B   141 A   142 A   140 B                  
  3.491   3.524   3.536   3.555   3.567   3.575   3.605   3.620
141 B   143 A   142 B   143 B   144 A   145 A   144 B   146 A                  
  3.628   3.651   3.660   3.694   3.706   3.731   3.739   3.755
145 B   147 A   146 B   147 B   148 A   148 B   149 A   149 B                  
  3.758   3.814   3.817   3.828   3.837   3.845   3.877   3.888
150 A   151 A   150 B   151 B   152 A   152 B   153 A   153 B                  
  3.889   3.905   3.953   3.968   3.969   3.994   4.005   4.024
154 A   154 B   155 A   156 A   155 B   156 B   157 A   157 B                  
  4.024   4.050   4.061   4.062   4.111   4.114   4.121   4.138
158 A   158 B   159 A   160 A   159 B   161 A   160 B   161 B                  
  4.154   4.176   4.189   4.211   4.256   4.274   4.311   4.366
162 A   162 B   163 A   164 A   163 B   164 B   165 A   165 B                  
  4.374   4.380   4.394   4.448   4.468   4.469   4.487   4.510
166 A   166 B   167 A   167 B   168 B   168 A   169 A   170 A                  
  4.534   4.555   4.574   4.591   4.611   4.612   4.662   4.686
169 B   170 B   171 B   171 A   172 A   172 B   173 A   173 B                  
  4.726   4.735   4.786   4.830   4.841   4.855   4.882   4.889
174 B   174 A   175 A   175 B   176 B   176 A   177 B   177 A                  
  4.911   4.921   4.958   5.031   5.082   5.084   5.121   5.151
178 A   178 B   179 A   179 B   180 B   180 A   181 B   181 A                  
  5.225   5.236   5.262   5.266   5.342   5.385   5.427   5.476
182 A   182 B   183 A   183 B   184 A   184 B   185 A   186 A                  
  5.512   5.612   5.765   5.814   5.919   5.919   5.999   6.034
185 B   186 B   187 A   187 B   188 B   188 A   189 A   189 B                  
  6.088   6.113   6.382   6.405   6.578   6.594   9.315  10.754
190 B   190 A   191 A   191 B   192 A   192 B   193 A   193 B                  
 11.794  12.464  13.285  13.445  14.667  14.735
194 A   194 B   195 A   195 B   196 B   196 A                                  
 --------------------------------------------------------------
 
          Ground-State Mulliken Net Atomic Charges

     Atom                 Charge (a.u.)    Spin (a.u.)
  --------------------------------------------------------
      1 S                     0.272594      -0.026962
      2 C                    -0.113750      -0.053367
      3 C                    -0.160624       0.464476
      4 C                    -0.143033      -0.274430
      5 C                    -0.035332       0.388750
      6 H                     0.214285       0.022026
      7 C                    -0.035332       0.388750
      8 S                     0.272594      -0.026962
      9 C                    -0.143033      -0.274430
     10 C                    -0.113750      -0.053367
     11 C                    -0.160624       0.464476
     12 H                     0.224368      -0.035102
     13 H                     0.241491       0.014610
     14 H                     0.224368      -0.035102
     15 H                     0.241491       0.014610
     16 H                     0.214285       0.022026
  --------------------------------------------------------
  Sum of atomic charges =     1.000000
  Sum of spin   charges =     1.000000

 -----------------------------------------------------------------
                    Cartesian Multipole Moments
 -----------------------------------------------------------------
    Charge (ESU x 10^10)
                 4.8032
    Dipole Moment (Debye)
         X      -0.0000      Y      -0.0000      Z       0.5021
       Tot       0.5021
    Quadrupole Moments (Debye-Ang)
        XX     -21.7461     XY       1.4113     YY     -58.5770
        XZ      -0.0000     YZ      -0.0000     ZZ     -70.6877
    Octopole Moments (Debye-Ang^2)
       XXX      -0.0000    XXY      -0.0000    XYY      -0.0000
       YYY      -0.0000    XXZ      -3.4467    XYZ      13.7745
       YYZ       6.8746    XZZ      -0.0000    YZZ      -0.0000
       ZZZ      -6.3697
    Hexadecapole Moments (Debye-Ang^3)
      XXXX   -1273.7611   XXXY       3.5594   XXYY    -343.1563
      XYYY      21.1469   YYYY    -447.0509   XXXZ      -0.0000
      XXYZ       0.0000   XYYZ      -0.0000   YYYZ      -0.0000
      XXZZ    -361.7001   XYZZ       1.4626   YYZZ     -99.4796
      XZZZ       0.0000   YZZZ      -0.0000   ZZZZ    -158.4057
 -----------------------------------------------------------------
 DrvMan is completing analytic gradient of the MP2 energy
 MP2 relaxed dipole moment
            1
    1  -0.0000000
    2  -0.0000000
    3   0.1975352
	Magnitude:	 0.198 au	 0.502 Debye
 MP2 energy read as -1103.100159
 Full Analytical Gradient of MP2 Energy (in au.)
             1             2             3             4             5
    1    0.00102754    0.00020495   -0.00019283    0.00102204   -0.00101921
    2    0.00161938    0.00157936   -0.00092093   -0.00400610    0.00258645
    3   -0.00165091   -0.00290312    0.00082905    0.00742864   -0.00429971
             6             7             8             9            10
    1    0.00000764    0.00101921   -0.00102754   -0.00102204   -0.00020495
    2   -0.00013460   -0.00258645   -0.00161938    0.00400610   -0.00157936
    3    0.00024347   -0.00429971   -0.00165091    0.00742864   -0.00290312
            11            12            13            14            15
    1    0.00019283   -0.00008574    0.00010815    0.00008574   -0.00010815
    2    0.00092093   -0.00021631   -0.00055212    0.00021631    0.00055212
    3    0.00082905   -0.00071264    0.00106523   -0.00071264    0.00106523
            16
    1   -0.00000764
    2    0.00013460
    3    0.00024347
 Gradient time:  CPU 1.49 s  wall 0.10 s
 Geometry Optimization Parameters
   NAtoms,    NIC,     NZ,  NCons,   NDum,   NFix, NCnnct, MaxDiis
       16     111       0       1       0       0       0       0

 Cartesian Hessian Update
 Hessian Updated using BFGS Update


** CONSTRAINED OPTIMIZATION IN DELOCALIZED INTERNAL COORDINATES **
   Searching for a Minimum

   Optimization Cycle:   2

                       Coordinates (Angstroms)
     ATOM                X               Y               Z
      1  S         1.8011337113   -1.1344983275   -0.4288236590
      2  C         3.1043886407   -0.1705962756   -0.0967323136
      3  C         2.7711732564    1.0570832934    0.4509625496
      4  C         1.4157343745    1.2149405638    0.5499388854
      5  C         0.6977699092    0.1147576924    0.0980469752
      6  H         0.9375370715    2.0908069439    0.9524374941
      7  C        -0.6977699092   -0.1147576924    0.0980469752
      8  S        -1.8011337113    1.1344983275   -0.4288236590
      9  C        -1.4157343745   -1.2149405638    0.5499388854
     10  C        -3.1043886407    0.1705962756   -0.0967323136
     11  C        -2.7711732564   -1.0570832934    0.4509625496
     12  H        -3.5058229764   -1.7811206114    0.7482934203
     13  H         4.1001923349   -0.5201836871   -0.3035549812
     14  H         3.5058229764    1.7811206114    0.7482934203
     15  H        -4.1001923349    0.5201836871   -0.3035549812
     16  H        -0.9375370715   -2.0908069439    0.9524374941
   Point Group: c2    Number of degrees of freedom:    22


   Energy is  -1103.100158523

              Constraints and their Current Values
                                        Value     Constraint
   Dihedral:        4   5   7   9     -130.000     -130.000
 Hessian Updated using BFGS Update

 16 Hessian modes will be used to form the next step
  Hessian Eigenvalues:
     0.020758    0.054066    0.159961    0.160619    0.221372    0.241458
     0.250301    0.299140    0.364561    0.366075    0.368032    0.394982
     0.445203    0.467334    0.498473    0.532512

 Minimum Search - Taking Simple RFO Step
 Searching for Lamda that Minimizes Along All modes
 Value Taken    Lamda =  -0.00249330
 Calculated Step too Large.  Step scaled by  0.929156
 Step Taken.  Stepsize is  0.300000

                             Maximum     Tolerance    Cnvgd?
         Gradient           0.006332      0.000300      NO
         Displacement       0.193330      0.001200      NO
         Energy change     -0.002863      0.000001      NO


 New Cartesian Coordinates Obtained by Inverse Iteration

 Displacement from previous Coordinates is:  0.700725
 ----------------------------------------------------------------
             Standard Nuclear Orientation (Angstroms)
    I     Atom           X                Y                Z
 ----------------------------------------------------------------
    1      S       1.8098129922    -1.1606556996    -0.3820114168
    2      C       3.1012533379    -0.1953112442    -0.0144192726
    3      C       2.7539107748     1.0606650415     0.4565351879
    4      C       1.3968913579     1.2371222585     0.4664734002
    5      C       0.6977536346     0.1263392571     0.0148796086
    6      H       0.9032599509     2.1267684824     0.8166533637
    7      C      -0.6977536346    -0.1263392571     0.0148796086
    8      S      -1.8098129922     1.1606556996    -0.3820114168
    9      C      -1.3968913579    -1.2371222585     0.4664734002
   10      C      -3.1012533379     0.1953112442    -0.0144192726
   11      C      -2.7539107748    -1.0606650415     0.4565351879
   12      H      -3.4782761660    -1.7853572398     0.7766526543
   13      H       4.1033103922    -0.5559377343    -0.1641951546
   14      H       3.4782761660     1.7853572398     0.7766526543
   15      H      -4.1033103922     0.5559377343    -0.1641951546
   16      H      -0.9032599509    -2.1267684824     0.8166533637
 ----------------------------------------------------------------
 Molecular Point Group                 C2    NOp =  2
 Largest Abelian Subgroup              C2    NOp =  2
 Nuclear Repulsion Energy =   639.0236654396 hartrees
 There are       43 alpha and       42 beta electrons
 Applying Cartesian multipole field
    Component          Value
    ---------          -----
     (2,0,0)        1.00000E-11
     (0,2,0)        2.00000E-11
     (0,0,2)       -3.00000E-10
 Nucleus-field energy     =     0.0000000076 hartrees
 Requested basis set is cc-pVTZ
 There are 140 shells and 392 basis functions
 A cutoff of  1.0D-11 yielded   8063 shell pairs
 There are     62711 function pairs (     81720 Cartesian)
 Smallest overlap matrix eigenvalue = 7.16E-05
 Guess MOs from SCF MO coefficient file
 Reading MOs from coefficient file
 Reading MOs from coefficient file
 An unrestricted Hartree-Fock SCF calculation will be
 performed using Pulay DIIS extrapolation
 SCF converges when DIIS error is below 1.0E-08
 Geometry optimization detected.  Setting ReadMinima to 0
 Setting SaveMinima to 0
 using 16 threads for integral computing 
 ---------------------------------------
  Cycle       Energy         DIIS Error
 ---------------------------------------
    1   -1101.3179104143      1.36E-03
    2   -1101.3519736460      1.88E-04
    3   -1101.3537225125      8.02E-05
    4   -1101.3540487405      3.87E-05
    5   -1101.3541388083      1.29E-05
    6   -1101.3541499273      5.60E-06
    7   -1101.3541528417      2.20E-06
    8   -1101.3541535560      6.19E-07
    9   -1101.3541537242      3.37E-07
   10   -1101.3541537985      2.28E-07
   11   -1101.3541538465      1.77E-07
   12   -1101.3541538925      1.19E-07
   13   -1101.3541539226      5.20E-08
   14   -1101.3541539291      2.72E-08
   15   -1101.3541539303      1.40E-08
   16   -1101.3541539315      6.72E-09 Convergence criterion met
 ---------------------------------------
 <S^2> = 1.0207
 SCF time:  CPU 1259.21 s  wall 78.76 s
 SCF   energy in the final basis set = -1101.3541539315
 Total energy in the final basis set = -1101.3541539315
 
 Components of the MP2 correlation energy:
        aaaa  correlation energy =        -0.2339212153 au
        abab  correlation energy =        -1.3017698883 au
        bbbb  correlation energy =        -0.2119093322 au
        non-Brillouin singles    =        -0.0000000000 au

 Total  MP2   correlation energy =        -1.7476004357 au
        MP2         total energy =     -1103.1017543673 au

  Entering Z-vector solver.
   1         0           1      0.000532    0.000532
   2         0           1      0.000473    0.000473
   3         0           1      0.000319    0.000319
   4         0           1      0.000255    0.000255
   5         0           1      0.000106    0.000106
   6         0           1      0.000051    0.000051
   7         0           1      0.000030    0.000030
   8         0           1      0.000019    0.000019
   9         0           1      0.000008    0.000008
  10         0           1      0.000004    0.000004
  11         0           1      0.000002    0.000002
  12         1           0      0.000000    0.000000    Roots Converged
 Warning:  Cannot save MP2 spin density
 
 --------------------------------------------------------------
             Orbital Energies (a.u.) and Symmetries
 --------------------------------------------------------------
 
 Alpha MOs, Unrestricted
 -- Occupied --                  
-92.160 -92.160 -11.477 -11.476 -11.451 -11.451 -11.434 -11.434
  1 A     1 B     2 A     2 B     3 B     3 A     4 B     4 A                  
-11.404 -11.404  -9.162  -9.162  -6.843  -6.843  -6.842  -6.842
  5 B     5 A     6 A     6 B     7 B     7 A     8 A     8 B                  
 -6.840  -6.840  -1.395  -1.366  -1.230  -1.197  -1.180  -1.130
  9 B     9 A    10 A    10 B    11 A    11 B    12 A    12 B                  
 -0.997  -0.961  -0.928  -0.906  -0.889  -0.823  -0.755  -0.748
 13 A    13 B    14 A    14 B    15 A    15 B    16 A    16 B                  
 -0.748  -0.737  -0.734  -0.712  -0.695  -0.664  -0.646  -0.575
 17 A    18 A    17 B    18 B    19 A    19 B    20 A    21 A                  
 -0.538  -0.520  -0.483
 20 B    22 A    21 B                                                          
 -- Virtual --                   
 -0.115  -0.041  -0.000   0.001   0.021   0.028   0.035   0.043
 23 A    22 B    24 A    23 B    25 A    24 B    26 A    25 B                  
  0.049   0.054   0.072   0.073   0.104   0.120   0.162   0.178
 26 B    27 A    28 A    27 B    28 B    29 A    29 B    30 A                  
  0.198   0.198   0.210   0.210   0.237   0.241   0.259   0.273
 30 B    31 A    32 A    31 B    33 A    32 B    33 B    34 A                  
  0.280   0.285   0.289   0.301   0.314   0.319   0.345   0.347
 35 A    34 B    35 B    36 A    37 A    36 B    38 A    37 B                  
  0.359   0.366   0.369   0.377   0.381   0.385   0.394   0.408
 38 B    39 A    39 B    40 A    40 B    41 A    41 B    42 B                  
  0.414   0.431   0.434   0.441   0.454   0.464   0.467   0.469
 42 A    43 A    43 B    44 A    44 B    45 A    45 B    46 B                  
  0.470   0.489   0.496   0.501   0.511   0.514   0.533   0.542
 46 A    47 A    48 A    47 B    48 B    49 A    49 B    50 A                  
  0.608   0.614   0.615   0.620   0.642   0.661   0.669   0.675
 51 A    50 B    51 B    52 A    52 B    53 A    53 B    54 B                  
  0.702   0.704   0.722   0.735   0.736   0.751   0.791   0.798
 54 A    55 B    55 A    56 A    56 B    57 A    58 A    59 A                  
  0.799   0.829   0.850   0.851   0.857   0.865   0.907   0.918
 57 B    58 B    60 A    59 B    60 B    61 A    62 A    61 B                  
  0.924   0.926   0.949   0.951   0.983   0.985   1.006   1.007
 62 B    63 A    63 B    64 A    64 B    65 A    65 B    66 A                  
  1.021   1.030   1.043   1.059   1.069   1.084   1.097   1.119
 66 B    67 A    67 B    68 A    68 B    69 B    69 A    70 A                  
  1.138   1.149   1.169   1.190   1.216   1.224   1.245   1.271
 70 B    71 A    72 A    71 B    73 A    72 B    73 B    74 A                  
  1.285   1.293   1.315   1.317   1.332   1.335   1.348   1.369
 75 A    74 B    75 B    76 A    76 B    77 B    77 A    78 B                  
  1.372   1.389   1.398   1.411   1.418   1.436   1.458   1.477
 78 A    79 A    79 B    80 B    80 A    81 A    81 B    82 A                  
  1.507   1.518   1.538   1.554   1.574   1.604   1.607   1.673
 82 B    83 B    83 A    84 B    84 A    85 B    85 A    86 A                  
  1.679   1.680   1.693   1.721   1.727   1.742   1.760   1.776
 87 A    86 B    87 B    88 A    88 B    89 B    89 A    90 A                  
  1.783   1.814   1.863   1.892   1.899   1.929   1.946   1.994
 90 B    91 B    91 A    92 A    92 B    93 A    93 B    94 A                  
  2.014   2.021   2.024   2.042   2.063   2.095   2.103   2.110
 94 B    95 A    95 B    96 B    96 A    97 A    97 B    98 A                  
  2.115   2.143   2.151   2.189   2.206   2.258   2.266   2.289
 98 B    99 B    99 A   100 B   100 A   101 A   101 B   102 A                  
  2.315   2.319   2.334   2.344   2.348   2.395   2.399   2.407
102 B   103 A   104 A   103 B   104 B   105 B   105 A   106 A                  
  2.438   2.484   2.515   2.520   2.534   2.547   2.571   2.583
106 B   107 B   108 B   107 A   109 B   108 A   109 A   110 B                  
  2.594   2.598   2.615   2.617   2.626   2.672   2.701   2.719
111 B   110 A   111 A   112 B   112 A   113 A   113 B   114 A                  
  2.729   2.749   2.771   2.783   2.818   2.829   2.830   2.850
114 B   115 B   115 A   116 A   116 B   117 B   117 A   118 B                  
  2.855   2.881   2.888   2.941   2.973   2.989   2.998   3.014
118 A   119 B   119 A   120 A   121 A   120 B   122 A   121 B                  
  3.037   3.047   3.055   3.061   3.072   3.085   3.089   3.111
123 A   122 B   123 B   124 A   125 A   124 B   126 A   127 A                  
  3.113   3.129   3.133   3.142   3.160   3.171   3.214   3.219
125 B   126 B   127 B   128 A   128 B   129 A   130 A   129 B                  
  3.231   3.237   3.252   3.259   3.275   3.284   3.289   3.305
131 A   130 B   131 B   132 A   132 B   133 A   134 A   133 B                  
  3.311   3.325   3.326   3.329   3.338   3.355   3.358   3.366
135 A   136 A   134 B   135 B   137 A   136 B   138 A   137 B                  
  3.381   3.384   3.406   3.410   3.410   3.444   3.458   3.483
138 B   139 A   140 A   141 A   139 B   142 A   140 B   141 B                  
  3.510   3.530   3.557   3.559   3.570   3.596   3.607   3.631
143 A   142 B   144 A   143 B   145 A   144 B   146 A   145 B                  
  3.642   3.644   3.696   3.699   3.733   3.737   3.751   3.759
146 B   147 A   148 A   147 B   149 A   148 B   149 B   150 A                  
  3.813   3.816   3.822   3.830   3.843   3.876   3.883   3.890
151 A   150 B   151 B   152 A   152 B   153 A   153 B   154 A                  
  3.895   3.941   3.962   3.964   3.993   3.999   4.023   4.024
154 B   155 A   156 A   155 B   156 B   157 A   158 A   157 B                  
  4.049   4.060   4.066   4.114   4.116   4.117   4.134   4.148
158 B   159 A   160 A   159 B   160 B   161 A   161 B   162 A                  
  4.166   4.187   4.211   4.255   4.268   4.312   4.355   4.374
162 B   163 A   164 A   163 B   164 B   165 A   165 B   166 A                  
  4.381   4.391   4.444   4.465   4.468   4.485   4.511   4.530
166 B   167 A   167 B   168 A   168 B   169 A   170 A   169 B                  
  4.552   4.578   4.579   4.595   4.607   4.663   4.687   4.724
170 B   171 A   171 B   172 A   172 B   173 A   173 B   174 B                  
  4.732   4.790   4.819   4.844   4.850   4.875   4.892   4.907
174 A   175 A   175 B   176 B   176 A   177 B   177 A   178 A                  
  4.924   4.964   5.029   5.074   5.077   5.110   5.153   5.224
178 B   179 A   179 B   180 B   180 A   181 B   181 A   182 A                  
  5.233   5.257   5.263   5.338   5.382   5.426   5.471   5.510
182 B   183 A   183 B   184 A   184 B   185 A   186 A   185 B                  
  5.616   5.762   5.804   5.917   5.917   6.005   6.030   6.112
186 B   187 A   187 B   188 A   188 B   189 A   189 B   190 B                  
  6.116   6.384   6.397   6.566   6.600   9.273  10.713  11.801
190 A   191 A   191 B   192 A   192 B   193 A   193 B   194 A                  
 12.427  13.331  13.421  14.647  14.757
194 B   195 A   195 B   196 B   196 A                                          
 
 Beta MOs, Unrestricted
 -- Occupied --                  
-92.161 -92.161 -11.477 -11.476 -11.439 -11.439 -11.426 -11.426
  1 A     1 B     2 A     2 B     3 B     3 A     4 A     4 B                  
-11.411 -11.411  -9.163  -9.163  -6.844  -6.844  -6.844  -6.844
  5 B     5 A     6 A     6 B     7 B     7 A     8 A     8 B                  
 -6.843  -6.843  -1.383  -1.351  -1.218  -1.188  -1.176  -1.107
  9 A     9 B    10 A    10 B    11 A    11 B    12 A    12 B                  
 -0.989  -0.951  -0.916  -0.901  -0.887  -0.819  -0.745  -0.743
 13 A    13 B    14 A    14 B    15 A    15 B    16 B    16 A                  
 -0.740  -0.730  -0.721  -0.684  -0.667  -0.660  -0.645  -0.535
 17 A    17 B    18 A    19 A    18 B    19 B    20 A    20 B                  
 -0.534  -0.503
 21 A    22 A                                                                  
 -- Virtual --                   
 -0.191  -0.054  -0.011   0.006   0.007   0.023   0.029   0.050
 21 B    23 A    22 B    24 A    23 B    25 A    24 B    25 B                  
  0.052   0.058   0.061   0.074   0.077   0.108   0.121   0.164
 26 A    27 A    26 B    28 A    27 B    28 B    29 A    29 B                  
  0.179   0.201   0.202   0.212   0.213   0.240   0.243   0.264
 30 A    30 B    31 A    32 A    31 B    33 A    32 B    33 B                  
  0.277   0.290   0.291   0.293   0.311   0.316   0.322   0.349
 34 A    35 A    34 B    35 B    36 A    37 A    36 B    37 B                  
  0.352   0.371   0.373   0.381   0.381   0.395   0.398   0.406
 38 A    38 B    39 A    39 B    40 A    41 A    40 B    41 B                  
  0.417   0.419   0.433   0.441   0.453   0.460   0.466   0.470
 42 B    42 A    43 A    43 B    44 A    44 B    45 A    45 B                  
  0.474   0.476   0.494   0.501   0.502   0.517   0.517   0.540
 46 A    46 B    47 A    48 A    47 B    48 B    49 A    49 B                  
  0.546   0.613   0.616   0.617   0.621   0.644   0.662   0.672
 50 A    51 A    50 B    51 B    52 A    52 B    53 A    53 B                  
  0.680   0.707   0.708   0.727   0.740   0.742   0.753   0.793
 54 B    54 A    55 B    55 A    56 B    56 A    57 A    58 A                  
  0.800   0.804   0.832   0.852   0.853   0.862   0.866   0.913
 57 B    59 A    58 B    60 A    59 B    60 B    61 A    62 A                  
  0.920   0.929   0.932   0.956   0.960   0.983   0.987   1.008
 61 B    62 B    63 A    64 A    63 B    64 B    65 A    65 B                  
  1.010   1.027   1.035   1.046   1.061   1.070   1.089   1.098
 66 A    66 B    67 A    67 B    68 A    68 B    69 B    69 A                  
  1.122   1.139   1.155   1.175   1.193   1.223   1.235   1.252
 70 A    70 B    71 A    72 A    71 B    73 A    72 B    73 B                  
  1.275   1.290   1.296   1.316   1.320   1.336   1.343   1.357
 74 A    75 A    74 B    75 B    76 A    76 B    77 B    77 A                  
  1.370   1.373   1.393   1.399   1.414   1.418   1.441   1.462
 78 B    78 A    79 A    79 B    80 B    80 A    81 A    81 B                  
  1.480   1.509   1.521   1.543   1.558   1.578   1.607   1.607
 82 A    82 B    83 B    83 A    84 B    84 A    85 A    85 B                  
  1.671   1.679   1.681   1.697   1.720   1.726   1.744   1.761
 86 A    87 A    86 B    87 B    88 A    88 B    89 B    89 A                  
  1.781   1.783   1.816   1.863   1.893   1.898   1.929   1.948
 90 A    90 B    91 B    91 A    92 A    92 B    93 A    93 B                  
  1.994   2.013   2.023   2.025   2.042   2.067   2.095   2.111
 94 A    94 B    95 A    95 B    96 B    96 A    97 A    97 B                  
  2.121   2.123   2.148   2.153   2.192   2.209   2.264   2.266
 98 B    98 A    99 B    99 A   100 B   100 A   101 B   101 A                  
  2.285   2.317   2.321   2.343   2.348   2.363   2.405   2.405
102 A   102 B   103 A   104 A   103 B   104 B   105 B   105 A                  
  2.418   2.445   2.489   2.519   2.521   2.538   2.548   2.575
106 A   106 B   107 B   108 B   107 A   109 B   108 A   109 A                  
  2.587   2.602   2.604   2.620   2.624   2.633   2.674   2.710
110 B   111 B   110 A   111 A   112 B   112 A   113 A   113 B                  
  2.728   2.735   2.755   2.775   2.789   2.824   2.834   2.835
114 A   114 B   115 B   115 A   116 A   116 B   117 B   117 A                  
  2.857   2.860   2.884   2.890   2.946   2.978   3.001   3.002
118 B   118 A   119 B   119 A   120 A   121 A   120 B   122 A                  
  3.020   3.043   3.047   3.058   3.065   3.076   3.090   3.095
121 B   123 A   122 B   123 B   124 A   125 A   124 B   126 A                  
  3.118   3.119   3.136   3.140   3.150   3.166   3.176   3.215
127 A   125 B   126 B   127 B   128 A   128 B   129 A   130 A                  
  3.222   3.235   3.239   3.259   3.264   3.276   3.289   3.294
129 B   131 A   130 B   131 B   132 A   132 B   133 A   134 A                  
  3.311   3.316   3.331   3.340   3.342   3.344   3.357   3.359
133 B   135 A   134 B   136 A   135 B   137 A   136 B   138 A                  
  3.373   3.384   3.387   3.412   3.414   3.415   3.448   3.462
137 B   138 B   139 A   140 A   141 A   139 B   142 A   140 B                  
  3.488   3.514   3.534   3.562   3.562   3.573   3.599   3.611
141 B   143 A   142 B   144 A   143 B   145 A   144 B   146 A                  
  3.636   3.646   3.648   3.700   3.702   3.738   3.740   3.753
145 B   146 B   147 A   148 A   147 B   149 A   148 B   149 B                  
  3.759   3.816   3.821   3.826   3.833   3.845   3.880   3.886
150 A   151 A   150 B   151 B   152 A   152 B   153 A   153 B                  
  3.894   3.897   3.943   3.965   3.968   3.995   4.001   4.024
154 A   154 B   155 A   156 A   155 B   156 B   157 A   158 A                  
  4.026   4.050   4.062   4.068   4.116   4.116   4.118   4.135
157 B   158 B   159 A   160 A   159 B   160 B   161 A   161 B                  
  4.150   4.168   4.190   4.211   4.255   4.269   4.312   4.356
162 A   162 B   163 A   164 A   163 B   164 B   165 A   165 B                  
  4.375   4.383   4.392   4.447   4.468   4.469   4.488   4.513
166 A   166 B   167 A   167 B   168 A   168 B   169 A   170 A                  
  4.533   4.555   4.580   4.581   4.596   4.608   4.663   4.689
169 B   170 B   171 B   171 A   172 A   172 B   173 A   173 B                  
  4.726   4.733   4.793   4.822   4.845   4.852   4.876   4.894
174 B   174 A   175 A   175 B   176 B   176 A   177 B   177 A                  
  4.909   4.926   4.965   5.031   5.075   5.083   5.116   5.154
178 A   178 B   179 A   179 B   180 B   180 A   181 B   181 A                  
  5.225   5.234   5.259   5.264   5.339   5.383   5.427   5.473
182 A   182 B   183 A   183 B   184 A   184 B   185 A   186 A                  
  5.511   5.617   5.763   5.805   5.917   5.918   6.006   6.030
185 B   186 B   187 A   187 B   188 A   188 B   189 A   189 B                  
  6.112   6.116   6.385   6.398   6.566   6.601   9.275  10.717
190 B   190 A   191 A   191 B   192 A   192 B   193 A   193 B                  
 11.806  12.432  13.334  13.422  14.649  14.759
194 A   194 B   195 A   195 B   196 B   196 A                                  
 --------------------------------------------------------------
 
          Ground-State Mulliken Net Atomic Charges

     Atom                 Charge (a.u.)    Spin (a.u.)
  --------------------------------------------------------
      1 S                     0.266039      -0.026018
      2 C                    -0.111292      -0.037302
      3 C                    -0.165538       0.447348
      4 C                    -0.135726      -0.254149
      5 C                    -0.031066       0.370158
      6 H                     0.211968       0.020954
      7 C                    -0.031066       0.370158
      8 S                     0.266039      -0.026018
      9 C                    -0.135726      -0.254149
     10 C                    -0.111292      -0.037302
     11 C                    -0.165538       0.447348
     12 H                     0.224456      -0.034069
     13 H                     0.241158       0.013078
     14 H                     0.224456      -0.034069
     15 H                     0.241158       0.013078
     16 H                     0.211968       0.020954
  --------------------------------------------------------
  Sum of atomic charges =     1.000000
  Sum of spin   charges =     1.000000

 -----------------------------------------------------------------
                    Cartesian Multipole Moments
 -----------------------------------------------------------------
    Charge (ESU x 10^10)
                 4.8032
    Dipole Moment (Debye)
         X      -0.0000      Y       0.0000      Z       0.7498
       Tot       0.7498
    Quadrupole Moments (Debye-Ang)
[...]
 ******************************

                       Coordinates (Angstroms)
     ATOM                X               Y               Z
      1  S         1.8162919979   -1.1797299395   -0.3504232187
      2  C         3.0951615228   -0.2153412934    0.0771357090
      3  C         2.7322174114    1.0639040897    0.4631062942
      4  C         1.3804597363    1.2528822055    0.3786451915
      5  C         0.6914674356    0.1308803309   -0.0756740996
      6  H         0.8821220204    2.1664115328    0.6526130406
      7  C        -0.6914674356   -0.1308803309   -0.0756740996
      8  S        -1.8162919979    1.1797299395   -0.3504232187
      9  C        -1.3804597363   -1.2528822055    0.3786451915
     10  C        -3.0951615228    0.2153412934    0.0771357090
     11  C        -2.7322174114   -1.0639040897    0.4631062942
     12  H        -3.4411352107   -1.7960503439    0.7999835761
     13  H         4.0989580305   -0.5971793692    0.0251818775
     14  H         3.4411352107    1.7960503439    0.7999835761
     15  H        -4.0989580305    0.5971793692    0.0251818775
     16  H        -0.8821220204   -2.1664115328    0.6526130406

Z-matrix Print:
$molecule
1 2
S 
C  1 1.657818
H  2 1.075224 1 120.074569
C  2 1.384619 1 114.024993 3 -179.094186 0
H  4 1.073354 2 122.994789 1 -177.869487 0
C  4 1.367514 2 111.688662 1 1.164818 0
H  6 1.076074 4 124.011793 2 -178.520254 0
C  6 1.392840 4 113.440320 2 0.254238 0
C  8 1.407490 6 129.483114 4 -167.981045 0
C  9 1.392840 8 129.483114 6 130.000000 0
H  10 1.076074 9 122.536064 8 10.813992 0
C  10 1.367514 9 113.440320 8 -167.981045 0
H  12 1.073354 10 125.308777 9 179.261712 0
C  12 1.384619 10 111.688662 9 0.254238 0
H  14 1.075224 12 125.893452 10 -177.867568 0
S  14 1.657818 12 114.024993 10 1.164818 0
$end

 
 --------------------------------------------------------------
             Orbital Energies (a.u.) and Symmetries
 --------------------------------------------------------------
 
 Alpha MOs, Unrestricted
 -- Occupied --                  
-92.159 -92.159 -11.478 -11.476 -11.452 -11.452 -11.435 -11.435
  1 A     1 B     2 A     2 B     3 B     3 A     4 B     4 A                  
-11.404 -11.404  -9.162  -9.162  -6.843  -6.843  -6.842  -6.842
  5 B     5 A     6 A     6 B     7 B     7 A     8 A     8 B                  
 -6.840  -6.840  -1.395  -1.365  -1.231  -1.197  -1.179  -1.130
  9 B     9 A    10 A    10 B    11 A    11 B    12 A    12 B                  
 -0.999  -0.962  -0.926  -0.906  -0.890  -0.823  -0.755  -0.749
 13 A    13 B    14 A    14 B    15 A    15 B    16 A    16 B                  
 -0.748  -0.740  -0.734  -0.711  -0.694  -0.664  -0.643  -0.578
 17 A    18 A    17 B    18 B    19 A    19 B    20 A    21 A                  
 -0.539  -0.520  -0.481
 20 B    22 A    21 B                                                          
 -- Virtual --                   
 -0.120  -0.038   0.001   0.002   0.021   0.030   0.035   0.043
 23 A    22 B    23 B    24 A    25 A    24 B    26 A    25 B                  
  0.049   0.053   0.070   0.072   0.107   0.123   0.161   0.180
 26 B    27 A    27 B    28 A    28 B    29 A    29 B    30 A                  
  0.200   0.200   0.209   0.212   0.236   0.241   0.257   0.274
 31 A    30 B    32 A    31 B    33 A    32 B    33 B    34 A                  
  0.283   0.284   0.291   0.299   0.313   0.315   0.343   0.348
 34 B    35 A    35 B    36 A    36 B    37 A    38 A    37 B                  
  0.359   0.367   0.368   0.373   0.381   0.386   0.391   0.415
 38 B    39 B    39 A    40 A    40 B    41 A    41 B    42 A                  
  0.422   0.431   0.433   0.442   0.456   0.464   0.467   0.469
 42 B    43 A    43 B    44 A    44 B    45 B    45 A    46 B                  
  0.470   0.488   0.498   0.502   0.507   0.511   0.533   0.546
 46 A    47 A    48 A    47 B    48 B    49 A    49 B    50 A                  
  0.604   0.613   0.621   0.625   0.642   0.656   0.672   0.675
 51 A    50 B    51 B    52 A    52 B    53 A    53 B    54 B                  
  0.696   0.711   0.719   0.731   0.733   0.755   0.785   0.798
 54 A    55 B    55 A    56 A    56 B    57 A    58 A    59 A                  
  0.804   0.818   0.846   0.848   0.858   0.868   0.906   0.920
 57 B    58 B    59 B    60 A    60 B    61 A    62 A    63 A                  
  0.921   0.926   0.946   0.956   0.981   0.993   1.002   1.005
 61 B    62 B    63 B    64 A    64 B    65 A    65 B    66 A                  
  1.015   1.033   1.037   1.061   1.069   1.085   1.092   1.114
 66 B    67 A    67 B    68 A    68 B    69 B    69 A    70 A                  
  1.139   1.148   1.171   1.182   1.212   1.226   1.242   1.267
 70 B    71 A    72 A    71 B    73 A    72 B    73 B    74 A                  
  1.282   1.288   1.309   1.315   1.330   1.338   1.346   1.369
 75 A    74 B    76 A    75 B    76 B    77 B    77 A    78 B                  
  1.372   1.391   1.398   1.407   1.417   1.436   1.457   1.478
 78 A    79 A    79 B    80 B    80 A    81 A    81 B    82 A                  
  1.502   1.521   1.533   1.551   1.580   1.609   1.609   1.671
 82 B    83 B    83 A    84 B    84 A    85 B    85 A    86 B                  
  1.672   1.685   1.698   1.714   1.733   1.739   1.749   1.783
 86 A    87 A    87 B    88 A    88 B    89 B    89 A    90 A                  
  1.786   1.815   1.864   1.889   1.893   1.935   1.945   1.992
 90 B    91 B    91 A    92 A    92 B    93 A    93 B    94 A                  
  2.010   2.022   2.023   2.044   2.062   2.097   2.107   2.112
 94 B    95 A    95 B    96 B    96 A    97 A    97 B    98 A                  
  2.116   2.147   2.148   2.179   2.202   2.261   2.262   2.288
 98 B    99 A    99 B   100 B   100 A   101 A   101 B   102 A                  
  2.306   2.319   2.325   2.344   2.353   2.395   2.396   2.405
102 B   103 A   104 A   103 B   104 B   105 A   105 B   106 A                  
  2.436   2.477   2.521   2.522   2.529   2.532   2.570   2.573
106 B   107 B   108 B   107 A   108 A   109 B   109 A   110 B                  
  2.595   2.597   2.615   2.623   2.640   2.678   2.699   2.720
111 B   110 A   112 B   111 A   112 A   113 A   113 B   114 A                  
  2.729   2.751   2.765   2.792   2.815   2.831   2.841   2.846
114 B   115 B   115 A   116 A   116 B   117 B   117 A   118 B                  
  2.862   2.880   2.888   2.941   2.974   2.990   2.999   3.022
118 A   119 B   119 A   120 A   121 A   120 B   122 A   121 B                  
  3.031   3.037   3.043   3.064   3.071   3.086   3.092   3.100
123 A   122 B   123 B   124 A   125 A   126 A   124 B   125 B                  
  3.111   3.116   3.137   3.140   3.159   3.170   3.207   3.215
127 A   126 B   127 B   128 A   128 B   129 A   130 A   131 A                  
  3.227   3.248   3.259   3.260   3.278   3.281   3.293   3.305
129 B   130 B   131 B   132 A   132 B   133 A   134 A   133 B                  
  3.308   3.323   3.325   3.325   3.342   3.352   3.361   3.366
135 A   134 B   136 A   135 B   137 A   136 B   138 A   137 B                  
  3.380   3.382   3.400   3.406   3.409   3.447   3.456   3.477
138 B   139 A   140 A   141 A   139 B   142 A   140 B   141 B                  
  3.499   3.522   3.554   3.557   3.567   3.589   3.601   3.622
143 A   142 B   144 A   143 B   145 A   144 B   146 A   145 B                  
  3.637   3.644   3.688   3.699   3.734   3.743   3.753   3.766
146 B   147 A   148 A   147 B   149 A   148 B   149 B   150 A                  
  3.815   3.818   3.820   3.828   3.849   3.875   3.879   3.890
151 A   150 B   151 B   152 A   152 B   153 A   153 B   154 B                  
  3.893   3.933   3.960   3.960   3.989   3.998   4.017   4.027
154 A   155 A   155 B   156 A   156 B   157 A   158 A   157 B                  
  4.050   4.059   4.075   4.111   4.119   4.122   4.129   4.144
158 B   159 A   160 A   159 B   161 A   160 B   161 B   162 A                  
  4.165   4.190   4.215   4.253   4.263   4.317   4.349   4.371
162 B   163 A   164 A   163 B   164 B   165 A   165 B   166 A                  
  4.383   4.389   4.443   4.465   4.475   4.486   4.514   4.532
166 B   167 A   167 B   168 A   168 B   169 A   170 A   169 B                  
  4.558   4.569   4.583   4.592   4.602   4.668   4.687   4.727
170 B   171 A   171 B   172 A   172 B   173 A   173 B   174 B                  
  4.730   4.790   4.804   4.847   4.858   4.878   4.893   4.907
174 A   175 A   175 B   176 A   176 B   177 B   177 A   178 A                  
  4.928   4.970   5.028   5.070   5.081   5.109   5.156   5.225
178 B   179 A   179 B   180 B   180 A   181 B   181 A   182 A                  
  5.233   5.258   5.263   5.334   5.382   5.425   5.469   5.500
182 B   183 A   183 B   184 A   184 B   185 A   186 A   185 B                  
  5.622   5.752   5.794   5.920   5.920   6.005   6.023   6.109
186 B   187 A   187 B   188 B   188 A   189 A   189 B   190 A                  
  6.113   6.380   6.390   6.557   6.597   9.215  10.711  11.790
190 B   191 A   191 B   192 A   192 B   193 A   193 B   194 A                  
 12.518  13.345  13.459  14.631  14.751
194 B   195 A   195 B   196 B   196 A                                          
 
 Beta MOs, Unrestricted
 -- Occupied --                  
-92.161 -92.161 -11.477 -11.476 -11.440 -11.440 -11.428 -11.428
  1 A     1 B     2 A     2 B     3 B     3 A     4 A     4 B                  
-11.411 -11.411  -9.163  -9.163  -6.844  -6.844  -6.844  -6.844
  5 B     5 A     6 A     6 B     7 B     7 A     8 A     8 B                  
 -6.843  -6.843  -1.383  -1.350  -1.221  -1.188  -1.174  -1.106
  9 A     9 B    10 A    10 B    11 A    11 B    12 A    12 B                  
 -0.991  -0.952  -0.914  -0.901  -0.888  -0.819  -0.746  -0.745
 13 A    13 B    14 A    14 B    15 A    15 B    16 B    16 A                  
 -0.740  -0.730  -0.722  -0.684  -0.666  -0.660  -0.642  -0.537
 17 A    17 B    18 A    19 A    18 B    19 B    20 A    20 B                  
 -0.534  -0.509
 21 A    22 A                                                                  
 -- Virtual --                   
 -0.186  -0.056  -0.009   0.006   0.008   0.023   0.030   0.051
 21 B    23 A    22 B    23 B    24 A    25 A    24 B    25 B                  
  0.053   0.057   0.061   0.073   0.073   0.111   0.125   0.163
 26 A    27 A    26 B    28 A    27 B    28 B    29 A    29 B                  
  0.182   0.203   0.203   0.211   0.215   0.239   0.243   0.261
 30 A    31 A    30 B    32 A    31 B    33 A    32 B    33 B                  
  0.278   0.291   0.294   0.295   0.311   0.316   0.317   0.350
 34 A    34 B    35 A    35 B    36 A    37 A    36 B    38 A                  
  0.350   0.371   0.376   0.379   0.380   0.395   0.395   0.404
 37 B    38 B    39 A    40 A    39 B    40 B    41 A    41 B                  
  0.420   0.430   0.431   0.440   0.454   0.462   0.468   0.469
 42 A    42 B    43 A    43 B    44 A    44 B    45 A    45 B                  
  0.474   0.476   0.492   0.501   0.503   0.513   0.515   0.539
 46 A    46 B    47 A    48 A    47 B    48 B    49 A    49 B                  
  0.551   0.609   0.614   0.624   0.626   0.643   0.657   0.674
 50 A    51 A    50 B    51 B    52 A    52 B    53 A    53 B                  
  0.682   0.699   0.715   0.723   0.737   0.741   0.757   0.790
 54 B    54 A    55 B    55 A    56 B    56 A    57 A    58 A                  
  0.800   0.805   0.822   0.849   0.851   0.863   0.868   0.912
 59 A    57 B    58 B    59 B    60 A    60 B    61 A    62 A                  
  0.923   0.926   0.929   0.957   0.962   0.982   0.995   1.004
 61 B    63 A    62 B    63 B    64 A    64 B    65 A    65 B                  
  1.009   1.020   1.038   1.041   1.064   1.069   1.090   1.093
 66 A    66 B    67 A    67 B    68 A    68 B    69 B    69 A                  
  1.116   1.140   1.154   1.177   1.185   1.219   1.237   1.249
 70 A    70 B    71 A    72 A    71 B    73 A    72 B    73 B                  
  1.269   1.288   1.292   1.312   1.316   1.334   1.346   1.355
 74 A    75 A    74 B    76 A    75 B    76 B    77 B    77 A                  
  1.370   1.373   1.395   1.399   1.410   1.417   1.441   1.461
 78 B    78 A    79 A    79 B    80 B    80 A    81 A    81 B                  
  1.482   1.504   1.524   1.537   1.555   1.585   1.609   1.613
 82 A    82 B    83 B    83 A    84 B    84 A    85 A    85 B                  
  1.671   1.672   1.684   1.701   1.713   1.733   1.740   1.748
 86 A    86 B    87 A    87 B    88 A    88 B    89 B    89 A                  
  1.786   1.787   1.816   1.863   1.890   1.892   1.935   1.947
 90 B    90 A    91 B    91 A    92 A    92 B    93 A    93 B                  
  1.993   2.009   2.024   2.025   2.044   2.066   2.098   2.118
 94 A    94 B    95 B    95 A    96 B    96 A    97 A    97 B                  
  2.120   2.125   2.148   2.151   2.182   2.206   2.259   2.267
 98 B    98 A    99 A    99 B   100 B   100 A   101 B   101 A                  
  2.286   2.309   2.320   2.333   2.347   2.367   2.401   2.406
102 A   102 B   103 A   104 A   103 B   104 B   105 A   105 B                  
  2.418   2.442   2.481   2.524   2.524   2.530   2.538   2.575
106 A   106 B   107 B   107 A   108 B   108 A   109 B   109 A                  
  2.577   2.603   2.604   2.621   2.629   2.645   2.680   2.708
110 B   111 B   110 A   112 B   111 A   112 A   113 A   113 B                  
  2.729   2.735   2.757   2.770   2.797   2.822   2.836   2.850
114 A   114 B   115 B   115 A   116 A   116 B   117 B   117 A                  
  2.853   2.867   2.883   2.889   2.945   2.979   3.001   3.003
118 B   118 A   119 B   119 A   120 A   121 A   120 B   122 A                  
  3.027   3.037   3.041   3.045   3.069   3.075   3.092   3.098
121 B   123 A   122 B   123 B   124 A   125 A   126 A   124 B                  
  3.105   3.119   3.126   3.141   3.149   3.165   3.174   3.209
125 B   127 A   126 B   127 B   128 A   128 B   129 A   130 A                  
  3.218   3.231   3.250   3.265   3.266   3.280   3.287   3.296
131 A   129 B   130 B   132 A   131 B   132 B   133 A   134 A                  
  3.310   3.312   3.328   3.338   3.343   3.345   3.354   3.362
133 B   135 A   134 B   135 B   136 A   137 A   136 B   138 A                  
  3.374   3.384   3.385   3.406   3.410   3.414   3.450   3.460
137 B   138 B   139 A   140 A   141 A   139 B   142 A   140 B                  
  3.482   3.503   3.525   3.559   3.561   3.570   3.592   3.605
141 B   143 A   142 B   144 A   143 B   145 A   144 B   146 A                  
  3.626   3.642   3.647   3.693   3.701   3.740   3.748   3.754
145 B   146 B   147 A   148 A   147 B   149 A   148 B   149 B                  
  3.766   3.818   3.821   3.825   3.830   3.851   3.879   3.882
150 A   151 A   150 B   151 B   152 A   152 B   153 A   153 B                  
  3.892   3.896   3.934   3.963   3.963   3.991   4.001   4.018
154 B   154 A   155 A   156 A   155 B   156 B   157 A   158 A                  
  4.029   4.050   4.060   4.076   4.112   4.121   4.123   4.130
157 B   158 B   159 A   160 A   159 B   161 A   160 B   161 B                  
  4.145   4.168   4.192   4.216   4.253   4.264   4.317   4.350
162 A   162 B   163 A   164 A   163 B   164 B   165 A   165 B                  
  4.372   4.385   4.391   4.447   4.468   4.476   4.488   4.515
166 A   166 B   167 A   167 B   168 A   168 B   169 A   170 A                  
  4.534   4.560   4.573   4.584   4.593   4.603   4.668   4.689
169 B   170 B   171 A   171 B   172 A   172 B   173 A   173 B                  
  4.729   4.731   4.793   4.808   4.850   4.859   4.880   4.895
174 B   174 A   175 A   175 B   176 A   176 B   177 B   177 A                  
  4.909   4.930   4.972   5.029   5.071   5.088   5.115   5.157
178 A   178 B   179 A   179 B   180 B   180 A   181 B   181 A                  
  5.227   5.235   5.259   5.264   5.335   5.383   5.427   5.471
182 A   182 B   183 A   183 B   184 A   184 B   185 A   186 A                  
  5.501   5.623   5.753   5.795   5.921   5.921   6.006   6.024
185 B   186 B   187 A   187 B   188 B   188 A   189 A   189 B                  
  6.109   6.113   6.381   6.391   6.558   6.597   9.217  10.715
190 A   190 B   191 A   191 B   192 A   192 B   193 A   193 B                  
 11.795  12.523  13.349  13.460  14.632  14.753
194 A   194 B   195 A   195 B   196 B   196 A                                  
 --------------------------------------------------------------
 
          Ground-State Mulliken Net Atomic Charges

     Atom                 Charge (a.u.)    Spin (a.u.)
  --------------------------------------------------------
      1 S                     0.256256      -0.026784
      2 C                    -0.108149      -0.019904
      3 C                    -0.169443       0.419447
      4 C                    -0.128506      -0.226000
      5 C                    -0.025392       0.354408
      6 H                     0.209438       0.019656
      7 C                    -0.025392       0.354408
      8 S                     0.256256      -0.026784
      9 C                    -0.128506      -0.226000
     10 C                    -0.108149      -0.019904
     11 C                    -0.169443       0.419447
     12 H                     0.224657      -0.032620
     13 H                     0.241140       0.011797
     14 H                     0.224657      -0.032620
     15 H                     0.241140       0.011797
     16 H                     0.209438       0.019656
  --------------------------------------------------------
  Sum of atomic charges =     1.000000
  Sum of spin   charges =     1.000000

 -----------------------------------------------------------------
                    Cartesian Multipole Moments
 -----------------------------------------------------------------
    Charge (ESU x 10^10)
                 4.8032
    Dipole Moment (Debye)
         X      -0.0000      Y      -0.0000      Z       0.9946
       Tot       0.9946
    Quadrupole Moments (Debye-Ang)
        XX     -22.4365     XY       0.5448     YY     -57.6441
        XZ      -0.0000     YZ      -0.0000     ZZ     -71.6160
    Octopole Moments (Debye-Ang^2)
       XXX      -0.0000    XXY       0.0000    XYY      -0.0000
       YYY      -0.0000    XXZ       9.2382    XYZ      11.3861
       YYZ       5.5606    XZZ      -0.0000    YZZ       0.0000
       ZZZ      -7.4245
    Hexadecapole Moments (Debye-Ang^3)
      XXXX   -1269.6223   XXXY      -1.8916   XXYY    -341.1921
      XYYY      33.8391   YYYY    -466.4924   XXXZ      -0.0000
      XXYZ      -0.0000   XYYZ      -0.0000   YYYZ      -0.0000
      XXZZ    -358.1122   XYZZ       6.5850   YYZZ    -104.2301
      XZZZ       0.0000   YZZZ      -0.0000   ZZZZ    -136.1986
 -----------------------------------------------------------------
Archival summary:
1\1\nid01585\OPT\MP2\BasisUnspecified\286(1+,2)\TueMar711:56:002017TueMar711:56:002017\0\\#,OPT,MP2,BasisUnspecified,\\1,2\S\C,1,1.65782\H,2,1.07522,1,120.075\C,2,1.38462,1,114.025,3,-179.094,0\H,4,1.07335,2,122.995,1,-177.869,0\C,4,1.36751,2,111.689,1,1.16482,0\H,6,1.07607,4,124.012,2,-178.52,0\C,6,1.39284,4,113.44,2,0.254238,0\C,8,1.40749,6,129.483,4,-167.981,0\C,9,1.39284,8,129.483,6,130,0\H,10,1.07607,9,122.536,8,10.814,0\C,10,1.36751,9,113.44,8,-167.981,0\H,12,1.07335,10,125.309,9,179.262,0\C,12,1.38462,10,111.689,9,0.254238,0\H,14,1.07522,12,125.893,10,-177.868,0\S,14,1.65782,12,114.025,10,1.16482,0\\HF=-1101.35613\MP2=-1103.10242\\@

 Total job time:  24574.66s(wall), 121367.92s(cpu) 
 Tue Mar  7 11:56:00 2017

        *************************************************************
        *                                                           *
        *  Thank you very much for using Q-Chem.  Have a nice day.  *
        *                                                           *
        *************************************************************


0 sent ACK to 0 
now end server 0 ... 
