srun -N 1 --ntasks-per-node 1 --cpus-per-task 64 --cpu_bind=cores --nodelist nid01565 /global/project/projectdirs/jcesr/qchem/qc44/cnl_qc441/dist/exe/qcprog.cori.haswell.exe .pt_mp2_hole_50.0.in.59533.qcin.1 /dev/shm/eg_qchem/qchem59533/
Process 0 of 1 is on nid01565 - thread support 0
initial socket setup ...start
initial socket setup ...done 
now start server 0 ... 
nid01565 10.128.6
Q-Chem Developer Version! Running on 10.128.6.*
                  Welcome to Q-Chem
     A Quantum Leap Into The Future Of Chemistry


 Q-Chem 4.4, Q-Chem, Inc., Pleasanton, CA (2016)

 Y. Shao,  Z. Gan,  E. Epifanovsky,  A. T. B. Gilbert,  M. Wormit,  
 J. Kussmann,  A. W. Lange,  A. Behn,  J. Deng,  X. Feng,  D. Ghosh,  
 M. Goldey,  P. R. Horn,  L. D. Jacobson,  I. Kaliman,  F.Rob,  
 R. Z. Khaliullin,  T. Kus,  A. Landau,  J. Liu,  E. I. Proynov,  Y. M. Rhee,  
 R. M. Richard,  M. A. Rohrdanz,  R. P. Steele,  E. J. Sundstrom,  
 H. L. Woodcock III,  P. M. Zimmerman,  D. Zuev,  B. Albrecht,  E. Alguire,  
 B. Austin,  S. A. Baeppler,  G. J. O. Beran,  Y. A. Bernard,  E. Berquist,  
 K. Brandhorst,  K. B. Bravaya,  S. T. Brown,  D. Casanova,  C.-M. Chang,  
 Y. Chen,  S. H. Chien,  K. D. Closser,  M. P. Coons,  D. L. Crittenden,  
 S. Dasgupta,  M. Diedenhofen,  R. A. DiStasio Jr.,  H. Do,  A. D. Dutoi,  
 R. G. Edgar,  P.-T. Fang,  S. Fatehi,  Q. Feng,  L. Fusti-Molnar,  
 A. Ghysels,  A. Golubeva-Zadorozhnaya,  J. Gomes,  A. Gunina,  
 M. W. D. Hanson-Heine,  P. H. P. Harbach,  A. W. Hauser,  E. G. Hohenstein,  
 Z. C. Holden,  K. Hui,  T.-C. Jagau,  H. Ji,  B. Kaduk,  K. Khistyaev,  
 Jaehoon Kim,  Jihan Kim,  R. A. King,  P. Klunzinger,  D. Kosenkov,  
 T. Kowalczyk,  C. M. Krauter,  A. Kunitsa,  K. U. Lao,  A. Laurent,  
 K. V. Lawler,  D. Lefrancois,  S. Lehtola,  S. V. Levchenko,  C. Y. Lin,  
 Y.-S. Lin,  F. Liu,  E. Livshits,  R. C. Lochan,  A. Luenser,  P. Manohar,  
 S. F. Manzer,  S.-P. Mao,  Y. Mao,  N. Mardirossian,  A. V. Marenich,  
 L. A. Martinez-Martinez,  S. A. Maurer,  N. J. Mayhall,  J.-M. Mewes,  
 A. F. Morrison,  K. Nanda,  C. M. Oana,  R. Olivares-Amaya,  D. P. O'Neill,  
 J. A. Parkhill,  T. M. Perrine,  R. Peverati,  P. A. Pieniazek,  F. Plasser,  
 A. Prociuk,  D. R. Rehn,  E. Rosta,  N. J. Russ,  N. Sergueev,  
 S. M. Sharada,  S. Sharma,  D. W. Small,  A. Sodt,  T. Stauch,  T. Stein,  
 D. Stuck,  Y.-C. Su,  A. J. W. Thom,  T. Tsuchimochi,  L. Vogt,  O. Vydrov,  
 T. Wang,  M. A. Watson,  J. Wenzel,  A. White,  C. F. Williams,  
 V. Vanovschi,  S. Yeganeh,  S. R. Yost,  Z.-Q. You,  I. Y. Zhang,  X. Zhang,  
 Y. Zhao,  B. R. Brooks,  G. K. L. Chan,  D. M. Chipman,  C. J. Cramer,  
 W. A. Goddard III,  M. S. Gordon,  W. J. Hehre,  A. Klamt,  
 H. F. Schaefer III,  M. W. Schmidt,  C. D. Sherrill,  D. G. Truhlar,  
 A. Warshel,  X. Xu,  A. Aspuru-Guzik,  R. Baer,  A. T. Bell,  N. A. Besley,  
 J.-D. Chai,  A. Dreuw,  B. D. Dunietz,  T. R. Furlani,  S. R. Gwaltney,  
 C.-P. Hsu,  Y. Jung,  J. Kong,  D. S. Lambrecht,  W. Liang,  C. Ochsenfeld,  
 V. A. Rassolov,  L. V. Slipchenko,  J. E. Subotnik,  T. Van Voorhis,  
 J. M. Herbert,  A. I. Krylov,  P. M. W. Gill,  M. Head-Gordon

 Contributors to earlier versions of Q-Chem not listed above: 
 R. D. Adamson,  J. Baker,  E. F. C. Byrd,  A. K. Chakraborty,  C.-L. Cheng,  
 H. Dachsel,  R. J. Doerksen,  G. Hawkins,  A. Heyden,  S. Hirata,  
 G. Kedziora,  F. J. Keil,  C. Kelley,  P. P. Korambath,  W. Kurlancheek,  
 A. M. Lee,  M. S. Lee,  D. Liotard,  I. Lotan,  P. E. Maslen,  N. Nair,  
 D. Neuhauser,  R. Olson,  B. Peters,  J. Ritchie,  N. E. Schultz,  
 N. Shenvi,  A. C. Simmonett,  K. S. Thanthiriwatte,  Q. Wu,  W. Zhang

 Please cite Q-Chem as follows:
 Y. Shao et al., Mol. Phys. 113, 184-215 (2015)
 DOI: 10.1080/00268976.2014.952696

 Q-Chem 4.4.1 for Intel X86 EM64T Linux

 Parts of Q-Chem use Armadillo 5.200.1 (Boston Tea Smuggler).
 http://arma.sourceforge.net/

 Q-Chem begins on Tue Mar  7 05:06:19 2017  

Host: nid01545
0

     Scratch files written to /dev/shm/eg_qchem/qchem59533//
 Parallel job on  1  processors

Checking the input file for inconsistencies... 	...done.

--------------------------------------------------------------
User input:
--------------------------------------------------------------
$molecule
 1  2
 S           1.81042700       -1.22909900       -0.13996800
 C           3.10211600       -0.18861200       -0.13982200
 C           2.74845300        1.15163900       -0.14006900
 C           1.39169900        1.31613900       -0.14029100
 C           0.68906700        0.11310500       -0.14015500
 H           0.90454800        2.27578700       -0.14040700
 C          -0.68906700       -0.11310500       -0.14015500
 S          -1.40968969       -1.21230372        1.01371890
 C          -1.67728703        0.42374241       -0.96246795
 C          -2.91887050       -0.92777039        0.38723045
 C          -2.93235577       -0.03125236       -0.66985228
 H          -3.83220142        0.25468784       -1.18045320
 H           4.10439600       -0.57731800       -0.13934700
 H           3.47107900        1.94537000       -0.13983300
 H          -3.77584558       -1.42430217        0.80521091
 H          -1.46309516        1.12703704       -1.74843162
$end


$rem
         jobtype = opt
        exchange = hf
           basis = cc-pvtz
  max_scf_cycles = 100
      mem_static = 6200
       mem_total = 62000
          method = mp2
$end


$opt
CONSTRAINT
tors 4 5 7 9 50.0
ENDCONSTRAINT
$end

--------------------------------------------------------------
 Atom  10: ( -3.0424052810,  0.1134662149,  0.2991414336)
         ->( -3.0424052761,  0.1134662169,  0.2991414322)
 Atom  16: ( -1.2073108817, -0.9592582424, -2.2275676270)
         ->( -1.2073108776, -0.9592582526, -2.2275676229)
 Atom  15: ( -3.9803517427,  0.2893869099,  0.7940819403)
         ->( -3.9803517468,  0.2893869160,  0.7940819380)
 ----------------------------------------------------------------
             Standard Nuclear Orientation (Angstroms)
    I     Atom           X                Y                Z
 ----------------------------------------------------------------
    1      S       1.6218710856    -0.5428083862     1.0399663822
    2      C       3.0424052761    -0.1134662169     0.2991414322
    3      C       2.8767033887     0.4609232702    -0.9514463988
    4      C       1.5573333171     0.5454066428    -1.2978087665
    5      C       0.6970983539     0.0407425635    -0.3250330851
    6      H       1.2073108776     0.9592582526    -2.2275676229
    7      C      -0.6970983540    -0.0407425631    -0.3250330854
    8      S      -1.6218710843     0.5428083865     1.0399663838
    9      C      -1.5573333171    -0.5454066414    -1.2978087704
   10      C      -3.0424052761     0.1134662169     0.2991414322
   11      C      -2.8767033871    -0.4609232718    -0.9514463997
   12      H      -3.7004732503    -0.7913899726    -1.5550955225
   13      H       3.9803517468    -0.2893869160     0.7940819380
   14      H       3.7004732497     0.7913899759    -1.5550955225
   15      H      -3.9803517468     0.2893869160     0.7940819380
   16      H      -1.2073108776    -0.9592582526    -2.2275676229
 ----------------------------------------------------------------
 Molecular Point Group                 C2    NOp =  2
 Largest Abelian Subgroup              C2    NOp =  2
 Nuclear Repulsion Energy =   641.7107143030 hartrees
 There are       43 alpha and       42 beta electrons
 Requested basis set is cc-pVTZ
 There are 140 shells and 392 basis functions

 Total QAlloc Memory Limit  62000 MB
 Mega-Array Size      6061 MB
 MEM_STATIC part      6200 MB
 A cutoff of  1.0D-11 yielded   8074 shell pairs
 There are     62814 function pairs (     81884 Cartesian)
 
 -------------------------------------------------------
 OpenMP Integral Computing Module                       
 Release: version 1.0, May 2013, Q-Chem Inc. Pittsburgh 
 -------------------------------------------------------
 Integral Job Info:
 Integral job number is                      11
 Integral operator is                         1
 short-range coefficients                     0
 long-range coefficients              100000000
 Omega coefficients                           0
 if combine SR and LR in K                    0
 Integral screening is                        0
 Integral computing path is                   2
 max size of driver memory is            800000
 size of driver memory is                776718
 size of scratch memory is             26248924
 max col of scratch BK array              10000
 max len of scratch array in speh3          662
 max len of scratch index in speh4           32
 max int batch size is                      520
 min int batch size is                       52
 fixed nKL is                                52
 max L of basis functions is                  3
 order of int derivative is                   0
 number of shells is                        140
 number of basis is                         448
 number of cartesian basis is               448
 number of contracted shell pairs          8074
 number of primitive shell pairs          28660
 maxK2 (contraction) of shell pair          121
 max number of K2 of shell pair               1
 max number of CS2 of shell pair           1060
 max number of PS2 of shell pair           3122
 mem total for path MDJ                  225820
 -------------------------------------------------------
 Smallest overlap matrix eigenvalue = 7.24E-05

 Scale SEOQF with 1.000000e-01/1.000000e+00/1.000000e-01

 Standard Electronic Orientation quadrupole field applied
 Nucleus-field energy     =     0.0000000185 hartrees
 Guess from superposition of atomic densities
 Warning:  Energy on first SCF cycle will be non-variational
 An unrestricted Hartree-Fock SCF calculation will be
 performed using Pulay DIIS extrapolation
 SCF converges when DIIS error is below 1.0E-08
 using 16 threads for integral computing 
 ---------------------------------------
  Cycle       Energy         DIIS Error
 ---------------------------------------
    1   -1106.2859554558      3.04E-02
    2   -1090.9205217298      1.93E-02
    3   -1100.8298608636      4.62E-03
    4   -1101.2090569431      2.43E-03
    5   -1101.3270191398      6.73E-04
    6   -1101.3388153732      2.12E-04
    7   -1101.3416151947      5.13E-05
    8   -1101.3429718038      3.62E-05
    9   -1101.3439984179      2.78E-05
   10   -1101.3454818877      2.41E-05
   11   -1101.3466666510      2.02E-05
   12   -1101.3473193860      1.70E-05
   13   -1101.3480494075      9.40E-06
   14   -1101.3481445448      3.05E-06
   15   -1101.3481526868      1.66E-06
   16   -1101.3481550824      1.04E-06
   17   -1101.3481558421      3.81E-07
   18   -1101.3481561027      1.81E-07
   19   -1101.3481561434      8.55E-08
   20   -1101.3481561543      4.85E-08
   21   -1101.3481561587      2.03E-08
   22   -1101.3481561594      6.17E-09 Convergence criterion met
 ---------------------------------------
 <S^2> = 1.0249
 SCF time:  CPU 1008.95 s  wall 63.13 s
 SCF   energy in the final basis set = -1101.3481561594
 Total energy in the final basis set = -1101.3481561594
 
 Components of the MP2 correlation energy:
        aaaa  correlation energy =        -0.2341576256 au
        abab  correlation energy =        -1.3027332949 au
        bbbb  correlation energy =        -0.2120017673 au
        non-Brillouin singles    =        -0.0000000000 au

 Total  MP2   correlation energy =        -1.7488926878 au
        MP2         total energy =     -1103.0970488473 au

  Entering Z-vector solver.
   1         0           1      0.000543    0.000543
   2         0           1      0.000491    0.000491
   3         0           1      0.000339    0.000339
   4         0           1      0.000267    0.000267
   5         0           1      0.000119    0.000119
   6         0           1      0.000062    0.000062
   7         0           1      0.000035    0.000035
   8         0           1      0.000021    0.000021
   9         0           1      0.000010    0.000010
  10         0           1      0.000004    0.000004
  11         0           1      0.000002    0.000002
  12         1           0      0.000000    0.000000    Roots Converged
 Warning:  Cannot save MP2 spin density
 
 --------------------------------------------------------------
             Orbital Energies (a.u.) and Symmetries
 --------------------------------------------------------------
 Warning : Irrep of orbital(   1) could not be determined
 Warning : Irrep of orbital(   2) could not be determined
 
 Alpha MOs, Unrestricted
 -- Occupied --                  
-92.161 -92.161 -11.475 -11.473 -11.451 -11.451 -11.432 -11.432
  0 xxx   0 xxx   1 A     1 B     2 B     2 A     3 B     3 A                  
-11.403 -11.403  -9.163  -9.163  -6.844  -6.844  -6.843  -6.843
  4 A     4 B     5 B     5 A     6 B     6 A     7 A     7 B                  
 -6.841  -6.841  -1.394  -1.364  -1.232  -1.190  -1.184  -1.128
  8 B     8 A     9 A     9 B    10 A    11 A    10 B    11 B                  
 -1.000  -0.956  -0.932  -0.905  -0.889  -0.822  -0.753  -0.751
 12 A    13 A    12 B    13 B    14 A    14 B    15 A    15 B                  
 -0.748  -0.737  -0.731  -0.706  -0.696  -0.663  -0.650  -0.564
 16 A    16 B    17 A    18 A    17 B    19 A    18 B    19 B                  
 -0.539  -0.517  -0.487
 20 A    20 B    21 A                                                          
 -- Virtual --                   
 -0.111  -0.051  -0.002   0.015   0.015   0.023   0.031   0.041
 21 B    22 A    23 A    24 A    22 B    23 B    25 A    24 B                  
  0.045   0.060   0.072   0.086   0.095   0.114   0.154   0.187
 26 A    25 B    27 A    28 A    26 B    27 B    29 A    28 B                  
  0.196   0.198   0.204   0.226   0.227   0.235   0.260   0.267
 29 B    30 A    31 A    32 A    30 B    31 B    32 B    33 A                  
  0.282   0.288   0.292   0.303   0.319   0.321   0.329   0.345
 34 A    33 B    35 A    34 B    35 B    36 A    36 B    37 A                  
  0.353   0.364   0.365   0.372   0.387   0.391   0.400   0.406
 38 A    39 A    37 B    38 B    40 A    39 B    41 A    40 B                  
  0.429   0.430   0.434   0.440   0.447   0.456   0.459   0.464
 42 A    41 B    43 A    42 B    44 A    43 B    45 A    44 B                  
  0.467   0.479   0.508   0.513   0.517   0.523   0.552   0.569
 46 A    45 B    46 B    47 A    48 A    47 B    49 A    48 B                  
  0.577   0.580   0.620   0.624   0.630   0.643   0.681   0.688
 49 B    50 A    51 A    50 B    51 B    52 A    53 A    52 B                  
  0.695   0.712   0.715   0.734   0.735   0.761   0.778   0.795
 54 A    53 B    54 B    55 B    55 A    56 A    56 B    57 B                  
  0.797   0.832   0.838   0.857   0.872   0.872   0.891   0.906
 57 A    58 B    58 A    59 A    59 B    60 A    60 B    61 A                  
  0.917   0.932   0.951   0.953   0.989   1.000   1.001   1.015
 61 B    62 A    63 A    62 B    63 B    64 B    64 A    65 A                  
  1.026   1.031   1.057   1.058   1.062   1.078   1.115   1.116
 66 A    65 B    66 B    67 A    67 B    68 A    68 B    69 B                  
  1.135   1.145   1.154   1.206   1.226   1.246   1.247   1.255
 69 A    70 A    70 B    71 A    71 B    72 A    72 B    73 A                  
  1.267   1.293   1.306   1.328   1.339   1.352   1.360   1.366
 73 B    74 B    74 A    75 B    75 A    76 B    76 A    77 A                  
  1.374   1.383   1.406   1.408   1.418   1.435   1.464   1.491
 78 A    77 B    78 B    79 A    79 B    80 A    80 B    81 A                  
  1.504   1.509   1.527   1.548   1.568   1.586   1.603   1.655
 82 A    81 B    82 B    83 A    83 B    84 B    84 A    85 B                  
  1.683   1.698   1.701   1.723   1.729   1.763   1.766   1.776
 85 A    86 A    86 B    87 B    87 A    88 A    88 B    89 A                  
  1.784   1.806   1.875   1.905   1.918   1.933   1.935   2.001
 89 B    90 A    90 B    91 B    91 A    92 B    92 A    93 B                  
  2.005   2.016   2.031   2.036   2.054   2.071   2.077   2.105
 93 A    94 B    94 A    95 A    95 B    96 A    96 B    97 A                  
  2.110   2.139   2.144   2.210   2.266   2.267   2.277   2.292
 97 B    98 A    98 B    99 A   100 A    99 B   100 B   101 A                  
  2.318   2.322   2.328   2.353   2.372   2.372   2.381   2.427
101 B   102 A   102 B   103 A   103 B   104 A   104 B   105 A                  
  2.431   2.456   2.484   2.503   2.539   2.559   2.568   2.573
105 B   106 B   106 A   107 A   107 B   108 A   108 B   109 A                  
  2.594   2.604   2.612   2.633   2.633   2.689   2.714   2.716
109 B   110 A   110 B   111 A   111 B   112 A   112 B   113 A                  
  2.746   2.753   2.789   2.798   2.802   2.829   2.831   2.838
113 B   114 A   115 A   114 B   115 B   116 B   116 A   117 A                  
  2.847   2.853   2.899   2.960   2.963   3.002   3.009   3.027
118 A   117 B   118 B   119 A   119 B   120 A   120 B   121 B                  
  3.033   3.040   3.051   3.053   3.082   3.084   3.101   3.109
121 A   122 B   123 B   122 A   124 B   123 A   124 A   125 B                  
  3.110   3.135   3.146   3.152   3.182   3.189   3.205   3.208
125 A   126 A   126 B   127 A   127 B   128 A   129 A   128 B                  
  3.231   3.231   3.239   3.254   3.271   3.286   3.287   3.295
129 B   130 A   131 A   130 B   132 A   133 A   134 A   131 B                  
  3.309   3.322   3.328   3.339   3.342   3.351   3.357   3.368
132 B   133 B   135 A   136 A   134 B   135 B   137 A   136 B                  
  3.383   3.402   3.420   3.429   3.436   3.457   3.473   3.485
137 B   138 A   138 B   139 A   139 B   140 A   141 A   140 B                  
  3.495   3.527   3.537   3.566   3.570   3.578   3.604   3.617
141 B   142 A   142 B   143 A   144 A   143 B   145 A   144 B                  
  3.627   3.665   3.701   3.713   3.746   3.761   3.766   3.771
146 A   145 B   146 B   147 A   147 B   148 A   148 B   149 B                  
  3.775   3.814   3.833   3.834   3.865   3.866   3.874   3.887
149 A   150 A   150 B   151 A   152 A   151 B   152 B   153 A                  
  3.915   3.960   3.964   3.965   4.005   4.010   4.025   4.027
153 B   154 A   155 A   154 B   155 B   156 A   157 A   156 B                  
  4.039   4.048   4.056   4.085   4.097   4.118   4.125   4.174
157 B   158 A   158 B   159 A   159 B   160 B   160 A   161 A                  
  4.175   4.213   4.246   4.280   4.317   4.326   4.345   4.353
161 B   162 A   162 B   163 A   164 A   163 B   165 A   166 A                  
  4.355   4.383   4.432   4.447   4.479   4.498   4.507   4.519
164 B   165 B   167 A   166 B   168 A   167 B   169 A   168 B                  
  4.542   4.569   4.579   4.615   4.630   4.652   4.686   4.702
170 A   169 B   170 B   171 B   171 A   172 A   172 B   173 A                  
  4.756   4.766   4.840   4.857   4.873   4.883   4.905   4.917
174 A   173 B   174 B   175 A   175 B   176 A   177 A   176 B                  
  4.920   4.968   5.034   5.055   5.083   5.121   5.162   5.227
178 A   177 B   178 B   179 A   179 B   180 A   180 B   181 A                  
  5.242   5.247   5.253   5.303   5.412   5.418   5.479   5.520
182 A   181 B   182 B   183 A   183 B   184 A   184 B   185 A                  
  5.676   5.712   5.870   5.885   5.952   5.953   6.033   6.048
186 A   185 B   186 B   187 A   188 A   187 B   188 B   189 A                  
  6.149   6.377   6.396   6.543   6.645   9.346  10.857  11.772
189 B   190 A   190 B   191 A   191 B   192 A   192 B   193 A                  
 12.620  13.115  13.539  14.602  14.876
193 B   194 A   194 B   195 A   195 B                                          
 Warning : Irrep of orbital(   1) could not be determined
 Warning : Irrep of orbital(   2) could not be determined
 
 Beta MOs, Unrestricted
 -- Occupied --                  
-92.162 -92.162 -11.474 -11.473 -11.439 -11.439 -11.425 -11.425
  0 xxx   0 xxx   1 A     1 B     2 B     2 A     3 B     3 A                  
-11.410 -11.410  -9.164  -9.164  -6.845  -6.845  -6.844  -6.844
  4 B     4 A     5 B     5 A     6 B     6 A     7 B     7 A                  
 -6.844  -6.844  -1.382  -1.349  -1.220  -1.185  -1.176  -1.104
  8 A     8 B     9 A     9 B    10 A    11 A    10 B    11 B                  
 -0.992  -0.947  -0.920  -0.900  -0.886  -0.817  -0.751  -0.740
 12 A    13 A    12 B    13 B    14 A    14 B    15 A    16 A                  
 -0.736  -0.725  -0.723  -0.680  -0.666  -0.660  -0.648  -0.536
 15 B    17 A    16 B    17 B    18 A    19 A    18 B    20 A                  
 -0.534  -0.495
 19 B    20 B                                                                  
 -- Virtual --                   
 -0.195  -0.052  -0.022   0.008   0.018   0.021   0.032   0.043
 21 A    21 B    22 A    23 A    24 A    22 B    23 B    25 A                  
  0.048   0.054   0.064   0.073   0.092   0.100   0.116   0.156
 24 B    26 A    25 B    27 A    28 A    26 B    27 B    29 A                  
  0.192   0.198   0.202   0.208   0.227   0.229   0.236   0.268
 28 B    29 B    30 A    31 A    32 A    30 B    31 B    32 B                  
  0.271   0.288   0.296   0.297   0.312   0.318   0.321   0.325
 33 A    34 A    35 A    33 B    34 B    35 B    36 A    36 B                  
  0.352   0.359   0.378   0.384   0.387   0.399   0.400   0.410
 37 A    38 A    37 B    38 B    39 A    39 B    40 A    41 A                  
  0.416   0.433   0.434   0.440   0.442   0.454   0.462   0.462
 40 B    41 B    42 A    43 A    42 B    44 A    45 A    43 B                  
  0.470   0.472   0.484   0.515   0.515   0.522   0.527   0.557
 44 B    46 A    45 B    47 A    46 B    48 A    47 B    49 A                  
  0.573   0.580   0.581   0.622   0.626   0.632   0.644   0.687
 48 B    49 B    50 A    51 A    50 B    51 B    52 A    53 A                  
  0.690   0.699   0.716   0.723   0.737   0.738   0.766   0.782
 52 B    54 A    53 B    54 B    55 B    55 A    56 A    56 B                  
  0.797   0.801   0.836   0.841   0.861   0.875   0.875   0.895
 57 B    57 A    58 B    58 A    59 A    60 A    59 B    60 B                  
  0.908   0.919   0.940   0.958   0.961   0.990   1.002   1.003
 61 A    61 B    62 A    63 A    62 B    63 B    64 A    64 B                  
  1.019   1.030   1.035   1.060   1.060   1.063   1.083   1.117
 65 A    66 A    65 B    66 B    67 A    67 B    68 A    68 B                  
  1.122   1.136   1.151   1.160   1.211   1.235   1.250   1.254
 69 B    69 A    70 A    70 B    71 A    71 B    72 B    72 A                  
  1.264   1.272   1.296   1.309   1.333   1.341   1.359   1.359
 73 A    73 B    74 B    74 A    75 B    75 A    76 A    76 B                  
  1.371   1.378   1.383   1.409   1.410   1.420   1.438   1.471
 77 A    78 A    77 B    79 A    78 B    79 B    80 A    80 B                  
  1.494   1.508   1.512   1.528   1.551   1.571   1.590   1.604
 81 A    82 A    81 B    82 B    83 A    83 B    84 B    84 A                  
  1.654   1.685   1.700   1.701   1.725   1.728   1.764   1.767
 85 B    85 A    86 A    86 B    87 B    87 A    88 A    88 B                  
  1.781   1.784   1.806   1.874   1.906   1.918   1.934   1.936
 89 A    89 B    90 A    90 B    91 B    91 A    92 B    92 A                  
  2.001   2.004   2.017   2.031   2.038   2.054   2.072   2.079
 93 B    93 A    94 B    94 A    95 A    95 B    96 A    96 B                  
  2.120   2.123   2.142   2.147   2.214   2.262   2.263   2.291
 97 A    97 B    98 A    98 B    99 A    99 B   100 A   100 B                  
  2.296   2.319   2.325   2.332   2.356   2.374   2.391   2.393
101 A   101 B   102 A   102 B   103 A   103 B   104 A   104 B                  
  2.433   2.438   2.459   2.489   2.505   2.541   2.559   2.573
105 A   105 B   106 B   106 A   107 A   107 B   108 A   108 B                  
  2.582   2.602   2.610   2.618   2.636   2.638   2.696   2.721
109 A   109 B   110 A   110 B   111 B   111 A   112 A   112 B                  
  2.722   2.752   2.758   2.797   2.803   2.807   2.834   2.834
113 A   113 B   114 A   115 A   114 B   115 B   116 A   116 B                  
  2.841   2.855   2.859   2.902   2.964   2.973   3.002   3.018
117 A   118 A   117 B   118 B   119 A   119 B   120 A   120 B                  
  3.029   3.040   3.041   3.055   3.059   3.089   3.091   3.105
121 B   121 A   122 B   123 B   122 A   123 A   124 B   124 A                  
  3.115   3.119   3.142   3.152   3.160   3.187   3.193   3.207
125 B   125 A   126 A   126 B   127 A   127 B   128 A   129 A                  
  3.210   3.234   3.237   3.243   3.256   3.272   3.288   3.295
128 B   129 B   130 A   131 A   130 B   132 A   133 A   134 A                  
  3.302   3.311   3.336   3.342   3.347   3.348   3.354   3.361
131 B   132 B   133 B   135 A   136 A   134 B   135 B   137 A                  
  3.376   3.384   3.406   3.427   3.433   3.439   3.460   3.477
136 B   137 B   138 A   138 B   139 A   139 B   140 A   141 A                  
  3.489   3.497   3.532   3.541   3.570   3.572   3.582   3.609
140 B   141 B   142 A   142 B   143 A   144 A   143 B   145 A                  
  3.622   3.631   3.667   3.704   3.718   3.749   3.762   3.770
144 B   146 A   145 B   146 B   147 A   147 B   148 A   148 B                  
  3.773   3.778   3.817   3.837   3.838   3.869   3.869   3.875
149 B   149 A   150 A   151 A   150 B   151 B   152 A   152 B                  
  3.891   3.917   3.962   3.965   3.968   4.008   4.011   4.027
153 A   153 B   154 A   155 A   154 B   155 B   156 A   156 B                  
  4.028   4.041   4.049   4.058   4.087   4.099   4.119   4.126
157 A   157 B   158 A   158 B   159 A   159 B   160 B   160 A                  
  4.175   4.177   4.214   4.247   4.282   4.318   4.327   4.347
161 A   161 B   162 A   162 B   163 A   164 A   163 B   165 A                  
  4.354   4.356   4.385   4.436   4.450   4.481   4.500   4.508
166 A   164 B   165 B   167 A   166 B   168 A   167 B   169 A                  
  4.520   4.546   4.572   4.580   4.616   4.632   4.652   4.687
168 B   170 A   169 B   170 B   171 B   171 A   172 A   172 B                  
  4.704   4.759   4.768   4.843   4.861   4.875   4.884   4.906
173 A   174 A   173 B   174 B   175 A   175 B   176 A   177 A                  
  4.920   4.921   4.969   5.035   5.057   5.089   5.126   5.164
176 B   178 A   177 B   178 B   179 A   179 B   180 A   180 B                  
  5.229   5.244   5.248   5.254   5.304   5.414   5.419   5.480
181 A   182 A   181 B   182 B   183 A   183 B   184 A   184 B                  
  5.521   5.676   5.713   5.871   5.885   5.953   5.953   6.033
185 A   186 A   185 B   186 B   187 A   188 A   187 B   188 B                  
  6.048   6.149   6.378   6.397   6.544   6.645   9.348  10.860
189 A   189 B   190 A   190 B   191 A   191 B   192 A   192 B                  
 11.776  12.625  13.119  13.540  14.603  14.879
193 A   193 B   194 A   194 B   195 A   195 B                                  
 --------------------------------------------------------------
 
          Ground-State Mulliken Net Atomic Charges

     Atom                 Charge (a.u.)    Spin (a.u.)
  --------------------------------------------------------
      1 S                     0.269216      -0.025087
      2 C                    -0.115370      -0.060514
      3 C                    -0.157522       0.468237
      4 C                    -0.127914      -0.283042
      5 C                    -0.052754       0.397101
      6 H                     0.218062       0.023493
      7 C                    -0.052755       0.397101
      8 S                     0.269217      -0.025087
      9 C                    -0.127916      -0.283042
     10 C                    -0.115371      -0.060514
     11 C                    -0.157521       0.468237
     12 H                     0.224770      -0.035612
     13 H                     0.241512       0.015423
     14 H                     0.224770      -0.035612
     15 H                     0.241513       0.015423
     16 H                     0.218063       0.023493
  --------------------------------------------------------
  Sum of atomic charges =     1.000000
  Sum of spin   charges =     1.000000

 -----------------------------------------------------------------
                    Cartesian Multipole Moments
 -----------------------------------------------------------------
    Charge (ESU x 10^10)
                 4.8032
    Dipole Moment (Debye)
         X       0.0000      Y       0.0000      Z      -0.7963
       Tot       0.7963
    Quadrupole Moments (Debye-Ang)
        XX     -22.3374     XY       1.0385     YY     -70.2280
        XZ      -0.0000     YZ      -0.0000     ZZ     -58.5429
    Octopole Moments (Debye-Ang^2)
       XXX      -0.0000    XXY      -0.0000    XYY      -0.0000
       YYY       0.0000    XXZ       4.0673    XYZ     -15.5974
       YYZ       0.2069    XZZ       0.0000    YZZ       0.0000
       ZZZ      -7.8315
    Hexadecapole Moments (Debye-Ang^3)
      XXXX   -1256.4664   XXXY       8.8009   XXYY    -354.4285
      XYYY      -6.7022   YYYY    -174.6048   XXXZ      -0.0000
      XXYZ      -0.0000   XYYZ      -0.0000   YYYZ      -0.0000
      XXZZ    -328.8864   XYZZ      13.8242   YYZZ     -97.6878
      XZZZ      -0.0000   YZZZ      -0.0000   ZZZZ    -426.2461
 -----------------------------------------------------------------
 DrvMan is completing analytic gradient of the MP2 energy
 MP2 relaxed dipole moment
            1
    1   0.0000000
    2   0.0000000
    3  -0.3132899
	Magnitude:	 0.313 au	 0.796 Debye
 MP2 energy read as -1103.097049
 Full Analytical Gradient of MP2 Energy (in au.)
             1             2             3             4             5
    1   -0.00270665    0.00216181   -0.00160740    0.00327122   -0.01763218
    2   -0.00737478   -0.00072968   -0.00041029    0.01039831   -0.00465397
    3   -0.00097951   -0.00152280   -0.00260271    0.00296613    0.00248089
             6             7             8             9            10
    1    0.00117494    0.01763218    0.00270665   -0.00327122   -0.00216182
    2   -0.00035187    0.00465397    0.00737478   -0.01039831    0.00072968
    3   -0.00096742    0.00248090   -0.00097951    0.00296613   -0.00152281
            11            12            13            14            15
    1    0.00160741    0.00003232   -0.00051132   -0.00003232    0.00051132
    2    0.00041028    0.00128769    0.00260246   -0.00128768   -0.00260246
    3   -0.00260271   -0.00066184    0.00128725   -0.00066184    0.00128725
            16
    1   -0.00117494
    2    0.00035187
    3   -0.00096742
 Gradient time:  CPU 1.41 s  wall 0.09 s
 Geometry Optimization Parameters
   NAtoms,    NIC,     NZ,  NCons,   NDum,   NFix, NCnnct, MaxDiis
       16     111       0       1       0       0       0       0


** CONSTRAINED OPTIMIZATION IN DELOCALIZED INTERNAL COORDINATES **
   Searching for a Minimum

   Optimization Cycle:   1

                       Coordinates (Angstroms)
     ATOM                X               Y               Z
      1  S         1.6218710849   -0.5428083863    1.0399663830
      2  C         3.0424052761   -0.1134662169    0.2991414322
      3  C         2.8767033879    0.4609232710   -0.9514463993
      4  C         1.5573333171    0.5454066421   -1.2978087684
      5  C         0.6970983539    0.0407425633   -0.3250330853
      6  H         1.2073108776    0.9592582526   -2.2275676229
      7  C        -0.6970983539   -0.0407425633   -0.3250330853
      8  S        -1.6218710849    0.5428083863    1.0399663830
      9  C        -1.5573333171   -0.5454066421   -1.2978087684
     10  C        -3.0424052761    0.1134662169    0.2991414322
     11  C        -2.8767033879   -0.4609232710   -0.9514463993
     12  H        -3.7004732500   -0.7913899742   -1.5550955225
     13  H         3.9803517468   -0.2893869160    0.7940819380
     14  H         3.7004732500    0.7913899742   -1.5550955225
     15  H        -3.9803517468    0.2893869160    0.7940819380
     16  H        -1.2073108776   -0.9592582526   -2.2275676229
   Point Group: c2    Number of degrees of freedom:    22


   Energy is  -1103.097048847

              Constraints and their Current Values
                                        Value     Constraint
   Dihedral:        4   5   7   9       50.000       50.000

 Attempting to Generate Delocalized Internal Coordinates

 21 Hessian modes will be used to form the next step
  Hessian Eigenvalues:
     0.045000    0.045000    0.045000    0.045000    0.045000    0.045000
     0.160000    0.160000    0.160000    0.221335    0.237679    0.250000
     0.299411    0.364554    0.366034    0.368031    0.392996    0.445237
     0.461927    0.467905    0.501257

 Minimum Search - Taking Simple RFO Step
 Searching for Lamda that Minimizes Along All modes
 Value Taken    Lamda =  -0.00343386
 Step Taken.  Stepsize is  0.237065

                             Maximum     Tolerance    Cnvgd?
         Gradient           0.008000      0.000300      NO
         Displacement       0.135710      0.001200      NO
         Energy change     *********      0.000001      NO


 New Cartesian Coordinates Obtained by Inverse Iteration

 Displacement from previous Coordinates is:  0.273224
 ----------------------------------------------------------------
             Standard Nuclear Orientation (Angstroms)
    I     Atom           X                Y                Z
 ----------------------------------------------------------------
    1      S       1.6258574150    -0.4814528517     1.0619071726
    2      C       3.0491199891    -0.0956824860     0.3106402780
    3      C       2.8866753519     0.4533187679    -0.9504897474
    4      C       1.5675155942     0.5120972349    -1.3123417998
    5      C       0.7068895096     0.0258708366    -0.3378245463
    6      H       1.2126775056     0.9081681545    -2.2474734967
    7      C      -0.7068895096    -0.0258708366    -0.3378245463
    8      S      -1.6258574150     0.4814528517     1.0619071726
    9      C      -1.5675155942    -0.5120972349    -1.3123417998
   10      C      -3.0491199891     0.0956824860     0.3106402780
   11      C      -2.8866753519    -0.4533187679    -0.9504897474
   12      H      -3.7122546185    -0.7806301341    -1.5535090282
   13      H       3.9867813995    -0.2762169619     0.8053295225
   14      H       3.7122546185     0.7806301341    -1.5535090282
   15      H      -3.9867813995     0.2762169619     0.8053295225
   16      H      -1.2126775056    -0.9081681545    -2.2474734967
 ----------------------------------------------------------------
 Molecular Point Group                 C2    NOp =  2
 Largest Abelian Subgroup              C2    NOp =  2
 Nuclear Repulsion Energy =   641.3824665628 hartrees
 There are       43 alpha and       42 beta electrons
 Applying Cartesian multipole field
    Component          Value
    ---------          -----
     (2,0,0)        1.00000E-11
     (0,2,0)        2.00000E-10
     (0,0,2)       -3.00000E-11
 Nucleus-field energy     =     0.0000000164 hartrees
 Requested basis set is cc-pVTZ
 There are 140 shells and 392 basis functions
 A cutoff of  1.0D-11 yielded   8060 shell pairs
 There are     62628 function pairs (     81620 Cartesian)
 Smallest overlap matrix eigenvalue = 7.96E-05
 Guess MOs from SCF MO coefficient file
 Reading MOs from coefficient file
 Reading MOs from coefficient file
 An unrestricted Hartree-Fock SCF calculation will be
 performed using Pulay DIIS extrapolation
 SCF converges when DIIS error is below 1.0E-08
 Geometry optimization detected.  Setting ReadMinima to 0
 Setting SaveMinima to 0
 using 16 threads for integral computing 
 ---------------------------------------
  Cycle       Energy         DIIS Error
 ---------------------------------------
    1   -1101.3493255951      7.82E-04
    2   -1101.3505763090      8.97E-05
    3   -1101.3509664708      3.59E-05
    4   -1101.3510313332      1.81E-05
    5   -1101.3510465196      6.11E-06
    6   -1101.3510487422      2.38E-06
    7   -1101.3510493719      1.09E-06
    8   -1101.3510495712      3.56E-07
    9   -1101.3510496232      1.82E-07
   10   -1101.3510496434      9.25E-08
   11   -1101.3510496552      6.68E-08
   12   -1101.3510496630      5.20E-08
   13   -1101.3510496686      3.38E-08
   14   -1101.3510496708      2.03E-08
   15   -1101.3510496714      1.15E-08
   16   -1101.3510496722      5.27E-09 Convergence criterion met
 ---------------------------------------
 <S^2> = 1.0192
 SCF time:  CPU 1213.88 s  wall 75.92 s
 SCF   energy in the final basis set = -1101.3510496722
 Total energy in the final basis set = -1101.3510496722
 
 Components of the MP2 correlation energy:
        aaaa  correlation energy =        -0.2338774757 au
        abab  correlation energy =        -1.3023814532 au
        bbbb  correlation energy =        -0.2121024838 au
        non-Brillouin singles    =        -0.0000000000 au

 Total  MP2   correlation energy =        -1.7483614128 au
        MP2         total energy =     -1103.0994110849 au

  Entering Z-vector solver.
   1         0           1      0.000540    0.000540
   2         0           1      0.000487    0.000487
   3         0           1      0.000333    0.000333
   4         0           1      0.000260    0.000260
   5         0           1      0.000117    0.000117
   6         0           1      0.000061    0.000061
   7         0           1      0.000035    0.000035
   8         0           1      0.000021    0.000021
   9         0           1      0.000010    0.000010
  10         0           1      0.000004    0.000004
  11         0           1      0.000002    0.000002
  12         1           0      0.000000    0.000000    Roots Converged
 Warning:  Cannot save MP2 spin density
 
 --------------------------------------------------------------
             Orbital Energies (a.u.) and Symmetries
 --------------------------------------------------------------
 
 Alpha MOs, Unrestricted
 -- Occupied --                  
-92.160 -92.160 -11.476 -11.475 -11.451 -11.451 -11.433 -11.433
  1 A     1 B     2 A     2 B     3 B     3 A     4 B     4 A                  
-11.404 -11.404  -9.162  -9.162  -6.843  -6.843  -6.842  -6.842
  5 A     5 B     6 B     6 A     7 B     7 A     8 A     8 B                  
 -6.840  -6.840  -1.394  -1.365  -1.230  -1.189  -1.185  -1.129
  9 A     9 B    10 A    10 B    11 A    12 A    11 B    12 B                  
 -0.998  -0.956  -0.932  -0.905  -0.889  -0.822  -0.752  -0.751
 13 A    14 A    13 B    14 B    15 A    15 B    16 B    16 A                  
 -0.748  -0.737  -0.730  -0.709  -0.695  -0.663  -0.648  -0.569
 17 A    17 B    18 A    19 A    18 B    20 A    19 B    20 B                  
 -0.538  -0.518  -0.486
 21 A    21 B    22 A                                                          
 -- Virtual --                   
 -0.111  -0.049  -0.003   0.015   0.018   0.022   0.034   0.041
 22 B    23 A    24 A    25 A    23 B    24 B    26 A    25 B                  
  0.044   0.061   0.072   0.083   0.097   0.118   0.152   0.188
 27 A    26 B    28 A    29 A    27 B    28 B    30 A    29 B                  
  0.197   0.197   0.201   0.225   0.225   0.236   0.259   0.266
 30 B    31 A    32 A    33 A    31 B    32 B    33 B    34 A                  
  0.283   0.288   0.293   0.302   0.317   0.323   0.333   0.346
 35 A    34 B    36 A    35 B    36 B    37 A    37 B    38 A                  
  0.358   0.365   0.366   0.373   0.387   0.389   0.397   0.405
 39 A    40 A    38 B    39 B    41 A    40 B    42 A    41 B                  
  0.428   0.428   0.438   0.439   0.448   0.455   0.459   0.465
 43 A    42 B    43 B    44 A    45 A    44 B    46 A    45 B                  
  0.467   0.477   0.509   0.513   0.516   0.524   0.554   0.565
 47 A    46 B    47 B    48 A    49 A    48 B    50 A    49 B                  
  0.577   0.577   0.620   0.625   0.638   0.640   0.681   0.687
 50 B    51 A    52 A    51 B    52 B    53 A    54 A    53 B                  
  0.693   0.712   0.717   0.735   0.739   0.756   0.777   0.793
 55 A    54 B    55 B    56 A    56 B    57 A    57 B    58 A                  
  0.799   0.822   0.843   0.858   0.872   0.873   0.896   0.910
 58 B    59 B    59 A    60 A    61 A    60 B    61 B    62 A                  
  0.917   0.934   0.942   0.953   0.983   0.995   0.996   1.014
 62 B    63 A    64 A    63 B    64 B    65 B    65 A    66 A                  
  1.027   1.028   1.053   1.058   1.066   1.084   1.110   1.113
 67 A    66 B    67 B    68 A    68 B    69 A    69 B    70 B                  
  1.136   1.143   1.153   1.200   1.223   1.242   1.246   1.250
 70 A    71 A    71 B    72 A    72 B    73 A    74 A    73 B                  
  1.269   1.297   1.304   1.331   1.337   1.352   1.357   1.363
 74 B    75 B    75 A    76 B    76 A    77 B    77 A    78 A                  
  1.372   1.382   1.405   1.406   1.420   1.433   1.466   1.487
 79 A    78 B    79 B    80 A    80 B    81 A    81 B    82 A                  
  1.504   1.505   1.522   1.542   1.573   1.601   1.604   1.656
 83 A    82 B    83 B    84 A    84 B    85 A    85 B    86 B                  
  1.675   1.698   1.704   1.713   1.723   1.760   1.772   1.775
 86 A    87 A    87 B    88 B    88 A    89 B    89 A    90 A                  
  1.784   1.801   1.877   1.912   1.918   1.924   1.939   2.002
 90 B    91 A    91 B    92 B    92 A    93 B    93 A    94 A                  
  2.009   2.015   2.028   2.037   2.057   2.073   2.073   2.105
 94 B    95 B    95 A    96 A    96 B    97 A    97 B    98 A                  
  2.109   2.137   2.141   2.218   2.263   2.266   2.271   2.294
 98 B    99 A    99 B   100 A   100 B   101 A   101 B   102 A                  
  2.316   2.319   2.325   2.352   2.373   2.374   2.385   2.424
102 B   103 A   103 B   104 A   105 A   104 B   105 B   106 A                  
  2.428   2.457   2.480   2.505   2.545   2.554   2.568   2.572
106 B   107 B   107 A   108 A   108 B   109 A   109 B   110 A                  
  2.596   2.602   2.615   2.632   2.634   2.692   2.717   2.717
110 B   111 A   111 B   112 B   112 A   113 A   113 B   114 A                  
  2.738   2.750   2.791   2.791   2.813   2.825   2.827   2.831
114 B   115 A   116 A   115 B   116 B   117 A   117 B   118 A                  
  2.847   2.855   2.902   2.956   2.967   3.001   3.009   3.024
119 A   118 B   119 B   120 A   120 B   121 A   121 B   122 A                  
  3.031   3.041   3.051   3.052   3.078   3.080   3.084   3.103
122 B   123 B   124 B   123 A   125 B   124 A   125 A   126 B                  
  3.121   3.131   3.140   3.149   3.176   3.187   3.206   3.214
126 A   127 A   127 B   128 A   128 B   129 A   130 A   129 B                  
  3.231   3.236   3.239   3.261   3.269   3.282   3.289   3.289
131 A   132 A   130 B   131 B   133 A   134 A   135 A   132 B                  
  3.302   3.323   3.328   3.338   3.339   3.349   3.358   3.370
133 B   134 B   136 A   135 B   137 A   136 B   138 A   137 B                  
  3.381   3.401   3.421   3.429   3.436   3.453   3.475   3.477
138 B   139 A   139 B   140 A   140 B   141 A   141 B   142 A                  
  3.489   3.527   3.532   3.562   3.572   3.574   3.604   3.619
142 B   143 A   143 B   144 A   144 B   145 A   146 A   145 B                  
  3.624   3.661   3.703   3.715   3.739   3.760   3.760   3.767
147 A   146 B   147 B   148 A   148 B   149 A   149 B   150 B                  
  3.776   3.812   3.829   3.834   3.866   3.870   3.875   3.885
150 A   151 A   151 B   152 A   152 B   153 A   153 B   154 A                  
  3.919   3.956   3.961   3.967   4.004   4.014   4.025   4.026
154 B   155 A   156 A   155 B   157 A   156 B   157 B   158 A                  
  4.030   4.045   4.059   4.074   4.100   4.117   4.124   4.174
158 B   159 A   159 B   160 A   160 B   161 B   161 A   162 A                  
  4.176   4.209   4.246   4.275   4.312   4.333   4.343   4.347
162 B   163 A   163 B   164 A   165 A   164 B   166 A   167 A                  
  4.353   4.387   4.427   4.445   4.475   4.500   4.505   4.514
165 B   166 B   168 A   167 B   169 A   168 B   170 A   169 B                  
  4.541   4.567   4.583   4.618   4.623   4.647   4.684   4.699
171 A   170 B   171 B   172 A   172 B   173 A   173 B   174 A                  
  4.752   4.770   4.834   4.849   4.868   4.876   4.904   4.914
175 A   174 B   175 B   176 A   176 B   177 A   178 A   179 A                  
  4.918   4.962   5.025   5.052   5.079   5.114   5.165   5.221
177 B   178 B   179 B   180 A   180 B   181 A   181 B   182 A                  
  5.240   5.247   5.251   5.303   5.417   5.417   5.476   5.517
183 A   182 B   183 B   184 A   184 B   185 A   185 B   186 A                  
  5.674   5.703   5.868   5.874   5.952   5.952   6.039   6.039
187 A   186 B   187 B   188 A   188 B   189 A   189 B   190 A                  
  6.176   6.381   6.406   6.538   6.634   9.328  10.789  11.787
190 B   191 A   191 B   192 A   192 B   193 A   193 B   194 A                  
 12.454  13.135  13.490  14.590  14.865
194 B   195 A   195 B   196 A   196 B                                          
 
 Beta MOs, Unrestricted
 -- Occupied --                  
-92.161 -92.161 -11.476 -11.475 -11.439 -11.439 -11.426 -11.426
  1 A     1 B     2 A     2 B     3 B     3 A     4 B     4 A                  
-11.410 -11.410  -9.164  -9.164  -6.845  -6.845  -6.844  -6.844
  5 B     5 A     6 B     6 A     7 B     7 A     8 B     8 A                  
 -6.843  -6.843  -1.382  -1.350  -1.218  -1.186  -1.176  -1.106
  9 A     9 B    10 A    10 B    11 A    12 A    11 B    12 B                  
 -0.990  -0.948  -0.920  -0.900  -0.886  -0.818  -0.750  -0.741
 13 A    14 A    13 B    14 B    15 A    15 B    16 A    17 A                  
 -0.737  -0.725  -0.722  -0.681  -0.665  -0.661  -0.647  -0.534
 16 B    18 A    17 B    18 B    19 A    20 A    19 B    21 A                  
 -0.534  -0.498
 20 B    21 B                                                                  
 -- Virtual --                   
 -0.195  -0.052  -0.022   0.008   0.020   0.022   0.034   0.043
 22 A    22 B    23 A    24 A    25 A    23 B    24 B    26 A                  
  0.046   0.054   0.065   0.072   0.090   0.101   0.121   0.154
 25 B    27 A    26 B    28 A    29 A    27 B    28 B    30 A                  
  0.194   0.198   0.202   0.204   0.225   0.227   0.238   0.267
 29 B    30 B    31 A    32 A    33 A    31 B    32 B    33 B                  
  0.271   0.289   0.296   0.297   0.313   0.317   0.322   0.327
 34 A    35 A    34 B    36 A    35 B    36 B    37 A    37 B                  
  0.354   0.361   0.378   0.384   0.389   0.397   0.400   0.409
 38 A    39 A    38 B    39 B    40 A    40 B    41 A    42 A                  
  0.415   0.431   0.433   0.441   0.444   0.455   0.461   0.463
 41 B    42 B    43 A    43 B    44 A    45 A    44 B    46 A                  
  0.470   0.472   0.483   0.515   0.515   0.522   0.528   0.559
 45 B    47 A    46 B    48 A    47 B    49 A    48 B    50 A                  
  0.569   0.578   0.580   0.622   0.627   0.640   0.641   0.686
 49 B    51 A    50 B    52 A    51 B    52 B    53 A    54 A                  
  0.689   0.696   0.717   0.724   0.738   0.742   0.759   0.781
 53 B    55 A    54 B    55 B    56 A    56 B    57 A    57 B                  
  0.797   0.801   0.826   0.846   0.862   0.874   0.876   0.900
 58 A    58 B    59 B    59 A    60 A    61 A    60 B    61 B                  
  0.912   0.920   0.939   0.952   0.960   0.985   0.997   0.998
 62 A    62 B    63 A    64 A    63 B    64 B    65 A    65 B                  
  1.019   1.030   1.033   1.054   1.060   1.067   1.089   1.111
 66 A    67 A    66 B    67 B    68 A    68 B    69 A    69 B                  
  1.118   1.137   1.150   1.159   1.204   1.232   1.250   1.252
 70 B    70 A    71 A    71 B    72 A    72 B    73 A    73 B                  
  1.255   1.274   1.300   1.307   1.336   1.339   1.358   1.360
 74 A    74 B    75 B    75 A    76 B    76 A    77 A    77 B                  
  1.367   1.376   1.383   1.407   1.408   1.423   1.436   1.472
 78 A    79 A    78 B    80 A    79 B    80 B    81 A    81 B                  
  1.490   1.508   1.508   1.524   1.546   1.576   1.602   1.608
 82 A    83 A    82 B    83 B    84 A    84 B    85 A    85 B                  
  1.656   1.677   1.699   1.703   1.717   1.722   1.761   1.775
 86 B    86 A    87 A    87 B    88 B    88 A    89 B    89 A                  
  1.777   1.783   1.802   1.877   1.914   1.918   1.925   1.941
 90 A    90 B    91 A    91 B    92 B    92 A    93 B    93 A                  
  2.002   2.008   2.016   2.029   2.038   2.057   2.074   2.076
 94 A    94 B    95 B    95 A    96 A    96 B    97 A    97 B                  
  2.120   2.124   2.141   2.143   2.221   2.264   2.265   2.276
 98 A    98 B    99 A    99 B   100 A   101 A   100 B   101 B                  
  2.299   2.319   2.320   2.328   2.355   2.380   2.391   2.395
102 A   102 B   103 A   103 B   104 A   104 B   105 A   105 B                  
  2.430   2.436   2.460   2.485   2.507   2.546   2.554   2.574
106 A   106 B   107 B   107 A   108 A   108 B   109 A   109 B                  
  2.582   2.603   2.609   2.621   2.638   2.640   2.700   2.722
110 A   110 B   111 A   111 B   112 B   112 A   113 A   114 A                  
  2.723   2.745   2.755   2.798   2.799   2.816   2.829   2.832
113 B   114 B   115 A   115 B   116 A   116 B   117 A   117 B                  
  2.834   2.855   2.861   2.905   2.960   2.976   3.001   3.018
118 A   119 A   118 B   119 B   120 A   120 B   121 A   121 B                  
  3.031   3.035   3.042   3.055   3.058   3.083   3.087   3.089
122 A   122 B   123 B   124 B   123 A   124 A   125 B   125 A                  
  3.109   3.130   3.137   3.148   3.156   3.180   3.192   3.209
126 B   126 A   127 A   127 B   128 A   128 B   129 A   130 A                  
  3.215   3.233   3.243   3.243   3.264   3.270   3.287   3.292
129 B   131 A   132 A   130 B   131 B   133 A   134 A   135 A                  
  3.298   3.304   3.335   3.340   3.345   3.349   3.352   3.362
132 B   133 B   134 B   136 A   135 B   137 A   136 B   138 A                  
  3.377   3.382   3.405   3.429   3.432   3.440   3.456   3.478
137 B   138 B   139 A   139 B   140 A   140 B   141 A   141 B                  
  3.480   3.492   3.531   3.536   3.566   3.576   3.577   3.609
142 A   142 B   143 A   143 B   144 A   144 B   145 A   146 A                  
  3.624   3.628   3.662   3.706   3.720   3.742   3.761   3.764
145 B   147 A   146 B   147 B   148 A   148 B   149 A   149 B                  
  3.769   3.780   3.815   3.834   3.836   3.870   3.873   3.876
150 B   150 A   151 A   151 B   152 A   152 B   153 A   153 B                  
  3.889   3.921   3.957   3.964   3.971   4.006   4.016   4.026
154 A   154 B   155 A   156 A   155 B   157 A   156 B   157 B                  
  4.029   4.032   4.046   4.061   4.076   4.102   4.118   4.125
158 A   158 B   159 A   159 B   160 A   160 B   161 B   161 A                  
  4.174   4.178   4.211   4.246   4.277   4.313   4.335   4.344
162 A   162 B   163 A   163 B   164 A   165 A   164 B   166 A                  
  4.348   4.354   4.389   4.432   4.449   4.477   4.502   4.507
167 A   165 B   166 B   168 A   167 B   169 A   168 B   170 A                  
  4.514   4.545   4.570   4.584   4.619   4.624   4.648   4.684
169 B   171 A   170 B   171 B   172 A   172 B   173 A   173 B                  
  4.701   4.754   4.772   4.837   4.853   4.869   4.877   4.905
174 A   175 A   174 B   175 B   176 A   176 B   177 A   178 A                  
  4.915   4.921   4.963   5.026   5.054   5.085   5.119   5.166
179 A   177 B   178 B   179 B   180 A   180 B   181 A   181 B                  
  5.222   5.241   5.248   5.252   5.303   5.418   5.418   5.477
182 A   183 A   182 B   183 B   184 A   184 B   185 A   185 B                  
  5.518   5.675   5.704   5.869   5.875   5.952   5.953   6.039
186 A   187 A   186 B   187 B   188 A   188 B   189 A   190 A                  
  6.040   6.176   6.382   6.407   6.538   6.634   9.330  10.792
189 B   190 B   191 A   191 B   192 A   192 B   193 A   193 B                  
 11.791  12.459  13.139  13.491  14.591  14.867
194 A   194 B   195 A   195 B   196 A   196 B                                  
 --------------------------------------------------------------
 
          Ground-State Mulliken Net Atomic Charges

     Atom                 Charge (a.u.)    Spin (a.u.)
  --------------------------------------------------------
      1 S                     0.263455      -0.025702
      2 C                    -0.113411      -0.054657
      3 C                    -0.159567       0.464203
      4 C                    -0.127609      -0.273603
      5 C                    -0.047602       0.387525
      6 H                     0.218067       0.022755
      7 C                    -0.047602       0.387525
      8 S                     0.263455      -0.025702
      9 C                    -0.127609      -0.273603
     10 C                    -0.113411      -0.054657
     11 C                    -0.159567       0.464203
     12 H                     0.224823      -0.035217
     13 H                     0.241845       0.014697
     14 H                     0.224823      -0.035217
     15 H                     0.241845       0.014697
     16 H                     0.218067       0.022755
  --------------------------------------------------------
  Sum of atomic charges =     1.000000
  Sum of spin   charges =     1.000000

 -----------------------------------------------------------------
                    Cartesian Multipole Moments
 -----------------------------------------------------------------
    Charge (ESU x 10^10)
                 4.8032
    Dipole Moment (Debye)
         X      -0.0000      Y       0.0000      Z      -0.7419
       Tot       0.7419
    Quadrupole Moments (Debye-Ang)
        XX     -22.0418     XY       1.2696     YY     -70.6392
        XZ      -0.0000     YZ       0.0000     ZZ     -58.3173
    Octopole Moments (Debye-Ang^2)
       XXX      -0.0000    XXY       0.0000    XYY      -0.0000
       YYY       0.0000    XXZ       4.2975    XYZ     -15.0363
       YYZ      -0.0913    XZZ      -0.0000    YZZ      -0.0000
       ZZZ      -8.8200
    Hexadecapole Moments (Debye-Ang^3)
      XXXX   -1260.0589   XXXY       4.1353   XXYY    -355.3663
      XYYY     -12.7950   YYYY    -161.9590   XXXZ      -0.0000
      XXYZ       0.0000   XYYZ      -0.0000   YYYZ       0.0000
      XXZZ    -331.3637   XYZZ      11.7918   YYZZ     -98.7254
      XZZZ       0.0000   YZZZ       0.0000   ZZZZ    -435.0807
 -----------------------------------------------------------------
 DrvMan is completing analytic gradient of the MP2 energy
 MP2 relaxed dipole moment
            1
    1  -0.0000000
    2   0.0000000
    3  -0.2918928
	Magnitude:	 0.292 au	 0.742 Debye
 MP2 energy read as -1103.099411
 Full Analytical Gradient of MP2 Energy (in au.)
             1             2             3             4             5
    1    0.00096701    0.00078489   -0.00034717   -0.00009267   -0.00053080
    2   -0.00151485   -0.00304064    0.00095986    0.00708570   -0.00701669
    3   -0.00127221   -0.00092995    0.00070118    0.00431551   -0.00322268
             6             7             8             9            10
    1    0.00008164    0.00053080   -0.00096701    0.00009267   -0.00078489
    2   -0.00000658    0.00701669    0.00151485   -0.00708570    0.00304064
    3   -0.00003209   -0.00322268   -0.00127221    0.00431551   -0.00092995
            11            12            13            14            15
    1    0.00034717   -0.00010428    0.00000434    0.00010428   -0.00000434
    2   -0.00095986    0.00064373    0.00114748   -0.00064373   -0.00114748
    3    0.00070118   -0.00017558    0.00061584   -0.00017558    0.00061584
            16
    1   -0.00008164
    2    0.00000658
    3   -0.00003209
 Gradient time:  CPU 1.54 s  wall 0.10 s
 Geometry Optimization Parameters
   NAtoms,    NIC,     NZ,  NCons,   NDum,   NFix, NCnnct, MaxDiis
       16     111       0       1       0       0       0       0

 Cartesian Hessian Update
 Hessian Updated using BFGS Update


** CONSTRAINED OPTIMIZATION IN DELOCALIZED INTERNAL COORDINATES **
   Searching for a Minimum

   Optimization Cycle:   2

                       Coordinates (Angstroms)
     ATOM                X               Y               Z
      1  S         1.6258574150   -0.4814528517    1.0619071726
      2  C         3.0491199891   -0.0956824860    0.3106402780
      3  C         2.8866753519    0.4533187679   -0.9504897474
      4  C         1.5675155942    0.5120972349   -1.3123417998
      5  C         0.7068895096    0.0258708366   -0.3378245463
      6  H         1.2126775056    0.9081681545   -2.2474734967
      7  C        -0.7068895096   -0.0258708366   -0.3378245463
      8  S        -1.6258574150    0.4814528517    1.0619071726
      9  C        -1.5675155942   -0.5120972349   -1.3123417998
     10  C        -3.0491199891    0.0956824860    0.3106402780
     11  C        -2.8866753519   -0.4533187679   -0.9504897474
     12  H        -3.7122546185   -0.7806301341   -1.5535090282
     13  H         3.9867813995   -0.2762169619    0.8053295225
     14  H         3.7122546185    0.7806301341   -1.5535090282
     15  H        -3.9867813995    0.2762169619    0.8053295225
     16  H        -1.2126775056   -0.9081681545   -2.2474734967
   Point Group: c2    Number of degrees of freedom:    22


   Energy is  -1103.099411085

              Constraints and their Current Values
                                        Value     Constraint
   Dihedral:        4   5   7   9       50.000       50.000
 Hessian Updated using BFGS Update

 16 Hessian modes will be used to form the next step
  Hessian Eigenvalues:
     0.022813    0.052147    0.159928    0.160653    0.221987    0.241840
     0.249782    0.299747    0.364573    0.366078    0.368031    0.394364
     0.446554    0.467468    0.494349    0.538123

 Minimum Search - Taking Simple RFO Step
 Searching for Lamda that Minimizes Along All modes
 Value Taken    Lamda =  -0.00168030
 Step Taken.  Stepsize is  0.257394

                             Maximum     Tolerance    Cnvgd?
         Gradient           0.004890      0.000300      NO
         Displacement       0.185154      0.001200      NO
         Energy change     -0.002362      0.000001      NO


 New Cartesian Coordinates Obtained by Inverse Iteration

 Displacement from previous Coordinates is:  0.404863
 ----------------------------------------------------------------
             Standard Nuclear Orientation (Angstroms)
    I     Atom           X                Y                Z
 ----------------------------------------------------------------
    1      S       1.6092936762    -0.4254753655     1.0849431824
    2      C       3.0365334046    -0.0579542101     0.3330156805
    3      C       2.8884811279     0.4317352406    -0.9539814276
    4      C       1.5736250461     0.4608174920    -1.3347957158
    5      C       0.7094404842     0.0011574508    -0.3520764576
    6      H       1.2211863768     0.8274694352    -2.2825866440
    7      C      -0.7094404842    -0.0011574508    -0.3520764576
    8      S      -1.6092936762     0.4254753655     1.0849431824
    9      C      -1.5736250461    -0.4608174920    -1.3347957158
   10      C      -3.0365334046     0.0579542101     0.3330156805
   11      C      -2.8884811279    -0.4317352406    -0.9539814276
   12      H      -3.7179446780    -0.7505754379    -1.5563111962
   13      H       3.9706304905    -0.2275838050     0.8380309332
   14      H       3.7179446780     0.7505754379    -1.5563111962
   15      H      -3.9706304905     0.2275838050     0.8380309332
   16      H      -1.2211863768    -0.8274694352    -2.2825866440
 ----------------------------------------------------------------
 Molecular Point Group                 C2    NOp =  2
 Largest Abelian Subgroup              C2    NOp =  2
 Nuclear Repulsion Energy =   642.3226773542 hartrees
 There are       43 alpha and       42 beta electrons
 Applying Cartesian multipole field
    Component          Value
    ---------          -----
     (2,0,0)        1.00000E-11
     (0,2,0)        2.00000E-10
     (0,0,2)       -3.00000E-11
 Nucleus-field energy     =     0.0000000138 hartrees
 Requested basis set is cc-pVTZ
 There are 140 shells and 392 basis functions
 A cutoff of  1.0D-11 yielded   8066 shell pairs
 There are     62690 function pairs (     81694 Cartesian)
 Smallest overlap matrix eigenvalue = 8.93E-05
 Guess MOs from SCF MO coefficient file
 Reading MOs from coefficient file
 Reading MOs from coefficient file
 An unrestricted Hartree-Fock SCF calculation will be
 performed using Pulay DIIS extrapolation
 SCF converges when DIIS error is below 1.0E-08
 Geometry optimization detected.  Setting ReadMinima to 0
 Setting SaveMinima to 0
 using 16 threads for integral computing 
 ---------------------------------------
  Cycle       Energy         DIIS Error
 ---------------------------------------
    1   -1101.3454418286      8.97E-04
    2   -1101.3526976061      1.13E-04
    3   -1101.3533575513      4.29E-05
    4   -1101.3534798140      1.67E-05
    5   -1101.3534978933      6.17E-06
    6   -1101.3535013731      2.60E-06
    7   -1101.3535026495      1.52E-06
    8   -1101.3535030939      6.42E-07
    9   -1101.3535034801      5.40E-07
   10   -1101.3535037333      4.01E-07
   11   -1101.3535040621      2.45E-07
   12   -1101.3535041888      1.10E-07
   13   -1101.3535042135      4.38E-08
   14   -1101.3535042161      2.11E-08
   15   -1101.3535042166      1.07E-08
   16   -1101.3535042181      5.58E-09 Convergence criterion met
 ---------------------------------------
 <S^2> = 1.0262
 SCF time:  CPU 1251.58 s  wall 78.28 s
 SCF   energy in the final basis set = -1101.3535042181
 Total energy in the final basis set = -1101.3535042181
 
 Components of the MP2 correlation energy:
        aaaa  correlation energy =        -0.2338093838 au
        abab  correlation energy =        -1.3014273601 au
        bbbb  correlation energy =        -0.2118305530 au
        non-Brillouin singles    =        -0.0000000000 au

 Total  MP2   correlation energy =        -1.7470672969 au
        MP2         total energy =     -1103.1005715150 au

  Entering Z-vector solver.
   1         0           1      0.000540    0.000540
   2         0           1      0.000485    0.000485
   3         0           1      0.000323    0.000323
   4         0           1      0.000246    0.000246
   5         0           1      0.000110    0.000110
   6         0           1      0.000057    0.000057
   7         0           1      0.000033    0.000033
   8         0           1      0.000019    0.000019
   9         0           1      0.000009    0.000009
  10         0           1      0.000004    0.000004
  11         0           1      0.000002    0.000002
  12         1           0      0.000000    0.000000    Roots Converged
 Warning:  Cannot save MP2 spin density
 
 --------------------------------------------------------------
             Orbital Energies (a.u.) and Symmetries
 --------------------------------------------------------------
 
 Alpha MOs, Unrestricted
 -- Occupied --                  
-92.160 -92.160 -11.477 -11.476 -11.451 -11.451 -11.433 -11.433
  1 A     1 B     2 A     2 B     3 B     3 A     4 B     4 A                  
-11.404 -11.404  -9.162  -9.162  -6.843  -6.843  -6.843  -6.843
  5 A     5 B     6 B     6 A     7 B     7 A     8 A     8 B                  
 -6.840  -6.840  -1.395  -1.365  -1.230  -1.190  -1.185  -1.129
  9 A     9 B    10 A    10 B    11 A    12 A    11 B    12 B                  
 -0.997  -0.958  -0.930  -0.905  -0.889  -0.822  -0.753  -0.751
 13 A    14 A    13 B    14 B    15 A    15 B    16 B    16 A                  
 -0.748  -0.736  -0.729  -0.711  -0.694  -0.666  -0.648  -0.574
 17 A    17 B    18 A    19 A    18 B    20 A    19 B    20 B                  
 -0.538  -0.519  -0.484
 21 A    21 B    22 A                                                          
 -- Virtual --                   
 -0.113  -0.045  -0.004   0.015   0.018   0.022   0.036   0.042
 22 B    23 A    24 A    25 A    23 B    24 B    26 A    25 B                  
  0.044   0.062   0.071   0.081   0.100   0.121   0.148   0.189
 27 A    26 B    28 A    29 A    27 B    28 B    30 A    29 B                  
  0.193   0.200   0.201   0.222   0.223   0.239   0.260   0.265
 31 A    30 B    32 A    31 B    33 A    32 B    33 B    34 A                  
  0.283   0.286   0.294   0.303   0.314   0.323   0.334   0.350
 35 A    34 B    36 A    35 B    36 B    37 A    37 B    38 A                  
  0.364   0.364   0.368   0.375   0.386   0.390   0.393   0.402
 39 A    38 B    40 A    39 B    41 A    40 B    42 A    41 B                  
  0.426   0.426   0.438   0.439   0.450   0.454   0.460   0.468
 43 A    42 B    43 B    44 A    45 A    44 B    46 A    45 B                  
  0.469   0.476   0.511   0.512   0.514   0.527   0.556   0.561
 47 A    46 B    47 B    48 A    49 A    48 B    50 A    49 B                  
  0.576   0.576   0.619   0.622   0.640   0.643   0.681   0.686
 50 B    51 A    52 A    51 B    53 A    52 B    54 A    53 B                  
  0.691   0.712   0.721   0.732   0.744   0.753   0.779   0.793
 55 A    54 B    55 B    56 A    56 B    57 A    57 B    58 A                  
  0.802   0.815   0.844   0.858   0.873   0.877   0.899   0.913
 58 B    59 B    59 A    60 A    61 A    60 B    61 B    62 A                  
  0.918   0.920   0.940   0.951   0.978   0.984   0.996   1.011
 62 B    63 A    64 A    63 B    64 B    65 B    65 A    66 A                  
  1.027   1.029   1.050   1.056   1.067   1.091   1.103   1.110
 66 B    67 A    67 B    68 A    68 B    69 A    69 B    70 B                  
  1.137   1.144   1.155   1.191   1.217   1.231   1.244   1.252
 70 A    71 A    71 B    72 A    72 B    73 A    74 A    73 B                  
  1.275   1.301   1.302   1.336   1.337   1.348   1.356   1.361
 74 B    75 A    75 B    76 A    76 B    77 A    77 B    78 A                  
  1.372   1.383   1.403   1.404   1.421   1.428   1.467   1.483
 79 A    78 B    80 A    79 B    80 B    81 A    81 B    82 A                  
  1.500   1.502   1.520   1.544   1.579   1.599   1.617   1.656
 82 B    83 A    83 B    84 A    84 B    85 A    85 B    86 B                  
  1.663   1.702   1.704   1.715   1.721   1.752   1.768   1.785
 86 A    87 A    87 B    88 B    88 A    89 B    89 A    90 B                  
  1.785   1.802   1.879   1.915   1.915   1.934   1.940   2.001
 90 A    91 A    91 B    92 B    92 A    93 B    93 A    94 A                  
  2.007   2.017   2.028   2.039   2.058   2.072   2.076   2.106
 94 B    95 B    95 A    96 A    96 B    97 B    97 A    98 B                  
  2.108   2.131   2.137   2.230   2.241   2.264   2.273   2.298
 98 A    99 A    99 B   100 A   100 B   101 A   101 B   102 A                  
  2.311   2.316   2.325   2.354   2.373   2.375   2.394   2.422
102 B   103 A   103 B   104 A   104 B   105 A   105 B   106 A                  
  2.425   2.469   2.480   2.504   2.547   2.550   2.567   2.571
106 B   107 B   107 A   108 A   109 A   108 B   109 B   110 A                  
  2.596   2.600   2.628   2.630   2.637   2.693   2.720   2.722
110 B   111 A   111 B   112 B   112 A   113 A   113 B   114 A                  
  2.732   2.748   2.779   2.792   2.820   2.823   2.828   2.839
114 B   115 A   115 B   116 A   117 A   116 B   118 A   117 B                  
  2.851   2.861   2.906   2.952   2.969   3.003   3.008   3.009
119 A   118 B   119 B   120 A   120 B   121 A   121 B   122 A                  
  3.043   3.045   3.050   3.052   3.070   3.077   3.080   3.095
122 B   123 B   124 B   123 A   124 A   125 A   125 B   126 B                  
  3.125   3.133   3.137   3.144   3.173   3.184   3.208   3.221
126 A   127 A   127 B   128 A   128 B   129 A   130 A   129 B                  
  3.226   3.238   3.249   3.267   3.270   3.282   3.283   3.292
131 A   132 A   130 B   131 B   133 A   134 A   132 B   135 A                  
  3.304   3.324   3.328   3.335   3.340   3.344   3.359   3.372
133 B   134 B   136 A   135 B   137 A   136 B   138 A   137 B                  
  3.381   3.399   3.427   3.431   3.437   3.452   3.459   3.480
138 B   139 A   139 B   140 A   140 B   141 A   141 B   142 B                  
  3.484   3.527   3.533   3.562   3.567   3.576   3.611   3.619
142 A   143 B   143 A   144 A   144 B   145 A   146 A   145 B                  
  3.621   3.659   3.705   3.717   3.731   3.758   3.761   3.766
147 A   146 B   147 B   148 A   148 B   149 B   149 A   150 B                  
  3.780   3.813   3.829   3.831   3.867   3.873   3.879   3.885
150 A   151 A   151 B   152 A   152 B   153 A   153 B   154 A                  
  3.919   3.951   3.962   3.971   4.004   4.018   4.026   4.028
154 B   155 A   156 A   155 B   157 A   156 B   157 B   158 A                  
  4.029   4.042   4.061   4.063   4.106   4.123   4.126   4.168
158 B   159 A   159 B   160 A   160 B   161 B   161 A   162 A                  
  4.178   4.207   4.246   4.274   4.310   4.338   4.339   4.349
162 B   163 A   163 B   164 A   165 A   166 A   164 B   167 A                  
  4.351   4.390   4.425   4.446   4.472   4.503   4.505   4.511
165 B   166 B   168 A   167 B   169 A   168 B   170 A   169 B                  
  4.540   4.563   4.581   4.612   4.635   4.648   4.682   4.697
171 A   170 B   171 B   172 A   172 B   173 A   173 B   174 A                  
  4.753   4.774   4.823   4.844   4.864   4.870   4.910   4.914
175 A   174 B   175 B   176 A   176 B   177 A   178 A   179 A                  
  4.920   4.962   5.022   5.049   5.080   5.108   5.171   5.213
177 B   178 B   179 B   180 A   180 B   181 A   181 B   182 A                  
  5.242   5.244   5.254   5.306   5.415   5.417   5.474   5.515
183 A   182 B   183 B   184 A   185 A   184 B   185 B   186 A                  
  5.674   5.704   5.868   5.870   5.949   5.950   6.034   6.045
187 A   186 B   188 A   187 B   188 B   189 A   190 A   189 B                  
  6.203   6.375   6.410   6.542   6.619   9.308  10.763  11.799
190 B   191 A   191 B   192 A   192 B   193 A   193 B   194 A                  
 12.422  13.133  13.482  14.585  14.863
194 B   195 A   195 B   196 A   196 B                                          
 
 Beta MOs, Unrestricted
 -- Occupied --                  
-92.161 -92.161 -11.476 -11.475 -11.439 -11.439 -11.426 -11.426
  1 A     1 B     2 A     2 B     3 B     3 A     4 B     4 A                  
-11.410 -11.410  -9.164  -9.164  -6.845  -6.845  -6.844  -6.844
  5 B     5 A     6 B     6 A     7 B     7 A     8 B     8 A                  
 -6.843  -6.843  -1.382  -1.350  -1.217  -1.187  -1.176  -1.106
  9 B     9 A    10 A    10 B    11 A    12 A    11 B    12 B                  
 -0.989  -0.950  -0.919  -0.900  -0.887  -0.818  -0.750  -0.741
 13 A    14 A    13 B    14 B    15 A    15 B    16 A    17 A                  
 -0.737  -0.725  -0.721  -0.681  -0.666  -0.663  -0.647  -0.535
 16 B    18 A    17 B    18 B    19 A    20 A    19 B    20 B                  
 -0.534  -0.502
 21 A    21 B                                                                  
 -- Virtual --                   
 -0.191  -0.053  -0.023   0.007   0.020   0.023   0.035   0.043
 22 A    22 B    23 A    24 A    25 A    23 B    24 B    26 A                  
  0.045   0.056   0.066   0.072   0.087   0.104   0.124   0.150
 25 B    27 A    26 B    28 A    29 A    27 B    28 B    30 A                  
  0.194   0.200   0.202   0.203   0.223   0.223   0.241   0.269
 29 B    31 A    30 B    32 A    31 B    33 A    32 B    33 B                  
  0.271   0.288   0.294   0.298   0.313   0.316   0.322   0.328
 34 A    35 A    34 B    36 A    35 B    36 B    37 A    37 B                  
  0.356   0.368   0.378   0.386   0.390   0.397   0.399   0.407
 38 A    39 A    38 B    39 B    40 A    40 B    41 A    42 A                  
  0.412   0.430   0.431   0.440   0.445   0.458   0.460   0.465
 41 B    42 B    43 A    43 B    44 A    45 A    44 B    46 A                  
  0.473   0.474   0.482   0.515   0.517   0.520   0.532   0.560
 45 B    47 A    46 B    48 A    47 B    49 A    48 B    50 A                  
  0.565   0.577   0.581   0.621   0.624   0.641   0.645   0.686
 49 B    51 A    50 B    52 A    51 B    53 A    52 B    54 A                  
  0.688   0.695   0.718   0.727   0.735   0.747   0.756   0.784
 53 B    55 A    54 B    55 B    56 A    56 B    57 A    57 B                  
  0.797   0.805   0.819   0.847   0.862   0.875   0.880   0.903
 58 A    58 B    59 B    59 A    60 A    61 A    60 B    61 B                  
  0.916   0.920   0.925   0.951   0.957   0.981   0.986   0.996
 62 A    62 B    63 A    64 A    63 B    64 B    65 B    65 A                  
  1.015   1.031   1.032   1.052   1.059   1.068   1.096   1.104
 66 A    67 A    66 B    67 B    68 A    68 B    69 A    69 B                  
  1.116   1.138   1.152   1.161   1.194   1.225   1.240   1.254
 70 B    70 A    71 A    71 B    72 A    72 B    73 A    74 A                  
  1.254   1.280   1.305   1.306   1.337   1.341   1.352   1.363
 73 B    74 B    75 A    75 B    76 A    76 B    77 A    78 A                  
  1.364   1.377   1.384   1.404   1.406   1.424   1.432   1.473
 77 B    79 A    78 B    80 A    79 B    80 B    81 A    81 B                  
  1.487   1.503   1.506   1.521   1.547   1.581   1.600   1.621
 82 A    82 B    83 A    83 B    84 A    84 B    85 A    85 B                  
  1.656   1.665   1.703   1.706   1.716   1.719   1.752   1.771
 86 B    86 A    87 A    87 B    88 B    88 A    89 B    89 A                  
  1.785   1.786   1.804   1.880   1.915   1.916   1.935   1.943
 90 B    90 A    91 A    91 B    92 A    92 B    93 B    93 A                  
  2.000   2.006   2.018   2.028   2.040   2.058   2.075   2.077
 94 A    94 B    95 B    95 A    96 A    96 B    97 B    97 A                  
  2.121   2.123   2.135   2.140   2.231   2.253   2.264   2.267
 98 B    98 A    99 A    99 B   100 A   100 B   101 A   101 B                  
  2.303   2.317   2.318   2.327   2.357   2.382   2.392   2.399
102 A   102 B   103 A   103 B   104 A   104 B   105 A   105 B                  
  2.429   2.434   2.473   2.484   2.506   2.547   2.551   2.573
106 A   106 B   107 B   107 A   108 A   109 A   108 B   109 B                  
  2.581   2.602   2.607   2.632   2.636   2.643   2.701   2.723
110 A   110 B   111 A   111 B   112 B   112 A   113 A   113 B                  
  2.727   2.741   2.753   2.787   2.798   2.825   2.825   2.831
114 A   114 B   115 A   115 B   116 A   116 B   117 A   118 A                  
  2.846   2.858   2.866   2.908   2.957   2.975   3.003   3.017
117 B   119 A   118 B   119 B   120 A   120 B   121 A   122 A                  
  3.018   3.045   3.049   3.054   3.058   3.072   3.083   3.089
121 B   122 B   123 B   124 B   123 A   124 A   125 A   125 B                  
  3.101   3.132   3.142   3.144   3.151   3.178   3.189   3.212
126 B   126 A   127 A   127 B   128 A   128 B   129 A   130 A                  
  3.223   3.228   3.244   3.251   3.270   3.272   3.286   3.291
129 B   131 A   132 A   130 B   131 B   133 A   134 A   132 B                  
  3.295   3.305   3.337   3.339   3.342   3.347   3.351   3.364
135 A   133 B   134 B   136 A   135 B   136 B   137 A   138 A                  
  3.377   3.384   3.403   3.434   3.434   3.440   3.455   3.462
137 B   138 B   139 A   140 A   139 B   140 B   141 A   141 B                  
  3.484   3.487   3.532   3.537   3.567   3.571   3.580   3.616
142 B   142 A   143 B   143 A   144 A   144 B   145 A   146 A                  
  3.624   3.625   3.661   3.709   3.722   3.734   3.761   3.761
145 B   147 A   146 B   147 B   148 A   148 B   149 A   149 B                  
  3.768   3.784   3.815   3.834   3.834   3.870   3.877   3.881
150 B   150 A   151 A   152 A   151 B   152 B   153 A   153 B                  
  3.889   3.921   3.952   3.965   3.974   4.005   4.019   4.028
154 A   154 B   155 A   156 A   155 B   157 A   156 B   157 B                  
  4.030   4.031   4.043   4.063   4.065   4.108   4.124   4.127
158 A   158 B   159 A   159 B   160 A   160 B   161 B   161 A                  
  4.168   4.180   4.208   4.247   4.276   4.311   4.339   4.341
162 A   162 B   163 A   163 B   164 A   165 A   166 A   164 B                  
  4.350   4.352   4.392   4.429   4.450   4.474   4.505   4.506
167 A   165 B   166 B   168 A   167 B   169 A   168 B   170 A                  
  4.511   4.544   4.566   4.582   4.614   4.637   4.648   4.683
169 B   171 A   170 B   171 B   172 A   172 B   173 A   173 B                  
  4.699   4.755   4.776   4.827   4.848   4.866   4.872   4.911
174 A   175 A   174 B   175 B   176 A   176 B   177 A   178 A                  
  4.916   4.923   4.963   5.024   5.050   5.086   5.114   5.172
179 A   177 B   178 B   179 B   180 A   180 B   181 A   181 B                  
  5.215   5.243   5.246   5.254   5.306   5.416   5.418   5.475
182 A   183 A   182 B   183 B   184 A   185 A   184 B   185 B                  
  5.516   5.675   5.706   5.869   5.871   5.949   5.951   6.034
186 A   187 A   186 B   188 A   187 B   188 B   189 A   190 A                  
  6.046   6.203   6.376   6.411   6.543   6.619   9.310  10.766
189 B   190 B   191 A   191 B   192 A   192 B   193 A   193 B                  
 11.803  12.426  13.137  13.483  14.586  14.866
194 A   194 B   195 A   195 B   196 A   196 B                                  
 --------------------------------------------------------------
 
          Ground-State Mulliken Net Atomic Charges

     Atom                 Charge (a.u.)    Spin (a.u.)
  --------------------------------------------------------
      1 S                     0.256731      -0.029574
      2 C                    -0.112073      -0.034901
      3 C                    -0.161539       0.440729
      4 C                    -0.127465      -0.246494
      5 C                    -0.039211       0.369738
      6 H                     0.217373       0.021306
      7 C                    -0.039211       0.369738
      8 S                     0.256731      -0.029574
      9 C                    -0.127465      -0.246494
     10 C                    -0.112073      -0.034901
     11 C                    -0.161539       0.440729
     12 H                     0.225011      -0.033904
     13 H                     0.241173       0.013099
     14 H                     0.225011      -0.033904
     15 H                     0.241173       0.013099
     16 H                     0.217373       0.021306
  --------------------------------------------------------
  Sum of atomic charges =     1.000000
  Sum of spin   charges =     1.000000

 -----------------------------------------------------------------
                    Cartesian Multipole Moments
 -----------------------------------------------------------------
    Charge (ESU x 10^10)
                 4.8032
    Dipole Moment (Debye)
         X      -0.0000      Y      -0.0000      Z      -0.7111
       Tot       0.7111
    Quadrupole Moments (Debye-Ang)
        XX     -22.4596     XY       1.6921     YY     -71.0813
        XZ      -0.0000     YZ       0.0000     ZZ     -57.7760
    Octopole Moments (Debye-Ang^2)
       XXX      -0.0000    XXY      -0.0000    XYY      -0.0000
[...]
 ******************************

                       Coordinates (Angstroms)
     ATOM                X               Y               Z
      1  S         1.5997736185   -0.3666444686    1.1118814797
      2  C         3.0332275553   -0.0083144387    0.3514819782
      3  C         2.8879087312    0.3949246073   -0.9626377239
      4  C         1.5766791504    0.3841786088   -1.3514670200
      5  C         0.7027206915   -0.0374184463   -0.3489715568
      6  H         1.2315515801    0.6878005624   -2.3241394820
      7  C        -0.7027206915    0.0374184463   -0.3489715568
      8  S        -1.5997736185    0.3666444686    1.1118814797
      9  C        -1.5766791504   -0.3841786088   -1.3514670200
     10  C        -3.0332275553    0.0083144387    0.3514819782
     11  C        -2.8879087312   -0.3949246073   -0.9626377239
     12  H        -3.7160036563   -0.6894801537   -1.5787171098
     13  H         3.9633310073   -0.1209102612    0.8788077894
     14  H         3.7160036563    0.6894801537   -1.5787171098
     15  H        -3.9633310073    0.1209102612    0.8788077894
     16  H        -1.2315515801   -0.6878005624   -2.3241394820

Z-matrix Print:
$molecule
1 2
S 
C  1 1.661745
H  2 1.075101 1 119.950514
C  2 1.382255 1 114.032343 3 -178.678760 0
H  4 1.073340 2 122.999910 1 -178.082305 0
C  4 1.367709 2 111.640217 1 1.096564 0
H  6 1.075821 4 124.220122 2 -178.196535 0
C  6 1.395186 4 113.493283 2 0.551505 0
C  8 1.407432 6 127.550181 4 -169.097584 0
C  9 1.395186 8 127.550181 6 -50.000000 0
H  10 1.075821 9 122.274326 8 9.678028 0
C  10 1.367709 9 113.493283 8 -169.097584 0
H  12 1.073340 10 125.354249 9 179.707134 0
C  12 1.382255 10 111.640217 9 0.551505 0
H  14 1.075101 12 126.002240 10 -177.488330 0
S  14 1.661745 12 114.032343 10 1.096564 0
$end

 
 --------------------------------------------------------------
             Orbital Energies (a.u.) and Symmetries
 --------------------------------------------------------------
 
 Alpha MOs, Unrestricted
 -- Occupied --                  
-92.160 -92.160 -11.477 -11.476 -11.451 -11.451 -11.435 -11.435
  1 A     1 B     2 A     2 B     3 B     3 A     4 B     4 A                  
-11.402 -11.402  -9.162  -9.162  -6.843  -6.843  -6.843  -6.843
  5 A     5 B     6 B     6 A     7 B     7 A     8 A     8 B                  
 -6.840  -6.840  -1.395  -1.364  -1.231  -1.191  -1.183  -1.129
  9 A     9 B    10 A    10 B    11 A    12 A    11 B    12 B                  
 -1.000  -0.959  -0.928  -0.905  -0.890  -0.822  -0.753  -0.753
 13 A    14 A    13 B    14 B    15 A    15 B    16 B    16 A                  
 -0.748  -0.736  -0.730  -0.710  -0.692  -0.667  -0.646  -0.577
 17 A    17 B    18 A    19 A    18 B    20 A    19 B    20 B                  
 -0.536  -0.521  -0.482
 21 A    21 B    22 A                                                          
 -- Virtual --                   
 -0.120  -0.040  -0.005   0.015   0.017   0.023   0.038   0.043
 22 B    23 A    24 A    25 A    23 B    24 B    26 A    27 A                  
  0.044   0.064   0.070   0.078   0.106   0.124   0.143   0.188
 25 B    26 B    28 A    29 A    27 B    28 B    30 A    31 A                  
  0.191   0.202   0.205   0.217   0.221   0.241   0.261   0.265
 29 B    32 A    30 B    31 B    33 A    32 B    33 B    34 A                  
  0.281   0.285   0.297   0.303   0.311   0.321   0.331   0.350
 35 A    34 B    36 A    35 B    36 B    37 A    37 B    38 A                  
  0.362   0.367   0.375   0.378   0.384   0.391   0.395   0.401
 38 B    39 A    40 A    39 B    41 A    42 A    40 B    41 B                  
  0.424   0.425   0.435   0.438   0.451   0.455   0.463   0.470
 43 A    42 B    43 B    44 A    45 A    44 B    46 A    47 A                  
  0.472   0.477   0.505   0.513   0.513   0.531   0.558   0.561
 45 B    46 B    48 A    47 B    49 A    48 B    49 B    50 A                  
  0.575   0.577   0.617   0.619   0.643   0.644   0.679   0.685
 50 B    51 A    52 A    51 B    52 B    53 A    54 A    53 B                  
  0.691   0.707   0.728   0.729   0.751   0.752   0.782   0.789
 55 A    54 B    55 B    56 A    56 B    57 A    57 B    58 A                  
  0.806   0.809   0.842   0.850   0.871   0.878   0.904   0.910
 58 B    59 B    59 A    60 A    61 A    60 B    61 B    62 A                  
  0.915   0.921   0.941   0.946   0.960   0.977   0.997   1.003
 63 A    62 B    64 A    63 B    64 B    65 B    65 A    66 A                  
  1.027   1.034   1.044   1.055   1.071   1.093   1.098   1.110
 66 B    67 A    67 B    68 A    68 B    69 A    69 B    70 B                  
  1.137   1.144   1.156   1.182   1.211   1.218   1.244   1.255
 70 A    71 A    71 B    72 A    72 B    73 A    74 A    73 B                  
  1.281   1.297   1.309   1.327   1.343   1.349   1.360   1.361
 74 B    75 A    75 B    76 A    77 A    76 B    77 B    78 A                  
  1.375   1.385   1.400   1.404   1.420   1.424   1.466   1.477
 79 A    78 B    80 A    79 B    80 B    81 A    81 B    82 A                  
  1.497   1.500   1.515   1.548   1.587   1.598   1.632   1.652
 82 B    83 A    83 B    84 A    84 B    85 A    85 B    86 A                  
  1.657   1.701   1.708   1.720   1.730   1.740   1.765   1.785
 86 B    87 B    87 A    88 A    88 B    89 B    89 A    90 B                  
  1.796   1.805   1.886   1.909   1.911   1.938   1.951   1.997
 90 A    91 A    91 B    92 A    92 B    93 A    93 B    94 A                  
  2.002   2.017   2.024   2.039   2.059   2.071   2.080   2.103
 94 B    95 B    95 A    96 A    96 B    97 B    97 A    98 B                  
  2.109   2.127   2.130   2.208   2.242   2.266   2.272   2.298
 98 A    99 A    99 B   100 B   100 A   101 A   101 B   102 A                  
  2.299   2.321   2.329   2.354   2.367   2.374   2.402   2.415
102 B   103 A   103 B   104 A   104 B   105 A   105 B   106 B                  
  2.421   2.484   2.494   2.504   2.538   2.557   2.566   2.568
106 A   107 A   107 B   108 A   109 A   108 B   109 B   110 A                  
  2.596   2.598   2.628   2.634   2.644   2.693   2.722   2.727
111 A   110 B   111 B   112 A   112 B   113 A   113 B   114 A                  
  2.732   2.747   2.762   2.786   2.821   2.825   2.829   2.843
114 B   115 A   115 B   116 A   117 A   118 A   116 B   117 B                  
  2.851   2.883   2.905   2.947   2.979   2.986   3.007   3.010
119 A   118 B   119 B   120 A   120 B   121 A   122 A   121 B                  
  3.044   3.048   3.051   3.053   3.064   3.082   3.083   3.093
122 B   123 B   123 A   124 B   124 A   125 A   125 B   126 B                  
  3.126   3.136   3.136   3.145   3.171   3.174   3.203   3.226
126 A   127 B   127 A   128 A   128 B   129 A   130 A   131 A                  
  3.231   3.244   3.247   3.267   3.272   3.282   3.283   3.296
129 B   132 A   130 B   131 B   133 A   132 B   134 A   135 A                  
  3.313   3.324   3.328   3.331   3.337   3.339   3.358   3.368
133 B   134 B   136 A   135 B   137 A   136 B   138 A   137 B                  
  3.380   3.392   3.421   3.430   3.436   3.449   3.452   3.465
138 B   139 A   139 B   140 A   140 B   141 A   141 B   142 B                  
  3.491   3.522   3.542   3.564   3.564   3.578   3.611   3.618
142 A   143 B   143 A   144 A   144 B   145 A   146 A   145 B                  
  3.621   3.656   3.704   3.721   3.726   3.759   3.765   3.768
147 A   146 B   147 B   148 A   148 B   149 B   149 A   150 B                  
  3.781   3.811   3.831   3.831   3.863   3.873   3.878   3.888
150 A   151 A   152 A   151 B   152 B   153 A   154 A   153 B                  
  3.918   3.941   3.961   3.969   4.002   4.014   4.024   4.032
154 B   155 A   156 A   155 B   157 A   156 B   157 B   158 A                  
  4.039   4.040   4.059   4.059   4.115   4.122   4.131   4.150
159 A   158 B   160 A   159 B   160 B   161 A   161 B   162 A                  
  4.179   4.208   4.249   4.277   4.305   4.336   4.339   4.345
162 B   163 A   163 B   164 A   165 A   166 A   164 B   165 B                  
  4.358   4.393   4.424   4.447   4.474   4.507   4.509   4.511
167 A   166 B   168 A   167 B   169 A   168 B   170 A   169 B                  
  4.544   4.560   4.580   4.609   4.645   4.650   4.689   4.697
171 A   170 B   171 B   172 A   172 B   173 A   173 B   174 A                  
  4.752   4.780   4.806   4.839   4.858   4.864   4.904   4.920
175 A   174 B   175 B   176 A   176 B   177 A   178 A   177 B                  
  4.923   4.963   5.020   5.042   5.083   5.107   5.176   5.207
179 A   178 B   179 B   180 A   180 B   181 A   181 B   182 A                  
  5.244   5.248   5.258   5.310   5.416   5.418   5.474   5.509
183 A   182 B   183 B   184 A   184 B   185 A   185 B   186 A                  
  5.668   5.702   5.861   5.861   5.944   5.955   6.022   6.047
187 A   186 B   187 B   188 A   189 A   188 B   190 A   189 B                  
  6.212   6.365   6.408   6.550   6.590   9.256  10.764  11.768
190 B   191 A   191 B   192 A   192 B   193 A   193 B   194 A                  
 12.551  13.110  13.473  14.570  14.824
194 B   195 A   195 B   196 A   196 B                                          
 
 Beta MOs, Unrestricted
 -- Occupied --                  
-92.162 -92.162 -11.477 -11.476 -11.439 -11.439 -11.427 -11.427
  1 A     1 B     2 A     2 B     3 B     3 A     4 B     4 A                  
-11.409 -11.409  -9.164  -9.164  -6.845  -6.845  -6.844  -6.844
  5 B     5 A     6 B     6 A     7 B     7 A     8 B     8 A                  
 -6.844  -6.844  -1.383  -1.349  -1.221  -1.186  -1.174  -1.106
  9 B     9 A    10 A    10 B    11 A    12 A    11 B    12 B                  
 -0.991  -0.951  -0.917  -0.900  -0.887  -0.819  -0.751  -0.742
 13 A    14 A    13 B    14 B    15 A    15 B    16 A    17 A                  
 -0.736  -0.727  -0.722  -0.681  -0.668  -0.661  -0.645  -0.537
 16 B    18 A    17 B    18 B    19 A    20 A    19 B    20 B                  
 -0.535  -0.510
 21 A    21 B                                                                  
 -- Virtual --                   
 -0.185  -0.055  -0.021   0.008   0.020   0.024   0.034   0.043
 22 A    22 B    23 A    24 A    25 A    23 B    24 B    26 A                  
  0.046   0.056   0.068   0.072   0.084   0.110   0.126   0.145
 25 B    27 A    26 B    28 A    29 A    27 B    28 B    30 A                  
  0.196   0.196   0.203   0.209   0.218   0.222   0.243   0.270
 29 B    31 A    32 A    30 B    31 B    33 A    32 B    33 B                  
  0.271   0.286   0.292   0.300   0.310   0.317   0.320   0.327
 34 A    35 A    34 B    36 A    35 B    36 B    37 A    37 B                  
  0.356   0.377   0.377   0.388   0.389   0.398   0.400   0.407
 38 A    39 A    38 B    40 A    39 B    41 A    40 B    42 A                  
  0.410   0.427   0.429   0.437   0.443   0.458   0.461   0.469
 41 B    42 B    43 A    43 B    44 A    45 A    44 B    46 A                  
  0.475   0.476   0.484   0.512   0.515   0.518   0.536   0.562
 47 A    45 B    46 B    48 A    49 A    47 B    48 B    49 B                  
  0.564   0.578   0.580   0.619   0.620   0.645   0.646   0.682
 50 A    51 A    50 B    52 A    51 B    53 A    52 B    54 A                  
  0.687   0.695   0.714   0.733   0.734   0.753   0.755   0.788
 53 B    55 A    54 B    55 B    56 A    56 B    57 A    57 B                  
  0.792   0.810   0.812   0.845   0.854   0.874   0.881   0.909
 58 A    58 B    59 B    59 A    60 A    61 A    60 B    61 B                  
  0.916   0.918   0.924   0.948   0.951   0.964   0.979   0.998
 62 A    63 A    62 B    63 B    64 A    64 B    65 B    65 A                  
  1.007   1.032   1.037   1.046   1.058   1.072   1.097   1.098
 66 A    66 B    67 A    67 B    68 A    68 B    69 B    69 A                  
  1.116   1.138   1.152   1.163   1.184   1.218   1.226   1.254
 70 B    70 A    71 A    71 B    72 A    72 B    73 A    74 A                  
  1.257   1.287   1.302   1.314   1.328   1.347   1.352   1.363
 73 B    74 B    75 A    75 B    76 A    77 A    76 B    78 A                  
  1.368   1.379   1.385   1.401   1.407   1.423   1.427   1.473
 77 B    79 A    78 B    80 A    79 B    80 B    81 A    81 B                  
  1.481   1.500   1.504   1.516   1.552   1.590   1.599   1.633
 82 A    82 B    83 A    83 B    84 A    84 B    85 A    85 B                  
  1.654   1.657   1.704   1.708   1.719   1.730   1.740   1.767
 86 A    86 B    87 B    87 A    88 A    88 B    89 B    89 A                  
  1.784   1.797   1.807   1.886   1.908   1.912   1.940   1.952
 90 B    90 A    91 A    91 B    92 A    92 B    93 A    93 B                  
  1.996   2.001   2.017   2.025   2.040   2.058   2.073   2.080
 94 A    94 B    95 B    95 A    96 A    96 B    97 B    97 A                  
  2.117   2.122   2.132   2.132   2.218   2.240   2.265   2.269
 98 B    98 A    99 A    99 B   100 B   100 A   101 B   101 A                  
  2.304   2.308   2.324   2.331   2.356   2.378   2.391   2.406
102 A   102 B   103 A   103 B   104 A   104 B   105 A   105 B                  
  2.424   2.427   2.487   2.499   2.506   2.538   2.559   2.571
106 B   106 A   107 A   107 B   108 A   109 A   108 B   109 B                  
  2.577   2.603   2.605   2.635   2.640   2.646   2.701   2.723
110 A   111 A   110 B   111 B   112 A   112 B   113 A   113 B                  
  2.732   2.741   2.752   2.771   2.790   2.824   2.832   2.833
114 A   114 B   115 A   115 B   116 A   117 A   116 B   118 A                  
  2.852   2.859   2.888   2.906   2.954   2.983   2.992   3.007
117 B   119 A   118 B   119 B   120 A   120 B   121 A   122 A                  
  3.020   3.048   3.051   3.056   3.058   3.068   3.088   3.092
121 B   122 B   123 B   124 B   123 A   124 A   125 A   125 B                  
  3.099   3.133   3.141   3.147   3.150   3.177   3.180   3.207
126 B   126 A   127 B   127 A   128 A   128 B   129 A   130 A                  
  3.228   3.232   3.248   3.249   3.274   3.276   3.287   3.288
131 A   129 B   132 A   130 B   133 A   131 B   132 B   134 A                  
  3.300   3.316   3.333   3.336   3.339   3.344   3.350   3.363
135 A   133 B   134 B   136 A   135 B   136 B   137 A   138 A                  
  3.371   3.384   3.396   3.424   3.433   3.444   3.453   3.454
137 B   138 B   139 A   139 B   140 A   140 B   141 A   141 B                  
  3.470   3.494   3.527   3.547   3.568   3.568   3.582   3.616
142 B   142 A   143 B   143 A   144 A   144 B   145 A   146 A                  
  3.623   3.625   3.658   3.708   3.727   3.729   3.763   3.766
145 B   147 A   146 B   147 B   148 A   148 B   149 B   149 A                  
  3.769   3.784   3.814   3.833   3.836   3.866   3.875   3.882
150 B   150 A   151 A   152 A   151 B   152 B   153 A   154 A                  
  3.890   3.920   3.943   3.964   3.973   4.003   4.015   4.027
153 B   154 B   155 A   156 A   155 B   157 A   156 B   157 B                  
  4.034   4.040   4.041   4.061   4.061   4.116   4.123   4.132
158 A   159 A   158 B   160 A   159 B   160 B   161 A   161 B                  
  4.151   4.181   4.209   4.250   4.278   4.307   4.337   4.340
162 A   162 B   163 A   163 B   164 A   165 A   166 A   164 B                  
  4.346   4.360   4.395   4.428   4.450   4.476   4.509   4.511
165 B   167 A   166 B   168 A   167 B   169 A   168 B   170 A                  
  4.512   4.548   4.562   4.581   4.611   4.646   4.650   4.689
169 B   171 A   170 B   171 B   172 A   172 B   173 A   173 B                  
  4.699   4.754   4.782   4.809   4.843   4.860   4.865   4.906
174 A   175 A   174 B   175 B   176 A   176 B   177 A   178 A                  
  4.922   4.924   4.964   5.021   5.043   5.090   5.114   5.177
177 B   179 A   178 B   179 B   180 A   180 B   181 A   181 B                  
  5.209   5.246   5.249   5.259   5.310   5.417   5.419   5.475
182 A   183 A   182 B   183 B   184 A   184 B   185 A   185 B                  
  5.510   5.669   5.703   5.862   5.862   5.946   5.955   6.022
186 A   187 A   186 B   187 B   188 A   189 A   188 B   190 A                  
  6.049   6.212   6.366   6.409   6.550   6.591   9.258  10.768
189 B   190 B   191 A   191 B   192 A   192 B   193 A   193 B                  
 11.772  12.556  13.114  13.474  14.571  14.826
194 A   194 B   195 A   195 B   196 A   196 B                                  
 --------------------------------------------------------------
 
          Ground-State Mulliken Net Atomic Charges

     Atom                 Charge (a.u.)    Spin (a.u.)
  --------------------------------------------------------
      1 S                     0.245639      -0.037055
      2 C                    -0.109514      -0.001806
      3 C                    -0.164917       0.388926
      4 C                    -0.124870      -0.195333
      5 C                    -0.026944       0.346355
      6 H                     0.214890       0.019023
      7 C                    -0.026944       0.346355
      8 S                     0.245639      -0.037055
      9 C                    -0.124870      -0.195333
     10 C                    -0.109514      -0.001806
     11 C                    -0.164917       0.388926
     12 H                     0.225374      -0.031175
     13 H                     0.240342       0.011065
     14 H                     0.225374      -0.031175
     15 H                     0.240342       0.011065
     16 H                     0.214890       0.019023
  --------------------------------------------------------
  Sum of atomic charges =     1.000000
  Sum of spin   charges =     1.000000

 -----------------------------------------------------------------
                    Cartesian Multipole Moments
 -----------------------------------------------------------------
    Charge (ESU x 10^10)
                 4.8032
    Dipole Moment (Debye)
         X       0.0000      Y       0.0000      Z      -0.7914
       Tot       0.7914
    Quadrupole Moments (Debye-Ang)
        XX     -22.7202     XY       2.3124     YY     -71.7506
        XZ       0.0000     YZ       0.0000     ZZ     -57.0957
    Octopole Moments (Debye-Ang^2)
       XXX       0.0000    XXY       0.0000    XYY       0.0000
       YYY      -0.0000    XXZ       4.5476    XYZ     -12.0981
       YYZ       0.1390    XZZ       0.0000    YZZ       0.0000
       ZZZ     -13.5821
    Hexadecapole Moments (Debye-Ang^3)
      XXXX   -1259.1546   XXXY      11.4740   XXYY    -354.6720
      XYYY     -23.0480   YYYY    -133.1009   XXXZ       0.0000
      XXYZ       0.0000   XYYZ       0.0000   YYYZ       0.0000
      XXZZ    -325.1952   XYZZ       7.8027   YYZZ    -103.5424
      XZZZ       0.0000   YZZZ       0.0000   ZZZZ    -455.3904
 -----------------------------------------------------------------
Archival summary:
1\1\nid01565\OPT\MP2\BasisUnspecified\286(1+,2)\TueMar712:01:222017TueMar712:01:222017\0\\#,OPT,MP2,BasisUnspecified,\\1,2\S\C,1,1.66175\H,2,1.0751,1,119.951\C,2,1.38226,1,114.032,3,-178.679,0\H,4,1.07334,2,123,1,-178.082,0\C,4,1.36771,2,111.64,1,1.09656,0\H,6,1.07582,4,124.22,2,-178.197,0\C,6,1.39519,4,113.493,2,0.551505,0\C,8,1.40743,6,127.55,4,-169.098,0\C,9,1.39519,8,127.55,6,-50,0\H,10,1.07582,9,122.274,8,9.67803,0\C,10,1.36771,9,113.493,8,-169.098,0\H,12,1.07334,10,125.354,9,179.707,0\C,12,1.38226,10,111.64,9,0.551505,0\H,14,1.0751,12,126.002,10,-177.488,0\S,14,1.66175,12,114.032,10,1.09656,0\\HF=-1101.35714\MP2=-1103.10132\\@

 Total job time:  24902.79s(wall), 121697.85s(cpu) 
 Tue Mar  7 12:01:22 2017

        *************************************************************
        *                                                           *
        *  Thank you very much for using Q-Chem.  Have a nice day.  *
        *                                                           *
        *************************************************************


0 sent ACK to 0 
now end server 0 ... 
