srun -N 1 --ntasks-per-node 1 --cpus-per-task 64 --cpu_bind=cores --nodelist nid01554 /global/project/projectdirs/jcesr/qchem/qc44/cnl_qc441/dist/exe/qcprog.cori.haswell.exe .pt_mp2_hole_-110.0.in.59508.qcin.1 /dev/shm/eg_qchem/qchem59508/
Process 0 of 1 is on nid01554 - thread support 0
initial socket setup ...start
initial socket setup ...done 
now start server 0 ... 
nid01554 10.128.6
Q-Chem Developer Version! Running on 10.128.6.*
                  Welcome to Q-Chem
     A Quantum Leap Into The Future Of Chemistry


 Q-Chem 4.4, Q-Chem, Inc., Pleasanton, CA (2016)

 Y. Shao,  Z. Gan,  E. Epifanovsky,  A. T. B. Gilbert,  M. Wormit,  
 J. Kussmann,  A. W. Lange,  A. Behn,  J. Deng,  X. Feng,  D. Ghosh,  
 M. Goldey,  P. R. Horn,  L. D. Jacobson,  I. Kaliman,  F.Rob,  
 R. Z. Khaliullin,  T. Kus,  A. Landau,  J. Liu,  E. I. Proynov,  Y. M. Rhee,  
 R. M. Richard,  M. A. Rohrdanz,  R. P. Steele,  E. J. Sundstrom,  
 H. L. Woodcock III,  P. M. Zimmerman,  D. Zuev,  B. Albrecht,  E. Alguire,  
 B. Austin,  S. A. Baeppler,  G. J. O. Beran,  Y. A. Bernard,  E. Berquist,  
 K. Brandhorst,  K. B. Bravaya,  S. T. Brown,  D. Casanova,  C.-M. Chang,  
 Y. Chen,  S. H. Chien,  K. D. Closser,  M. P. Coons,  D. L. Crittenden,  
 S. Dasgupta,  M. Diedenhofen,  R. A. DiStasio Jr.,  H. Do,  A. D. Dutoi,  
 R. G. Edgar,  P.-T. Fang,  S. Fatehi,  Q. Feng,  L. Fusti-Molnar,  
 A. Ghysels,  A. Golubeva-Zadorozhnaya,  J. Gomes,  A. Gunina,  
 M. W. D. Hanson-Heine,  P. H. P. Harbach,  A. W. Hauser,  E. G. Hohenstein,  
 Z. C. Holden,  K. Hui,  T.-C. Jagau,  H. Ji,  B. Kaduk,  K. Khistyaev,  
 Jaehoon Kim,  Jihan Kim,  R. A. King,  P. Klunzinger,  D. Kosenkov,  
 T. Kowalczyk,  C. M. Krauter,  A. Kunitsa,  K. U. Lao,  A. Laurent,  
 K. V. Lawler,  D. Lefrancois,  S. Lehtola,  S. V. Levchenko,  C. Y. Lin,  
 Y.-S. Lin,  F. Liu,  E. Livshits,  R. C. Lochan,  A. Luenser,  P. Manohar,  
 S. F. Manzer,  S.-P. Mao,  Y. Mao,  N. Mardirossian,  A. V. Marenich,  
 L. A. Martinez-Martinez,  S. A. Maurer,  N. J. Mayhall,  J.-M. Mewes,  
 A. F. Morrison,  K. Nanda,  C. M. Oana,  R. Olivares-Amaya,  D. P. O'Neill,  
 J. A. Parkhill,  T. M. Perrine,  R. Peverati,  P. A. Pieniazek,  F. Plasser,  
 A. Prociuk,  D. R. Rehn,  E. Rosta,  N. J. Russ,  N. Sergueev,  
 S. M. Sharada,  S. Sharma,  D. W. Small,  A. Sodt,  T. Stauch,  T. Stein,  
 D. Stuck,  Y.-C. Su,  A. J. W. Thom,  T. Tsuchimochi,  L. Vogt,  O. Vydrov,  
 T. Wang,  M. A. Watson,  J. Wenzel,  A. White,  C. F. Williams,  
 V. Vanovschi,  S. Yeganeh,  S. R. Yost,  Z.-Q. You,  I. Y. Zhang,  X. Zhang,  
 Y. Zhao,  B. R. Brooks,  G. K. L. Chan,  D. M. Chipman,  C. J. Cramer,  
 W. A. Goddard III,  M. S. Gordon,  W. J. Hehre,  A. Klamt,  
 H. F. Schaefer III,  M. W. Schmidt,  C. D. Sherrill,  D. G. Truhlar,  
 A. Warshel,  X. Xu,  A. Aspuru-Guzik,  R. Baer,  A. T. Bell,  N. A. Besley,  
 J.-D. Chai,  A. Dreuw,  B. D. Dunietz,  T. R. Furlani,  S. R. Gwaltney,  
 C.-P. Hsu,  Y. Jung,  J. Kong,  D. S. Lambrecht,  W. Liang,  C. Ochsenfeld,  
 V. A. Rassolov,  L. V. Slipchenko,  J. E. Subotnik,  T. Van Voorhis,  
 J. M. Herbert,  A. I. Krylov,  P. M. W. Gill,  M. Head-Gordon

 Contributors to earlier versions of Q-Chem not listed above: 
 R. D. Adamson,  J. Baker,  E. F. C. Byrd,  A. K. Chakraborty,  C.-L. Cheng,  
 H. Dachsel,  R. J. Doerksen,  G. Hawkins,  A. Heyden,  S. Hirata,  
 G. Kedziora,  F. J. Keil,  C. Kelley,  P. P. Korambath,  W. Kurlancheek,  
 A. M. Lee,  M. S. Lee,  D. Liotard,  I. Lotan,  P. E. Maslen,  N. Nair,  
 D. Neuhauser,  R. Olson,  B. Peters,  J. Ritchie,  N. E. Schultz,  
 N. Shenvi,  A. C. Simmonett,  K. S. Thanthiriwatte,  Q. Wu,  W. Zhang

 Please cite Q-Chem as follows:
 Y. Shao et al., Mol. Phys. 113, 184-215 (2015)
 DOI: 10.1080/00268976.2014.952696

 Q-Chem 4.4.1 for Intel X86 EM64T Linux

 Parts of Q-Chem use Armadillo 5.200.1 (Boston Tea Smuggler).
 http://arma.sourceforge.net/

 Q-Chem begins on Tue Mar  7 05:06:18 2017  

Host: nid01545
0

     Scratch files written to /dev/shm/eg_qchem/qchem59508//
 Parallel job on  1  processors

Checking the input file for inconsistencies... 	...done.

--------------------------------------------------------------
User input:
--------------------------------------------------------------
$molecule
 1  2
 S           1.81042700       -1.22909900       -0.13996800
 C           3.10211600       -0.18861200       -0.13982200
 C           2.74845300        1.15163900       -0.14006900
 C           1.39169900        1.31613900       -0.14029100
 C           0.68906700        0.11310500       -0.14015500
 H           0.90454800        2.27578700       -0.14040700
 C          -0.68906700       -0.11310500       -0.14015500
 S          -1.64988181        0.25101323       -1.55550396
 C          -1.50611201       -0.61910322        0.86850044
 C          -3.02875334       -0.25833365       -0.78715979
 C          -2.82216366       -0.70257325        0.50949829
 H          -3.61585255       -1.06336940        1.13566231
 H           4.10439600       -0.57731800       -0.13934700
 H           3.47107900        1.94537000       -0.13983300
 H          -3.97290287       -0.22377461       -1.30003904
 H          -1.12831743       -0.91252165        1.83256334
$end


$rem
         jobtype = opt
        exchange = hf
           basis = cc-pvtz
  max_scf_cycles = 100
      mem_static = 6200
       mem_total = 62000
          method = mp2
$end


$opt
CONSTRAINT
tors 4 5 7 9 -110.0
ENDCONSTRAINT
$end

--------------------------------------------------------------
 Atom  11: ( -2.7999330991, -0.9398549485,  0.6022406694)
         ->( -2.7999330948, -0.9398549535,  0.6022406713)
 Atom  16: ( -1.0258491279, -1.8695587824,  1.4096880996)
         ->( -1.0258491231, -1.8695587811,  1.4096880958)
 Atom  15: ( -4.0549140739,  0.4862210024, -0.5019352002)
         ->( -4.0549140695,  0.4862210063, -0.5019352017)
 ----------------------------------------------------------------
             Standard Nuclear Orientation (Angstroms)
    I     Atom           X                Y                Z
 ----------------------------------------------------------------
    1      S       1.7349641570    -1.0158504851    -0.6582606617
    2      C       3.0783290257    -0.1635755408    -0.1891424038
    3      C       2.7999330948     0.9398549535     0.6022406713
    4      C       1.4580898448     1.0788914801     0.8212549460
    5      C       0.6923074272     0.0911948303     0.2056128682
    6      H       1.0258491231     1.8695587811     1.4096880958
    7      C      -0.6923074279    -0.0911948319     0.2056128679
    8      S      -1.7349641555     1.0158504856    -0.6582606625
    9      C      -1.4580898429    -1.0788914789     0.8212549475
   10      C      -3.0783290255     0.1635755364    -0.1891424034
   11      C      -2.7999330948    -0.9398549535     0.6022406713
   12      H      -3.5631268132    -1.5906373806     0.9846212084
   13      H       4.0549140695    -0.4862210063    -0.5019352017
   14      H       3.5631268155     1.5906373760     0.9846212085
   15      H      -4.0549140695     0.4862210063    -0.5019352017
   16      H      -1.0258491231    -1.8695587811     1.4096880958
 ----------------------------------------------------------------
 Molecular Point Group                 C2    NOp =  2
 Largest Abelian Subgroup              C2    NOp =  2
 Nuclear Repulsion Energy =   638.9075108174 hartrees
 There are       43 alpha and       42 beta electrons
 Requested basis set is cc-pVTZ
 There are 140 shells and 392 basis functions

 Total QAlloc Memory Limit  62000 MB
 Mega-Array Size      6061 MB
 MEM_STATIC part      6200 MB
 A cutoff of  1.0D-11 yielded   8083 shell pairs
 There are     62871 function pairs (     81928 Cartesian)
 
 -------------------------------------------------------
 OpenMP Integral Computing Module                       
 Release: version 1.0, May 2013, Q-Chem Inc. Pittsburgh 
 -------------------------------------------------------
 Integral Job Info:
 Integral job number is                      11
 Integral operator is                         1
 short-range coefficients                     0
 long-range coefficients              100000000
 Omega coefficients                           0
 if combine SR and LR in K                    0
 Integral screening is                        0
 Integral computing path is                   2
 max size of driver memory is            800000
 size of driver memory is                776718
 size of scratch memory is             26248924
 max col of scratch BK array              10000
 max len of scratch array in speh3          662
 max len of scratch index in speh4           32
 max int batch size is                      520
 min int batch size is                       52
 fixed nKL is                                52
 max L of basis functions is                  3
 order of int derivative is                   0
 number of shells is                        140
 number of basis is                         448
 number of cartesian basis is               448
 number of contracted shell pairs          8083
 number of primitive shell pairs          28693
 maxK2 (contraction) of shell pair          121
 max number of K2 of shell pair               1
 max number of CS2 of shell pair           1070
 max number of PS2 of shell pair           3101
 mem total for path MDJ                  225820
 -------------------------------------------------------
 Smallest overlap matrix eigenvalue = 8.14E-05

 Scale SEOQF with 1.000000e-01/1.000000e-01/1.000000e+00

 Standard Electronic Orientation quadrupole field applied
 Nucleus-field energy     =    -0.0000000169 hartrees
 Guess from superposition of atomic densities
 Warning:  Energy on first SCF cycle will be non-variational
 An unrestricted Hartree-Fock SCF calculation will be
 performed using Pulay DIIS extrapolation
 SCF converges when DIIS error is below 1.0E-08
 using 16 threads for integral computing 
 ---------------------------------------
  Cycle       Energy         DIIS Error
 ---------------------------------------
    1   -1106.1625412915      3.04E-02
    2   -1086.1605801394      2.01E-02
    3   -1092.2801216752      1.21E-02
    4   -1098.5433380120      6.37E-03
    5   -1101.1188556708      2.97E-03
    6   -1101.2976376268      1.04E-03
    7   -1101.3227940663      2.43E-04
    8   -1101.3259496301      8.93E-05
    9   -1101.3275188831      4.02E-05
   10   -1101.3282075790      2.65E-05
   11   -1101.3287642841      1.92E-05
   12   -1101.3293102621      1.41E-05
   13   -1101.3298536035      1.04E-05
   14   -1101.3302044482      7.67E-06
   15   -1101.3303376011      5.16E-06
   16   -1101.3303797109      2.70E-06
   17   -1101.3303949526      1.41E-06
   18   -1101.3303985991      4.60E-07
   19   -1101.3303987420      2.14E-07
   20   -1101.3303987867      7.97E-08
   21   -1101.3303987980      4.20E-08
   22   -1101.3303988032      1.82E-08
   23   -1101.3303988046      8.08E-09 Convergence criterion met
 ---------------------------------------
 <S^2> = 0.9986
 SCF time:  CPU 1066.92 s  wall 66.75 s
 SCF   energy in the final basis set = -1101.3303988046
 Total energy in the final basis set = -1101.3303988046
 
 Components of the MP2 correlation energy:
        aaaa  correlation energy =        -0.2343638027 au
        abab  correlation energy =        -1.3072950149 au
        bbbb  correlation energy =        -0.2138458805 au
        non-Brillouin singles    =        -0.0000000000 au

 Total  MP2   correlation energy =        -1.7555046981 au
        MP2         total energy =     -1103.0859035027 au

  Entering Z-vector solver.
   1         0           1      0.000541    0.000541
   2         0           1      0.000497    0.000497
   3         0           1      0.000394    0.000394
   4         0           1      0.000350    0.000350
   5         0           1      0.000150    0.000150
   6         0           1      0.000075    0.000075
   7         0           1      0.000042    0.000042
   8         0           1      0.000025    0.000025
   9         0           1      0.000013    0.000013
  10         0           1      0.000006    0.000006
  11         0           1      0.000003    0.000003
  12         0           1      0.000001    0.000001
  13         1           0      0.000000    0.000000    Roots Converged
 Warning:  Cannot save MP2 spin density
 
 --------------------------------------------------------------
             Orbital Energies (a.u.) and Symmetries
 --------------------------------------------------------------
 
 Alpha MOs, Unrestricted
 -- Occupied --                  
-92.162 -92.162 -11.474 -11.473 -11.451 -11.451 -11.432 -11.432
  1 B     1 A     2 A     2 B     3 B     3 A     4 B     4 A                  
-11.402 -11.402  -9.164  -9.164  -6.844  -6.844  -6.844  -6.844
  5 A     5 B     6 B     6 A     7 A     7 B     8 B     8 A                  
 -6.842  -6.842  -1.394  -1.363  -1.232  -1.191  -1.181  -1.129
  9 B     9 A    10 A    10 B    11 A    11 B    12 A    12 B                  
 -1.000  -0.951  -0.936  -0.905  -0.886  -0.823  -0.753  -0.749
 13 A    13 B    14 A    14 B    15 A    15 B    16 A    16 B                  
 -0.747  -0.735  -0.733  -0.705  -0.699  -0.661  -0.653  -0.553
 17 A    17 B    18 A    18 B    19 A    19 B    20 A    21 A                  
 -0.534  -0.517  -0.496
 20 B    22 A    21 B                                                          
 -- Virtual --                   
 -0.099  -0.067   0.001   0.001   0.020   0.026   0.026   0.048
 23 A    22 B    24 A    23 B    25 A    24 B    26 A    25 B                  
  0.048   0.052   0.072   0.085   0.090   0.106   0.159   0.164
 26 B    27 A    28 A    27 B    28 B    29 A    29 B    30 A                  
  0.197   0.198   0.210   0.214   0.234   0.241   0.263   0.267
 31 A    30 B    31 B    32 A    33 A    32 B    33 B    34 A                  
  0.272   0.286   0.291   0.295   0.305   0.319   0.331   0.334
 35 A    34 B    36 A    35 B    37 A    36 B    38 A    37 B                  
  0.350   0.351   0.368   0.381   0.384   0.392   0.408   0.409
 38 B    39 A    39 B    40 B    40 A    41 A    41 B    42 A                  
  0.412   0.419   0.439   0.440   0.456   0.457   0.462   0.468
 42 B    43 A    44 A    43 B    44 B    45 A    45 B    46 A                  
  0.487   0.489   0.502   0.507   0.508   0.523   0.532   0.543
 46 B    47 A    47 B    48 B    48 A    49 A    50 A    49 B                  
  0.589   0.601   0.618   0.621   0.640   0.650   0.674   0.681
 50 B    51 A    52 A    51 B    52 B    53 A    53 B    54 B                  
  0.695   0.706   0.716   0.731   0.743   0.762   0.764   0.771
 54 A    55 B    55 A    56 B    56 A    57 B    57 A    58 A                  
  0.816   0.840   0.844   0.849   0.864   0.867   0.893   0.908
 59 A    60 A    58 B    59 B    61 A    60 B    61 B    62 A                  
  0.926   0.938   0.945   0.948   0.960   0.990   1.006   1.015
 62 B    63 A    63 B    64 A    65 A    64 B    66 A    65 B                  
  1.031   1.033   1.051   1.062   1.077   1.089   1.119   1.126
 67 A    66 B    68 A    67 B    68 B    69 A    69 B    70 A                  
  1.142   1.155   1.168   1.177   1.215   1.219   1.245   1.271
 70 B    71 A    72 A    71 B    73 A    72 B    73 B    74 A                  
  1.279   1.289   1.316   1.330   1.332   1.342   1.363   1.377
 74 B    75 B    75 A    76 B    76 A    77 B    77 A    78 B                  
  1.381   1.389   1.390   1.429   1.430   1.448   1.458   1.480
 78 A    79 B    79 A    80 B    80 A    81 A    81 B    82 A                  
  1.505   1.525   1.537   1.573   1.575   1.582   1.602   1.662
 82 B    83 B    83 A    84 A    84 B    85 B    85 A    86 A                  
  1.663   1.685   1.695   1.727   1.733   1.734   1.741   1.773
 86 B    87 A    87 B    88 B    88 A    89 B    89 A    90 B                  
  1.789   1.835   1.875   1.902   1.907   1.948   1.948   1.975
 90 A    91 B    91 A    92 B    92 A    93 A    93 B    94 A                  
  2.002   2.027   2.036   2.046   2.048   2.065   2.077   2.095
 95 A    94 B    95 B    96 B    96 A    97 A    97 B    98 A                  
  2.120   2.139   2.162   2.209   2.236   2.241   2.279   2.294
 98 B    99 B    99 A   100 A   100 B   101 A   102 A   101 B                  
  2.322   2.332   2.341   2.351   2.362   2.382   2.382   2.407
102 B   103 A   103 B   104 B   104 A   105 B   105 A   106 A                  
  2.434   2.479   2.493   2.509   2.531   2.540   2.558   2.580
106 B   107 B   107 A   108 A   108 B   109 B   109 A   110 B                  
  2.588   2.597   2.606   2.619   2.625   2.697   2.709   2.719
110 A   111 A   111 B   112 A   112 B   113 A   114 A   113 B                  
  2.745   2.755   2.760   2.806   2.819   2.831   2.835   2.852
114 B   115 B   115 A   116 A   117 A   116 B   118 A   117 B                  
  2.876   2.881   2.891   2.956   2.981   2.994   2.998   3.008
118 B   119 B   119 A   120 A   120 B   121 B   121 A   122 A                  
  3.045   3.049   3.057   3.068   3.072   3.092   3.093   3.103
123 A   122 B   124 A   125 A   123 B   124 B   126 A   125 B                  
  3.106   3.121   3.157   3.162   3.172   3.186   3.191   3.209
127 A   126 B   128 A   127 B   128 B   129 A   129 B   130 B                  
  3.229   3.250   3.256   3.273   3.283   3.286   3.293   3.305
130 A   131 B   131 A   132 A   132 B   133 A   134 A   133 B                  
  3.313   3.313   3.338   3.338   3.346   3.352   3.357   3.375
135 A   134 B   135 B   136 A   137 A   136 B   137 B   138 A                  
  3.381   3.387   3.416   3.421   3.431   3.445   3.461   3.486
139 A   138 B   140 A   139 B   141 A   140 B   142 A   141 B                  
  3.519   3.533   3.550   3.574   3.580   3.586   3.621   3.624
143 A   142 B   143 B   144 A   145 A   144 B   146 A   145 B                  
  3.629   3.680   3.687   3.699   3.723   3.746   3.751   3.758
147 A   146 B   147 B   148 A   148 B   149 B   149 A   150 A                  
  3.803   3.815   3.825   3.845   3.861   3.870   3.872   3.894
150 B   151 A   151 B   152 A   152 B   153 A   154 A   153 B                  
  3.902   3.949   3.959   3.984   3.999   4.002   4.019   4.028
154 B   155 A   155 B   156 A   156 B   157 A   157 B   158 A                  
  4.047   4.056   4.056   4.108   4.108   4.121   4.150   4.160
158 B   159 A   160 A   159 B   161 A   160 B   161 B   162 A                  
  4.170   4.215   4.218   4.257   4.272   4.317   4.367   4.371
162 B   163 A   164 A   163 B   164 B   165 A   166 A   165 B                  
  4.378   4.396   4.443   4.457   4.474   4.479   4.501   4.531
166 B   167 A   167 B   168 A   168 B   169 A   170 A   169 B                  
  4.565   4.573   4.593   4.604   4.630   4.674   4.691   4.728
170 B   171 B   171 A   172 B   172 A   173 A   173 B   174 B                  
  4.730   4.763   4.835   4.846   4.878   4.891   4.900   4.906
174 A   175 A   175 B   176 A   176 B   177 A   177 B   178 A                  
  4.926   4.948   5.027   5.079   5.084   5.131   5.144   5.222
178 B   179 A   179 B   180 A   180 B   181 B   181 A   182 A                  
  5.232   5.266   5.269   5.344   5.394   5.423   5.488   5.505
182 B   183 B   183 A   184 A   184 B   185 A   186 A   185 B                  
  5.641   5.753   5.820   5.910   5.920   5.967   6.034   6.060
186 B   187 A   187 B   188 A   188 B   189 A   189 B   190 B                  
  6.074   6.369   6.399   6.578   6.594   9.348  10.789  11.874
190 A   191 A   191 B   192 A   192 B   193 A   193 B   194 A                  
 12.563  13.157  13.516  14.662  14.704
194 B   195 A   195 B   196 A   196 B                                          
 
 Beta MOs, Unrestricted
 -- Occupied --                  
-92.163 -92.163 -11.473 -11.472 -11.440 -11.440 -11.426 -11.426
  1 B     1 A     2 A     2 B     3 B     3 A     4 A     4 B                  
-11.408 -11.408  -9.165  -9.165  -6.846  -6.846  -6.845  -6.845
  5 B     5 A     6 B     6 A     7 A     7 B     8 B     8 A                  
 -6.844  -6.844  -1.381  -1.348  -1.219  -1.183  -1.177  -1.105
  9 A     9 B    10 A    10 B    11 A    11 B    12 A    12 B                  
 -0.991  -0.942  -0.924  -0.900  -0.884  -0.818  -0.744  -0.742
 13 A    13 B    14 A    14 B    15 A    15 B    16 A    16 B                  
 -0.739  -0.728  -0.721  -0.679  -0.668  -0.655  -0.649  -0.538
 17 A    17 B    18 A    19 A    18 B    19 B    20 A    21 A                  
 -0.531  -0.472
 20 B    22 A                                                                  
 -- Virtual --                   
 -0.211  -0.049  -0.025   0.007   0.008   0.023   0.028   0.039
 21 B    23 A    22 B    23 B    24 A    25 A    24 B    26 A                  
  0.050   0.055   0.065   0.073   0.088   0.097   0.108   0.159
 25 B    27 A    26 B    28 A    27 B    28 B    29 A    29 B                  
  0.166   0.200   0.201   0.212   0.217   0.236   0.243   0.268
 30 A    31 A    30 B    31 B    32 A    33 A    32 B    33 B                  
  0.273   0.277   0.296   0.299   0.299   0.311   0.323   0.339
 34 A    35 A    34 B    35 B    36 A    37 A    36 B    38 A                  
  0.346   0.352   0.353   0.381   0.390   0.390   0.401   0.415
 37 B    38 B    39 A    39 B    40 A    40 B    41 A    41 B                  
  0.419   0.422   0.424   0.447   0.450   0.458   0.461   0.466
 42 B    42 A    43 A    44 A    43 B    45 A    44 B    45 B                  
  0.472   0.493   0.494   0.503   0.515   0.516   0.527   0.537
 46 A    47 A    46 B    47 B    48 A    48 B    49 A    50 A                  
  0.547   0.592   0.604   0.620   0.624   0.641   0.653   0.677
 49 B    50 B    51 A    52 A    51 B    52 B    53 A    53 B                  
  0.684   0.700   0.710   0.720   0.740   0.744   0.762   0.768
 54 B    54 A    55 B    55 A    56 B    56 A    57 B    57 A                  
  0.775   0.820   0.844   0.851   0.853   0.865   0.869   0.900
 58 A    59 A    60 A    58 B    59 B    61 A    60 B    61 B                  
  0.911   0.928   0.941   0.953   0.954   0.964   0.991   1.011
 62 A    62 B    63 A    63 B    64 A    65 A    64 B    66 A                  
  1.018   1.032   1.037   1.054   1.064   1.081   1.088   1.121
 65 B    67 A    66 B    68 A    67 B    68 B    69 A    69 B                  
  1.133   1.145   1.160   1.174   1.184   1.222   1.223   1.251
 70 A    70 B    71 A    72 A    71 B    73 A    72 B    73 B                  
  1.277   1.283   1.292   1.322   1.335   1.337   1.346   1.363
 74 A    74 B    75 B    75 A    76 A    76 B    77 B    77 A                  
  1.378   1.384   1.391   1.394   1.432   1.434   1.449   1.464
 78 B    78 A    79 B    79 A    80 B    80 A    81 A    81 B                  
  1.483   1.508   1.526   1.543   1.576   1.579   1.587   1.603
 82 A    82 B    83 B    83 A    84 A    84 B    85 B    85 A                  
  1.662   1.663   1.684   1.697   1.730   1.733   1.733   1.742
 86 B    86 A    87 A    87 B    88 B    88 A    89 B    89 A                  
  1.773   1.794   1.836   1.877   1.903   1.908   1.947   1.950
 90 B    90 A    91 B    91 A    92 B    92 A    93 A    93 B                  
  1.975   2.004   2.026   2.040   2.046   2.050   2.065   2.079
 94 A    95 A    94 B    95 B    96 B    96 A    97 A    97 B                  
  2.110   2.129   2.145   2.165   2.215   2.236   2.244   2.279
 98 A    98 B    99 B    99 A   100 A   100 B   101 A   102 A                  
  2.294   2.324   2.334   2.346   2.359   2.370   2.394   2.394
101 B   102 B   103 A   103 B   104 B   104 A   105 B   105 A                  
  2.414   2.442   2.483   2.495   2.511   2.537   2.544   2.564
106 A   106 B   107 B   107 A   108 A   108 B   109 B   109 A                  
  2.586   2.591   2.603   2.612   2.624   2.632   2.701   2.717
110 B   110 A   111 A   111 B   112 A   112 B   113 A   114 A                  
  2.728   2.750   2.761   2.770   2.811   2.825   2.833   2.839
113 B   114 B   115 B   115 A   116 A   117 A   116 B   118 A                  
  2.861   2.883   2.885   2.892   2.961   2.986   3.002   3.005
117 B   118 B   119 B   119 A   120 A   120 B   121 A   121 B                  
  3.010   3.047   3.050   3.062   3.075   3.075   3.097   3.101
122 A   122 B   123 A   124 A   123 B   125 A   124 B   126 A                  
  3.108   3.113   3.126   3.163   3.172   3.177   3.189   3.195
125 B   127 A   126 B   128 A   127 B   128 B   129 A   129 B                  
  3.215   3.232   3.253   3.257   3.278   3.286   3.291   3.295
130 B   130 A   131 B   131 A   132 A   132 B   133 A   134 A                  
  3.314   3.319   3.323   3.343   3.345   3.351   3.359   3.364
133 B   134 B   135 A   135 B   136 A   137 A   136 B   137 B                  
  3.380   3.387   3.390   3.420   3.426   3.434   3.450   3.467
138 A   139 A   138 B   140 A   139 B   141 A   140 B   142 A                  
  3.489   3.522   3.537   3.554   3.581   3.582   3.593   3.625
141 B   143 A   142 B   143 B   144 A   145 A   144 B   146 A                  
  3.626   3.633   3.685   3.691   3.702   3.725   3.748   3.756
145 B   147 A   146 B   147 B   148 A   148 B   149 B   149 A                  
  3.759   3.809   3.817   3.828   3.848   3.862   3.873   3.876
150 A   150 B   151 A   151 B   152 A   152 B   153 A   154 A                  
  3.898   3.904   3.952   3.962   3.987   4.001   4.003   4.022
153 B   154 B   155 A   155 B   156 A   156 B   157 A   157 B                  
  4.030   4.048   4.057   4.058   4.109   4.110   4.122   4.152
158 A   158 B   159 A   160 A   159 B   161 A   160 B   161 B                  
  4.162   4.171   4.216   4.220   4.257   4.274   4.317   4.368
162 A   162 B   163 A   164 A   163 B   164 B   165 A   166 A                  
  4.373   4.380   4.396   4.443   4.462   4.477   4.480   4.503
165 B   166 B   167 A   167 B   168 A   168 B   169 A   170 A                  
  4.535   4.566   4.574   4.596   4.605   4.631   4.675   4.693
169 B   170 B   171 B   171 A   172 B   172 A   173 A   173 B                  
  4.730   4.732   4.766   4.837   4.849   4.881   4.893   4.902
174 B   174 A   175 A   175 B   176 A   176 B   177 A   177 B                  
  4.907   4.928   4.949   5.028   5.084   5.087   5.134   5.145
178 A   178 B   179 A   179 B   180 A   180 B   181 B   181 A                  
  5.224   5.233   5.267   5.270   5.345   5.395   5.424   5.490
182 A   182 B   183 B   183 A   184 A   184 B   185 A   186 A                  
  5.506   5.642   5.754   5.821   5.911   5.921   5.968   6.035
185 B   186 B   187 A   187 B   188 A   188 B   189 A   189 B                  
  6.060   6.074   6.370   6.400   6.578   6.594   9.350  10.793
190 B   190 A   191 A   191 B   192 A   192 B   193 A   193 B                  
 11.878  12.568  13.160  13.517  14.663  14.705
194 A   194 B   195 A   195 B   196 A   196 B                                  
 --------------------------------------------------------------
 
          Ground-State Mulliken Net Atomic Charges

     Atom                 Charge (a.u.)    Spin (a.u.)
  --------------------------------------------------------
      1 S                     0.289839      -0.035249
      2 C                    -0.115457      -0.171835
      3 C                    -0.156013       0.578388
      4 C                    -0.135909      -0.409854
      5 C                    -0.069076       0.528019
      6 H                     0.219167       0.029360
      7 C                    -0.069074       0.528019
      8 S                     0.289839      -0.035249
      9 C                    -0.135907      -0.409854
     10 C                    -0.115458      -0.171835
     11 C                    -0.156011       0.578388
     12 H                     0.224796      -0.041854
     13 H                     0.242651       0.023026
     14 H                     0.224796      -0.041854
     15 H                     0.242650       0.023026
     16 H                     0.219167       0.029360
  --------------------------------------------------------
  Sum of atomic charges =     1.000000
  Sum of spin   charges =     1.000000

 -----------------------------------------------------------------
                    Cartesian Multipole Moments
 -----------------------------------------------------------------
    Charge (ESU x 10^10)
                 4.8032
    Dipole Moment (Debye)
         X      -0.0000      Y       0.0000      Z       0.3701
       Tot       0.3701
    Quadrupole Moments (Debye-Ang)
        XX     -22.1700     XY       1.5898     YY     -61.3356
        XZ       0.0000     YZ      -0.0000     ZZ     -67.4838
    Octopole Moments (Debye-Ang^2)
       XXX      -0.0000    XXY       0.0000    XYY      -0.0000
       YYY      -0.0000    XXZ      -6.2721    XYZ      17.9507
       YYZ       7.8169    XZZ      -0.0000    YZZ      -0.0000
       ZZZ      -3.3589
    Hexadecapole Moments (Debye-Ang^3)
      XXXX   -1262.7723   XXXY       4.0221   XXYY    -341.4582
      XYYY       7.8637   YYYY    -383.2191   XXXZ       0.0000
      XXYZ      -0.0000   XYYZ      -0.0000   YYYZ      -0.0000
      XXZZ    -354.0114   XYZZ       4.7012   YYZZ     -90.8646
      XZZZ      -0.0000   YZZZ      -0.0000   ZZZZ    -239.5928
 -----------------------------------------------------------------
 DrvMan is completing analytic gradient of the MP2 energy
 MP2 relaxed dipole moment
            1
    1  -0.0000001
    2   0.0000000
    3   0.1456195
	Magnitude:	 0.146 au	 0.370 Debye
 MP2 energy read as -1103.085904
 Full Analytical Gradient of MP2 Energy (in au.)
             1             2             3             4             5
    1   -0.00801311    0.00600233   -0.00287759    0.00566010   -0.03102647
    2    0.00183614    0.00339535    0.00366465   -0.00168474   -0.01014320
    3   -0.01059016    0.00149348   -0.00139257    0.01255633   -0.00415914
             6             7             8             9            10
    1    0.00103958    0.03102647    0.00801311   -0.00566010   -0.00600233
    2    0.00067811    0.01014320   -0.00183614    0.00168475   -0.00339535
    3    0.00014200   -0.00415914   -0.01059016    0.01255633    0.00149348
            11            12            13            14            15
    1    0.00287759    0.00042085   -0.00028235   -0.00042085    0.00028235
    2   -0.00366465   -0.00123145   -0.00255329    0.00123145    0.00255330
    3   -0.00139258   -0.00157449    0.00352457   -0.00157449    0.00352456
            16
    1   -0.00103958
    2   -0.00067811
    3    0.00014200
 Gradient time:  CPU 1.52 s  wall 0.10 s
 Geometry Optimization Parameters
   NAtoms,    NIC,     NZ,  NCons,   NDum,   NFix, NCnnct, MaxDiis
       16     111       0       1       0       0       0       0


** CONSTRAINED OPTIMIZATION IN DELOCALIZED INTERNAL COORDINATES **
   Searching for a Minimum

   Optimization Cycle:   1

                       Coordinates (Angstroms)
     ATOM                X               Y               Z
      1  S         1.7349641563   -1.0158504853   -0.6582606621
      2  C         3.0783290256   -0.1635755386   -0.1891424036
      3  C         2.7999330948    0.9398549535    0.6022406713
      4  C         1.4580898438    1.0788914795    0.8212549467
      5  C         0.6923074276    0.0911948311    0.2056128680
      6  H         1.0258491231    1.8695587811    1.4096880958
      7  C        -0.6923074276   -0.0911948311    0.2056128680
      8  S        -1.7349641563    1.0158504853   -0.6582606621
      9  C        -1.4580898438   -1.0788914795    0.8212549467
     10  C        -3.0783290256    0.1635755386   -0.1891424036
     11  C        -2.7999330948   -0.9398549535    0.6022406713
     12  H        -3.5631268143   -1.5906373783    0.9846212084
     13  H         4.0549140695   -0.4862210063   -0.5019352017
     14  H         3.5631268143    1.5906373783    0.9846212084
     15  H        -4.0549140695    0.4862210063   -0.5019352017
     16  H        -1.0258491231   -1.8695587811    1.4096880958
   Point Group: c2    Number of degrees of freedom:    22


   Energy is  -1103.085903503

              Constraints and their Current Values
                                        Value     Constraint
   Dihedral:        4   5   7   9     -110.000     -110.000

 Attempting to Generate Delocalized Internal Coordinates

 21 Hessian modes will be used to form the next step
  Hessian Eigenvalues:
     0.045000    0.045000    0.045000    0.045000    0.045000    0.045000
     0.160000    0.160000    0.160000    0.221335    0.237679    0.250000
     0.299411    0.364554    0.366034    0.368031    0.392996    0.445237
     0.461927    0.467905    0.501257

 Minimum Search - Taking Simple RFO Step
 Searching for Lamda that Minimizes Along All modes
 Value Taken    Lamda =  -0.00744832
 Calculated Step too Large.  Step scaled by  0.956347
 Step Taken.  Stepsize is  0.300000

                             Maximum     Tolerance    Cnvgd?
         Gradient           0.015665      0.000300      NO
         Displacement       0.198224      0.001200      NO
         Energy change     *********      0.000001      NO


 New Cartesian Coordinates Obtained by Inverse Iteration

 Displacement from previous Coordinates is:  0.380517
 ----------------------------------------------------------------
             Standard Nuclear Orientation (Angstroms)
    I     Atom           X                Y                Z
 ----------------------------------------------------------------
    1      S       1.7762183792    -1.0548098060    -0.5960605692
    2      C       3.1020941565    -0.1749714212    -0.1615139411
    3      C       2.8087618167     0.9356585476     0.6112221058
    4      C       1.4585952285     1.0932885160     0.7794584358
    5      C       0.7071094579     0.1027123364     0.1686927706
    6      H       1.0086351874     1.8939645341     1.3400218175
    7      C      -0.7071094579    -0.1027123364     0.1686927706
    8      S      -1.7762183792     1.0548098060    -0.5960605692
    9      C      -1.4585952285    -1.0932885160     0.7794584358
   10      C      -3.1020941565     0.1749714212    -0.1615139411
   11      C      -2.8087618167    -0.9356585476     0.6112221058
   12      H      -3.5660004460    -1.5876569877     1.0036680290
   13      H       4.0835773569    -0.4877271257    -0.4714091255
   14      H       3.5660004460     1.5876569877     1.0036680290
   15      H      -4.0835773569     0.4877271257    -0.4714091255
   16      H      -1.0086351874    -1.8939645341     1.3400218175
 ----------------------------------------------------------------
 Molecular Point Group                 C2    NOp =  2
 Largest Abelian Subgroup              C2    NOp =  2
 Nuclear Repulsion Energy =   637.1932255219 hartrees
 There are       43 alpha and       42 beta electrons
 Applying Cartesian multipole field
    Component          Value
    ---------          -----
     (2,0,0)        1.00000E-11
     (0,2,0)        2.00000E-11
     (0,0,2)       -3.00000E-10
 Nucleus-field energy     =    -0.0000000123 hartrees
 Requested basis set is cc-pVTZ
 There are 140 shells and 392 basis functions
 A cutoff of  1.0D-11 yielded   8066 shell pairs
 There are     62734 function pairs (     81755 Cartesian)
 Smallest overlap matrix eigenvalue = 8.33E-05
 Guess MOs from SCF MO coefficient file
 Reading MOs from coefficient file
 Reading MOs from coefficient file
 An unrestricted Hartree-Fock SCF calculation will be
 performed using Pulay DIIS extrapolation
 SCF converges when DIIS error is below 1.0E-08
 Geometry optimization detected.  Setting ReadMinima to 0
 Setting SaveMinima to 0
 using 16 threads for integral computing 
 ---------------------------------------
  Cycle       Energy         DIIS Error
 ---------------------------------------
    1   -1101.3297055664      1.07E-03
    2   -1101.3336418358      1.18E-04
    3   -1101.3343071764      4.73E-05
    4   -1101.3344208001      2.55E-05
    5   -1101.3344515913      9.13E-06
    6   -1101.3344583980      3.45E-06
    7   -1101.3344612669      1.68E-06
    8   -1101.3344630102      1.15E-06
    9   -1101.3344643895      9.13E-07
   10   -1101.3344655922      7.08E-07
   11   -1101.3344669136      4.32E-07
   12   -1101.3344674684      1.98E-07
   13   -1101.3344675241      9.33E-08
   14   -1101.3344675334      4.72E-08
   15   -1101.3344675363      2.28E-08
   16   -1101.3344675369      1.13E-08
   17   -1101.3344675368      6.97E-09 Convergence criterion met
 ---------------------------------------
 <S^2> = 0.9767
 SCF time:  CPU 1316.01 s  wall 82.31 s
 SCF   energy in the final basis set = -1101.3344675368
 Total energy in the final basis set = -1101.3344675368
 
 Components of the MP2 correlation energy:
        aaaa  correlation energy =        -0.2340963977 au
        abab  correlation energy =        -1.3076709843 au
        bbbb  correlation energy =        -0.2142396701 au
        non-Brillouin singles    =        -0.0000000000 au

 Total  MP2   correlation energy =        -1.7560070521 au
        MP2         total energy =     -1103.0904745889 au

  Entering Z-vector solver.
   1         0           1      0.000525    0.000525
   2         0           1      0.000475    0.000475
   3         0           1      0.000376    0.000376
   4         0           1      0.000337    0.000337
   5         0           1      0.000147    0.000147
   6         0           1      0.000075    0.000075
   7         0           1      0.000043    0.000043
   8         0           1      0.000026    0.000026
   9         0           1      0.000013    0.000013
  10         0           1      0.000006    0.000006
  11         0           1      0.000003    0.000003
  12         0           1      0.000001    0.000001
  13         1           0      0.000000    0.000000    Roots Converged
 Warning:  Cannot save MP2 spin density
 
 --------------------------------------------------------------
             Orbital Energies (a.u.) and Symmetries
 --------------------------------------------------------------
 
 Alpha MOs, Unrestricted
 -- Occupied --                  
-92.161 -92.161 -11.477 -11.476 -11.451 -11.451 -11.432 -11.432
  1 B     1 A     2 A     2 B     3 B     3 A     4 B     4 A                  
-11.403 -11.403  -9.163  -9.163  -6.844  -6.844  -6.843  -6.843
  5 B     5 A     6 B     6 A     7 A     7 B     8 B     8 A                  
 -6.841  -6.841  -1.393  -1.366  -1.229  -1.192  -1.180  -1.131
  9 B     9 A    10 A    10 B    11 A    11 B    12 A    12 B                  
 -0.995  -0.953  -0.935  -0.905  -0.886  -0.825  -0.753  -0.748
 13 A    13 B    14 A    14 B    15 A    15 B    16 A    17 A                  
 -0.747  -0.735  -0.732  -0.709  -0.698  -0.660  -0.649  -0.559
 16 B    17 B    18 A    18 B    19 A    19 B    20 A    21 A                  
 -0.534  -0.517  -0.493
 20 B    22 A    21 B                                                          
 -- Virtual --                   
 -0.098  -0.064  -0.001   0.003   0.021   0.026   0.030   0.045
 23 A    22 B    24 A    23 B    25 A    24 B    26 A    25 B                  
  0.049   0.053   0.072   0.084   0.088   0.109   0.161   0.168
 26 B    27 A    28 A    27 B    28 B    29 A    29 B    30 A                  
  0.195   0.200   0.205   0.213   0.233   0.240   0.262   0.268
 30 B    31 A    31 B    32 A    33 A    32 B    33 B    34 A                  
  0.271   0.283   0.293   0.293   0.310   0.325   0.334   0.340
 35 A    34 B    36 A    35 B    37 A    36 B    37 B    38 A                  
  0.348   0.352   0.367   0.378   0.382   0.394   0.402   0.410
 38 B    39 A    39 B    40 B    40 A    41 A    41 B    42 A                  
  0.412   0.416   0.438   0.442   0.452   0.458   0.462   0.467
 42 B    43 A    44 A    43 B    44 B    45 A    45 B    46 A                  
  0.487   0.488   0.499   0.503   0.509   0.523   0.531   0.542
 46 B    47 A    47 B    48 A    48 B    49 A    50 A    49 B                  
  0.590   0.600   0.619   0.620   0.633   0.658   0.672   0.680
 50 B    51 A    52 A    51 B    52 B    53 A    53 B    54 B                  
  0.698   0.703   0.718   0.733   0.741   0.757   0.768   0.776
 54 A    55 B    55 A    56 B    56 A    57 A    57 B    58 A                  
  0.810   0.840   0.843   0.845   0.864   0.864   0.897   0.918
 59 A    60 A    58 B    59 B    61 A    60 B    61 B    62 A                  
  0.924   0.936   0.941   0.948   0.962   0.989   1.010   1.016
 62 B    63 A    64 A    63 B    65 A    64 B    66 A    65 B                  
  1.027   1.032   1.055   1.063   1.069   1.091   1.111   1.126
 67 A    66 B    68 A    67 B    68 B    69 A    69 B    70 A                  
  1.141   1.154   1.168   1.181   1.215   1.217   1.243   1.270
 70 B    71 A    72 A    71 B    73 A    72 B    73 B    74 A                  
  1.274   1.291   1.314   1.331   1.332   1.342   1.359   1.376
 74 B    75 B    75 A    76 B    76 A    77 B    77 A    78 A                  
  1.377   1.388   1.397   1.425   1.430   1.443   1.459   1.475
 78 B    79 A    79 B    80 A    80 B    81 A    81 B    82 A                  
  1.503   1.519   1.537   1.566   1.580   1.583   1.603   1.657
 82 B    83 B    83 A    84 B    84 A    85 B    85 A    86 A                  
  1.670   1.681   1.704   1.716   1.731   1.742   1.749   1.771
 86 B    87 A    87 B    88 B    88 A    89 B    89 A    90 B                  
  1.782   1.820   1.872   1.911   1.911   1.932   1.951   1.984
 90 A    91 B    91 A    92 A    92 B    93 A    93 B    94 A                  
  2.000   2.021   2.039   2.041   2.050   2.072   2.077   2.099
 95 A    94 B    95 B    96 B    96 A    97 A    97 B    98 A                  
  2.114   2.144   2.165   2.199   2.223   2.241   2.284   2.287
 98 B    99 B    99 A   100 A   100 B   101 A   102 A   101 B                  
  2.316   2.326   2.343   2.350   2.358   2.386   2.387   2.411
102 B   103 A   103 B   104 B   104 A   105 A   105 B   106 A                  
  2.432   2.479   2.503   2.516   2.517   2.540   2.569   2.582
106 B   107 B   107 A   108 B   108 A   109 B   109 A   110 B                  
  2.583   2.599   2.608   2.621   2.631   2.699   2.709   2.719
110 A   111 A   111 B   112 A   112 B   113 A   114 A   113 B                  
  2.735   2.752   2.759   2.799   2.816   2.829   2.831   2.851
114 B   115 B   115 A   116 A   117 A   116 B   118 A   117 B                  
  2.869   2.883   2.885   2.950   2.980   2.990   2.992   3.005
118 B   119 A   119 B   120 A   120 B   121 A   121 B   122 A                  
  3.045   3.052   3.057   3.063   3.070   3.093   3.097   3.101
123 A   122 B   124 A   125 A   123 B   126 A   124 B   127 A                  
  3.115   3.134   3.156   3.165   3.168   3.176   3.176   3.212
125 B   126 B   127 B   128 A   128 B   129 B   129 A   130 B                  
  3.227   3.250   3.258   3.273   3.285   3.286   3.292   3.303
130 A   131 B   131 A   132 A   133 A   132 B   134 A   133 B                  
  3.311   3.312   3.331   3.336   3.341   3.353   3.358   3.365
134 B   135 A   136 A   135 B   137 A   136 B   137 B   138 A                  
  3.385   3.393   3.408   3.414   3.424   3.444   3.453   3.486
138 B   139 A   140 A   139 B   141 A   140 B   142 A   141 B                  
  3.516   3.537   3.557   3.568   3.573   3.590   3.620   3.623
143 A   142 B   143 B   144 A   145 A   144 B   146 A   145 B                  
  3.625   3.680   3.687   3.709   3.716   3.740   3.741   3.753
147 A   146 B   147 B   148 A   148 B   149 B   149 A   150 A                  
  3.801   3.815   3.817   3.844   3.854   3.868   3.877   3.894
150 B   151 A   151 B   152 A   152 B   153 A   154 A   153 B                  
  3.896   3.937   3.958   3.982   3.999   4.000   4.022   4.024
154 B   155 A   155 B   156 A   156 B   157 A   158 A   157 B                  
  4.050   4.052   4.059   4.104   4.111   4.117   4.150   4.161
158 B   159 A   160 A   159 B   161 A   160 B   161 B   162 A                  
  4.168   4.208   4.214   4.255   4.268   4.313   4.366   4.371
162 B   163 A   164 A   163 B   164 B   165 A   165 B   166 A                  
  4.382   4.387   4.434   4.460   4.474   4.475   4.503   4.529
166 B   167 A   167 B   168 A   168 B   169 A   170 A   169 B                  
  4.557   4.574   4.593   4.607   4.618   4.663   4.683   4.725
170 B   171 B   171 A   172 B   172 A   173 A   173 B   174 B                  
  4.730   4.756   4.821   4.835   4.875   4.886   4.896   4.902
174 A   175 A   175 B   176 A   176 B   177 A   177 B   178 A                  
  4.921   4.941   5.023   5.074   5.076   5.118   5.141   5.217
178 B   179 A   179 B   180 A   180 B   181 B   181 A   182 A                  
  5.229   5.262   5.266   5.340   5.388   5.427   5.486   5.506
182 B   183 A   183 B   184 A   184 B   185 A   186 A   185 B                  
  5.638   5.738   5.811   5.907   5.920   5.979   6.038   6.070
186 B   187 A   187 B   188 A   188 B   189 A   189 B   190 B                  
  6.077   6.384   6.402   6.564   6.596   9.315  10.637  11.879
190 A   191 A   191 B   192 A   192 B   193 A   193 B   194 A                  
 12.303  13.244  13.385  14.677  14.683
194 B   195 A   195 B   196 A   196 B                                          
 
 Beta MOs, Unrestricted
 -- Occupied --                  
-92.162 -92.162 -11.476 -11.475 -11.440 -11.440 -11.426 -11.426
  1 B     1 A     2 A     2 B     3 B     3 A     4 A     4 B                  
-11.409 -11.409  -9.164  -9.164  -6.845  -6.845  -6.844  -6.844
  5 B     5 A     6 B     6 A     7 B     7 A     8 B     8 A                  
 -6.843  -6.843  -1.380  -1.351  -1.213  -1.183  -1.177  -1.108
  9 A     9 B    10 A    10 B    11 A    11 B    12 A    12 B                  
 -0.987  -0.943  -0.923  -0.901  -0.884  -0.819  -0.743  -0.742
 13 A    13 B    14 A    14 B    15 A    15 B    16 A    16 B                  
 -0.740  -0.728  -0.719  -0.680  -0.668  -0.656  -0.646  -0.535
 17 A    17 B    18 A    19 A    18 B    19 B    20 A    21 A                  
 -0.530  -0.476
 20 B    22 A                                                                  
 -- Virtual --                   
 -0.210  -0.048  -0.023   0.006   0.008   0.023   0.029   0.042
 21 B    23 A    22 B    24 A    23 B    25 A    24 B    26 A                  
  0.050   0.056   0.064   0.073   0.089   0.094   0.110   0.162
 25 B    27 A    26 B    28 A    27 B    28 B    29 A    29 B                  
  0.169   0.198   0.203   0.208   0.216   0.234   0.242   0.267
 30 A    30 B    31 A    31 B    32 A    33 A    32 B    33 B                  
  0.273   0.278   0.292   0.297   0.301   0.319   0.327   0.343
 34 A    35 A    34 B    35 B    36 A    37 A    36 B    37 B                  
  0.346   0.352   0.354   0.379   0.388   0.390   0.402   0.412
 38 A    38 B    39 A    39 B    40 A    40 B    41 A    41 B                  
  0.419   0.420   0.422   0.447   0.451   0.458   0.460   0.466
 42 B    42 A    43 A    44 A    43 B    44 B    45 A    45 B                  
  0.472   0.492   0.494   0.500   0.509   0.519   0.527   0.536
 46 A    47 A    46 B    47 B    48 A    48 B    49 A    50 A                  
  0.546   0.593   0.604   0.620   0.623   0.634   0.661   0.676
 49 B    50 B    51 A    52 A    51 B    52 B    53 A    53 B                  
  0.683   0.704   0.707   0.722   0.740   0.742   0.760   0.769
 54 B    54 A    55 B    55 A    56 B    56 A    57 A    57 B                  
  0.779   0.815   0.843   0.848   0.849   0.864   0.867   0.904
 58 A    59 A    60 A    58 B    59 B    61 A    60 B    61 B                  
  0.921   0.927   0.940   0.947   0.957   0.967   0.990   1.015
 62 A    62 B    63 A    64 A    63 B    65 A    64 B    66 A                  
  1.018   1.029   1.037   1.057   1.065   1.074   1.090   1.113
 65 B    67 A    66 B    68 A    67 B    68 B    69 A    69 B                  
  1.132   1.143   1.159   1.174   1.188   1.221   1.221   1.249
 70 A    70 B    71 A    72 A    71 B    72 B    73 A    73 B                  
  1.277   1.278   1.294   1.320   1.335   1.338   1.346   1.360
 74 A    74 B    75 B    75 A    76 A    76 B    77 B    77 A                  
  1.377   1.380   1.392   1.399   1.427   1.433   1.446   1.464
 78 B    78 A    79 A    79 B    80 A    80 B    81 A    81 B                  
  1.479   1.506   1.521   1.542   1.570   1.583   1.586   1.603
 82 A    82 B    83 B    83 A    84 B    84 A    85 B    85 A                  
  1.658   1.669   1.681   1.707   1.717   1.730   1.742   1.750
 86 A    86 B    87 A    87 B    88 B    88 A    89 B    89 A                  
  1.771   1.787   1.821   1.873   1.912   1.912   1.931   1.953
 90 B    90 A    91 B    91 A    92 A    92 B    93 A    93 B                  
  1.984   2.002   2.021   2.040   2.043   2.052   2.072   2.079
 94 A    95 A    94 B    95 B    96 B    96 A    97 A    97 B                  
  2.114   2.124   2.150   2.168   2.204   2.225   2.245   2.282
 98 A    98 B    99 B    99 A   100 A   100 B   101 A   102 A                  
  2.285   2.318   2.330   2.346   2.360   2.365   2.397   2.399
101 B   102 B   103 A   103 B   104 B   104 A   105 B   105 A                  
  2.418   2.441   2.483   2.505   2.519   2.523   2.543   2.574
106 A   106 B   107 B   107 A   108 A   108 B   109 B   109 A                  
  2.588   2.589   2.605   2.612   2.626   2.638   2.702   2.718
110 A   110 B   111 A   111 B   112 A   112 B   113 A   114 A                  
  2.727   2.741   2.756   2.769   2.804   2.820   2.831   2.836
113 B   114 B   115 B   115 A   116 A   117 A   116 B   118 A                  
  2.860   2.877   2.885   2.888   2.954   2.984   2.994   3.004
117 B   118 B   119 A   119 B   120 A   120 B   121 A   121 B                  
  3.008   3.050   3.051   3.061   3.070   3.073   3.100   3.102
122 A   123 A   122 B   124 A   125 A   123 B   126 A   124 B                  
  3.109   3.120   3.139   3.165   3.172   3.175   3.178   3.180
127 A   125 B   126 B   127 B   128 A   128 B   129 A   129 B                  
  3.218   3.231   3.252   3.260   3.278   3.288   3.289   3.295
130 B   130 A   131 B   131 A   132 A   133 A   132 B   134 A                  
  3.310   3.316   3.321   3.338   3.343   3.349   3.359   3.365
133 B   134 B   135 A   136 A   135 B   137 A   136 B   137 B                  
  3.368   3.388   3.399   3.412   3.419   3.426   3.449   3.459
138 A   138 B   139 A   140 A   139 B   141 A   140 B   142 A                  
  3.488   3.519   3.541   3.561   3.572   3.578   3.596   3.623
141 B   143 A   142 B   143 B   144 A   145 A   144 B   146 A                  
  3.626   3.628   3.685   3.691   3.712   3.719   3.743   3.746
145 B   147 A   146 B   147 B   148 A   148 B   149 B   149 A                  
  3.754   3.806   3.817   3.820   3.847   3.855   3.872   3.879
150 A   150 B   151 A   151 B   152 A   152 B   153 A   154 A                  
  3.897   3.899   3.940   3.961   3.983   4.001   4.002   4.024
153 B   154 B   155 A   155 B   156 A   156 B   157 A   158 A                  
  4.026   4.051   4.054   4.061   4.105   4.112   4.118   4.153
157 B   158 B   159 A   160 A   159 B   161 A   160 B   161 B                  
  4.162   4.169   4.210   4.215   4.256   4.270   4.314   4.367
162 A   162 B   163 A   164 A   163 B   164 B   165 A   165 B                  
  4.373   4.384   4.388   4.435   4.465   4.476   4.477   4.505
166 A   166 B   167 A   167 B   168 A   169 A   168 B   170 A                  
  4.533   4.559   4.575   4.596   4.609   4.618   4.664   4.686
169 B   170 B   171 B   171 A   172 B   172 A   173 A   173 B                  
  4.727   4.731   4.759   4.823   4.838   4.879   4.888   4.898
174 B   174 A   175 A   175 B   176 A   176 B   177 A   177 B                  
  4.904   4.923   4.942   5.025   5.078   5.079   5.122   5.143
178 A   178 B   179 A   179 B   180 B   180 A   181 B   181 A                  
  5.219   5.230   5.263   5.267   5.341   5.389   5.428   5.488
182 A   182 B   183 A   183 B   184 A   184 B   185 A   186 A                  
  5.507   5.639   5.738   5.812   5.908   5.921   5.980   6.038
185 B   186 B   187 A   187 B   188 A   188 B   189 A   189 B                  
  6.070   6.078   6.385   6.403   6.564   6.596   9.317  10.641
190 B   190 A   191 A   191 B   192 A   192 B   193 A   193 B                  
 11.883  12.308  13.247  13.387  14.678  14.685
194 A   194 B   195 A   195 B   196 A   196 B                                  
 --------------------------------------------------------------
 
          Ground-State Mulliken Net Atomic Charges

     Atom                 Charge (a.u.)    Spin (a.u.)
  --------------------------------------------------------
      1 S                     0.289059      -0.028410
      2 C                    -0.115827      -0.160171
      3 C                    -0.154161       0.574295
      4 C                    -0.137186      -0.397254
      5 C                    -0.067792       0.502926
      6 H                     0.218552       0.028092
      7 C                    -0.067792       0.502927
      8 S                     0.289059      -0.028410
      9 C                    -0.137186      -0.397254
     10 C                    -0.115827      -0.160171
     11 C                    -0.154161       0.574295
     12 H                     0.224503      -0.040958
     13 H                     0.242852       0.021478
     14 H                     0.224503      -0.040958
     15 H                     0.242852       0.021478
     16 H                     0.218552       0.028093
  --------------------------------------------------------
  Sum of atomic charges =     1.000000
  Sum of spin   charges =     1.000000

 -----------------------------------------------------------------
                    Cartesian Multipole Moments
 -----------------------------------------------------------------
    Charge (ESU x 10^10)
                 4.8032
    Dipole Moment (Debye)
         X      -0.0000      Y      -0.0000      Z       0.5297
       Tot       0.5297
    Quadrupole Moments (Debye-Ang)
        XX     -21.3802     XY       1.2098     YY     -61.0735
        XZ      -0.0000     YZ      -0.0000     ZZ     -68.0697
    Octopole Moments (Debye-Ang^2)
       XXX      -0.0000    XXY      -0.0000    XYY      -0.0000
       YYY      -0.0000    XXZ      -6.0507    XYZ      17.4792
       YYZ       6.7583    XZZ      -0.0000    YZZ      -0.0000
       ZZZ      -6.4682
    Hexadecapole Moments (Debye-Ang^3)
      XXXX   -1278.7164   XXXY       9.7832   XXYY    -348.8276
      XYYY      14.5436   YYYY    -395.9537   XXXZ      -0.0000
      XXYZ      -0.0000   XYYZ      -0.0000   YYYZ      -0.0000
      XXZZ    -357.6372   XYZZ       8.1336   YYZZ     -91.6904
      XZZZ      -0.0000   YZZZ      -0.0000   ZZZZ    -223.2015
 -----------------------------------------------------------------
 DrvMan is completing analytic gradient of the MP2 energy
 MP2 relaxed dipole moment
            1
    1  -0.0000005
    2  -0.0000000
    3   0.2083887
	Magnitude:	 0.208 au	 0.530 Debye
 MP2 energy read as -1103.090475
 Full Analytical Gradient of MP2 Energy (in au.)
             1             2             3             4             5
    1   -0.00000163    0.00139368   -0.00035090    0.00203932   -0.00354517
    2    0.00293964    0.00453620   -0.00273247   -0.00550449    0.00142826
    3   -0.00121064   -0.00222234    0.00010039    0.00729043   -0.00474578
             6             7             8             9            10
    1   -0.00003770    0.00354516    0.00000163   -0.00203931   -0.00139368
    2   -0.00026089   -0.00142827   -0.00293965    0.00550450   -0.00453620
    3    0.00031871   -0.00474578   -0.00121064    0.00729043   -0.00222234
            11            12            13            14            15
    1    0.00035089   -0.00006586    0.00014853    0.00006586   -0.00014852
    2    0.00273248   -0.00049865   -0.00118817    0.00049865    0.00118817
    3    0.00010039   -0.00105344    0.00152267   -0.00105344    0.00152267
            16
    1    0.00003770
    2    0.00026089
    3    0.00031871
 Gradient time:  CPU 1.52 s  wall 0.10 s
 Geometry Optimization Parameters
   NAtoms,    NIC,     NZ,  NCons,   NDum,   NFix, NCnnct, MaxDiis
       16     111       0       1       0       0       0       0

 Cartesian Hessian Update
 Hessian Updated using BFGS Update


** CONSTRAINED OPTIMIZATION IN DELOCALIZED INTERNAL COORDINATES **
   Searching for a Minimum

   Optimization Cycle:   2

                       Coordinates (Angstroms)
     ATOM                X               Y               Z
      1  S         1.7762183792   -1.0548098060   -0.5960605692
      2  C         3.1020941565   -0.1749714212   -0.1615139411
      3  C         2.8087618167    0.9356585476    0.6112221058
      4  C         1.4585952285    1.0932885160    0.7794584358
      5  C         0.7071094579    0.1027123364    0.1686927706
      6  H         1.0086351874    1.8939645341    1.3400218175
      7  C        -0.7071094579   -0.1027123364    0.1686927706
      8  S        -1.7762183792    1.0548098060   -0.5960605692
      9  C        -1.4585952285   -1.0932885160    0.7794584358
     10  C        -3.1020941565    0.1749714212   -0.1615139411
     11  C        -2.8087618167   -0.9356585476    0.6112221058
     12  H        -3.5660004460   -1.5876569877    1.0036680290
     13  H         4.0835773569   -0.4877271257   -0.4714091255
     14  H         3.5660004460    1.5876569877    1.0036680290
     15  H        -4.0835773569    0.4877271257   -0.4714091255
     16  H        -1.0086351874   -1.8939645341    1.3400218175
   Point Group: c2    Number of degrees of freedom:    22


   Energy is  -1103.090474589

              Constraints and their Current Values
                                        Value     Constraint
   Dihedral:        4   5   7   9     -110.000     -110.000
 Hessian Updated using BFGS Update

 16 Hessian modes will be used to form the next step
  Hessian Eigenvalues:
     0.027967    0.053232    0.159928    0.160488    0.221430    0.243522
     0.250977    0.299581    0.364557    0.366062    0.368030    0.395282
     0.439002    0.464866    0.496396    0.533153

 Minimum Search - Taking Simple RFO Step
 Searching for Lamda that Minimizes Along All modes
 Value Taken    Lamda =  -0.00266355
 Step Taken.  Stepsize is  0.284113

                             Maximum     Tolerance    Cnvgd?
         Gradient           0.007463      0.000300      NO
         Displacement       0.187830      0.001200      NO
         Energy change     -0.004571      0.000001      NO


 New Cartesian Coordinates Obtained by Inverse Iteration

 Displacement from previous Coordinates is:  0.581315
 ----------------------------------------------------------------
             Standard Nuclear Orientation (Angstroms)
    I     Atom           X                Y                Z
 ----------------------------------------------------------------
    1      S       1.7908467451    -1.0912900508    -0.5521533156
    2      C       3.1018903679    -0.2068148143    -0.0966164894
    3      C       2.7926045415     0.9430060292     0.6159993197
    4      C       1.4379617611     1.1248305578     0.7152468105
    5      C       0.7087204163     0.1201965381     0.1070783024
    6      H       0.9710081242     1.9452873545     1.2315011669
    7      C      -0.7087204163    -0.1201965381     0.1070783024
    8      S      -1.7908467451     1.0912900508    -0.5521533156
    9      C      -1.4379617611    -1.1248305578     0.7152468105
   10      C      -3.1018903679     0.2068148143    -0.0966164894
   11      C      -2.7926045415    -0.9430060292     0.6159993197
   12      H      -3.5405952777    -1.5959302891     1.0245982050
   13      H       4.0911080082    -0.5280740990    -0.3715744766
   14      H       3.5405952777     1.5959302891     1.0245982050
   15      H      -4.0911080082     0.5280740990    -0.3715744766
   16      H      -0.9710081242    -1.9452873545     1.2315011669
 ----------------------------------------------------------------
 Molecular Point Group                 C2    NOp =  2
 Largest Abelian Subgroup              C2    NOp =  2
 Nuclear Repulsion Energy =   637.2832483325 hartrees
 There are       43 alpha and       42 beta electrons
 Applying Cartesian multipole field
    Component          Value
    ---------          -----
     (2,0,0)        1.00000E-11
     (0,2,0)        2.00000E-11
     (0,0,2)       -3.00000E-10
 Nucleus-field energy     =    -0.0000000080 hartrees
 Requested basis set is cc-pVTZ
 There are 140 shells and 392 basis functions
 A cutoff of  1.0D-11 yielded   8068 shell pairs
 There are     62772 function pairs (     81808 Cartesian)
 Smallest overlap matrix eigenvalue = 7.69E-05
 Guess MOs from SCF MO coefficient file
 Reading MOs from coefficient file
 Reading MOs from coefficient file
 An unrestricted Hartree-Fock SCF calculation will be
 performed using Pulay DIIS extrapolation
 SCF converges when DIIS error is below 1.0E-08
 Geometry optimization detected.  Setting ReadMinima to 0
 Setting SaveMinima to 0
 using 16 threads for integral computing 
 ---------------------------------------
  Cycle       Energy         DIIS Error
 ---------------------------------------
    1   -1101.3074439341      1.18E-03
    2   -1101.3358158112      1.57E-04
    3   -1101.3370316806      6.78E-05
    4   -1101.3372537545      3.47E-05
    5   -1101.3373176636      1.21E-05
    6   -1101.3373264343      4.89E-06
    7   -1101.3373288655      1.91E-06
    8   -1101.3373295856      7.16E-07
    9   -1101.3373298404      4.82E-07
   10   -1101.3373299905      3.49E-07
   11   -1101.3373301183      2.49E-07
   12   -1101.3373302146      1.59E-07
   13   -1101.3373302617      9.74E-08
   14   -1101.3373302834      6.05E-08
   15   -1101.3373302939      2.65E-08
   16   -1101.3373302963      1.20E-08
   17   -1101.3373302971      7.03E-09 Convergence criterion met
 ---------------------------------------
 <S^2> = 0.9813
 SCF time:  CPU 1307.07 s  wall 81.75 s
 SCF   energy in the final basis set = -1101.3373302971
 Total energy in the final basis set = -1101.3373302971
 
 Components of the MP2 correlation energy:
        aaaa  correlation energy =        -0.2340844217 au
        abab  correlation energy =        -1.3069900770 au
        bbbb  correlation energy =        -0.2140404380 au
        non-Brillouin singles    =        -0.0000000000 au

 Total  MP2   correlation energy =        -1.7551149367 au
        MP2         total energy =     -1103.0924452338 au

  Entering Z-vector solver.
   1         0           1      0.000524    0.000524
   2         0           1      0.000473    0.000473
   3         0           1      0.000363    0.000363
   4         0           1      0.000319    0.000319
   5         0           1      0.000138    0.000138
   6         0           1      0.000069    0.000069
   7         0           1      0.000040    0.000040
   8         0           1      0.000025    0.000025
   9         0           1      0.000012    0.000012
  10         0           1      0.000006    0.000006
  11         0           1      0.000003    0.000003
  12         0           1      0.000001    0.000001
  13         1           0      0.000000    0.000000    Roots Converged
 Warning:  Cannot save MP2 spin density
 
 --------------------------------------------------------------
             Orbital Energies (a.u.) and Symmetries
 --------------------------------------------------------------
 
 Alpha MOs, Unrestricted
 -- Occupied --                  
-92.160 -92.160 -11.478 -11.477 -11.451 -11.451 -11.432 -11.432
  1 A     1 B     2 A     2 B     3 B     3 A     4 B     4 A                  
-11.404 -11.404  -9.162  -9.162  -6.843  -6.843  -6.842  -6.842
  5 B     5 A     6 B     6 A     7 B     7 A     8 A     8 B                  
 -6.841  -6.841  -1.393  -1.366  -1.228  -1.194  -1.180  -1.129
  9 B     9 A    10 A    10 B    11 A    11 B    12 A    12 B                  
 -0.993  -0.955  -0.934  -0.906  -0.887  -0.823  -0.754  -0.747
 13 A    13 B    14 A    14 B    15 A    15 B    16 A    17 A                  
 -0.746  -0.735  -0.732  -0.711  -0.696  -0.662  -0.648  -0.564
 16 B    17 B    18 A    18 B    19 A    19 B    20 A    21 A                  
 -0.535  -0.517  -0.491
 20 B    22 A    21 B                                                          
 -- Virtual --                   
 -0.100  -0.059  -0.003   0.002   0.021   0.027   0.031   0.043
 23 A    22 B    24 A    23 B    25 A    24 B    26 A    25 B                  
  0.049   0.053   0.072   0.081   0.091   0.111   0.162   0.170
 26 B    27 A    28 A    27 B    28 B    29 A    29 B    30 A                  
  0.195   0.202   0.205   0.212   0.233   0.240   0.260   0.270
 30 B    31 A    31 B    32 A    33 A    32 B    33 B    34 A                  
  0.271   0.283   0.290   0.296   0.311   0.327   0.332   0.345
 35 A    34 B    35 B    36 A    37 A    36 B    37 B    38 A                  
  0.352   0.353   0.365   0.383   0.383   0.389   0.399   0.407
 39 A    38 B    39 B    40 B    40 A    41 A    41 B    42 B                  
  0.412   0.417   0.438   0.440   0.453   0.459   0.463   0.467
 42 A    43 A    44 A    43 B    44 B    45 A    45 B    46 A                  
  0.484   0.488   0.498   0.502   0.512   0.520   0.532   0.540
 46 B    47 A    47 B    48 A    48 B    49 A    50 A    49 B                  
  0.594   0.598   0.617   0.617   0.630   0.658   0.670   0.679
 50 B    51 A    51 B    52 A    52 B    53 A    53 B    54 B                  
  0.700   0.705   0.720   0.738   0.740   0.754   0.776   0.776
 54 A    55 B    55 A    56 A    56 B    57 A    57 B    58 A                  
  0.803   0.838   0.848   0.849   0.862   0.865   0.903   0.923
 59 A    58 B    60 A    59 B    60 B    61 A    61 B    62 B                  
  0.925   0.927   0.935   0.948   0.966   0.987   1.010   1.015
 62 A    63 A    64 A    63 B    65 A    64 B    66 A    65 B                  
  1.024   1.036   1.056   1.061   1.065   1.096   1.098   1.123
 67 A    66 B    68 A    67 B    68 B    69 A    69 B    70 A                  
  1.140   1.155   1.167   1.191   1.211   1.217   1.241   1.270
 70 B    71 A    72 A    71 B    73 A    72 B    73 B    74 A                  
  1.278   1.292   1.309   1.329   1.332   1.342   1.357   1.373
 74 B    75 B    75 A    76 A    76 B    77 B    77 A    78 A                  
  1.376   1.385   1.399   1.423   1.427   1.437   1.460   1.474
 78 B    79 A    79 B    80 A    80 B    81 A    81 B    82 A                  
  1.505   1.512   1.533   1.557   1.581   1.584   1.606   1.652
 82 B    83 B    83 A    84 B    84 A    85 B    85 A    86 A                  
  1.677   1.681   1.700   1.719   1.727   1.742   1.762   1.775
 86 B    87 A    87 B    88 B    88 A    89 B    89 A    90 B                  
  1.778   1.813   1.866   1.906   1.916   1.925   1.944   1.995
 90 A    91 B    91 A    92 A    92 B    93 A    93 B    94 A                  
  1.998   2.018   2.033   2.046   2.048   2.082   2.084   2.102
 95 A    94 B    95 B    96 B    96 A    97 A    97 B    98 A                  
  2.116   2.146   2.167   2.189   2.207   2.243   2.280   2.291
 98 B    99 B    99 A   100 A   100 B   101 A   101 B   102 A                  
  2.321   2.324   2.338   2.347   2.348   2.389   2.391   2.410
102 B   103 A   103 B   104 B   104 A   105 A   105 B   106 A                  
  2.432   2.482   2.511   2.512   2.536   2.536   2.572   2.585
106 B   107 B   107 A   108 B   109 B   108 A   109 A   110 A                  
  2.586   2.602   2.608   2.621   2.630   2.691   2.711   2.711
110 B   111 A   111 B   112 A   112 B   113 A   114 A   113 B                  
  2.726   2.751   2.760   2.790   2.824   2.826   2.827   2.850
114 B   115 B   115 A   116 A   117 A   118 A   116 B   117 B                  
  2.863   2.882   2.885   2.942   2.983   2.985   2.996   3.003
118 B   119 A   119 B   120 A   121 A   120 B   121 B   122 A                  
  3.044   3.053   3.053   3.064   3.067   3.088   3.096   3.103
123 A   122 B   124 A   125 A   123 B   126 A   124 B   127 A                  
  3.124   3.146   3.158   3.159   3.164   3.172   3.178   3.214
125 B   126 B   127 B   128 A   128 B   129 B   129 A   130 B                  
  3.226   3.256   3.257   3.270   3.282   3.285   3.293   3.300
130 A   131 B   131 A   132 A   133 A   132 B   134 A   133 B                  
  3.308   3.312   3.330   3.330   3.340   3.353   3.358   3.360
135 A   134 B   136 A   135 B   137 A   136 B   137 B   138 A                  
  3.389   3.399   3.408   3.413   3.422   3.446   3.451   3.481
138 B   139 A   140 A   139 B   141 A   142 A   140 B   141 B                  
  3.512   3.536   3.564   3.566   3.571   3.597   3.612   3.621
143 A   142 B   144 A   143 B   145 A   144 B   146 A   145 B                  
  3.625   3.669   3.690   3.713   3.716   3.734   3.740   3.752
147 A   146 B   147 B   148 A   148 B   149 A   149 B   150 A                  
  3.799   3.814   3.817   3.840   3.842   3.869   3.885   3.888
150 B   151 A   151 B   152 A   152 B   153 A   154 A   153 B                  
  3.895   3.929   3.961   3.969   3.998   3.999   4.023   4.025
154 B   155 A   155 B   156 A   157 A   156 B   158 A   157 B                  
  4.052   4.057   4.065   4.104   4.114   4.118   4.145   4.159
158 B   159 A   160 A   159 B   161 A   160 B   161 B   162 A                  
  4.163   4.203   4.215   4.252   4.260   4.312   4.362   4.373
162 B   163 A   164 A   163 B   164 B   165 A   165 B   166 A                  
  4.381   4.384   4.434   4.460   4.470   4.472   4.504   4.523
167 A   166 B   167 B   168 A   168 B   169 A   170 A   169 B                  
  4.552   4.574   4.587   4.605   4.608   4.654   4.683   4.718
170 B   171 B   171 A   172 B   172 A   173 A   173 B   174 B                  
  4.735   4.753   4.821   4.834   4.873   4.884   4.891   4.903
174 A   175 A   175 B   176 A   176 B   177 A   177 B   178 A                  
  4.924   4.944   5.026   5.068   5.072   5.109   5.147   5.213
178 B   179 A   179 B   180 B   180 A   181 B   181 A   182 A                  
  5.228   5.255   5.266   5.334   5.384   5.425   5.483   5.505
182 B   183 A   183 B   184 A   184 B   185 A   186 A   185 B                  
  5.641   5.737   5.805   5.902   5.917   5.984   6.032   6.077
186 B   187 A   187 B   188 A   188 B   189 A   189 B   190 A                  
  6.084   6.383   6.395   6.552   6.608   9.282  10.581  11.873
190 B   191 A   191 B   192 A   192 B   193 A   193 B   194 A                  
 12.229  13.255  13.358  14.670  14.687
194 B   195 A   195 B   196 B   196 A                                          
 
 Beta MOs, Unrestricted
 -- Occupied --                  
-92.161 -92.161 -11.477 -11.476 -11.440 -11.440 -11.426 -11.426
  1 A     1 B     2 A     2 B     3 B     3 A     4 A     4 B                  
-11.410 -11.410  -9.164  -9.164  -6.845  -6.845  -6.844  -6.844
  5 B     5 A     6 A     6 B     7 B     7 A     8 B     8 A                  
 -6.843  -6.843  -1.380  -1.351  -1.212  -1.185  -1.178  -1.107
  9 A     9 B    10 A    10 B    11 A    11 B    12 A    12 B                  
 -0.985  -0.945  -0.922  -0.901  -0.885  -0.818  -0.742  -0.741
 13 A    13 B    14 A    14 B    15 A    15 B    16 B    16 A                  
 -0.740  -0.729  -0.719  -0.680  -0.669  -0.658  -0.646  -0.535
 17 A    17 B    18 A    19 A    18 B    19 B    20 A    21 A                  
 -0.531  -0.482
 20 B    22 A                                                                  
 -- Virtual --                   
 -0.206  -0.048  -0.021   0.005   0.008   0.024   0.029   0.044
 21 B    23 A    22 B    24 A    23 B    25 A    24 B    26 A                  
  0.049   0.057   0.062   0.073   0.087   0.095   0.112   0.163
 25 B    27 A    26 B    28 A    27 B    28 B    29 A    29 B                  
  0.172   0.198   0.205   0.208   0.215   0.235   0.242   0.265
 30 A    30 B    31 A    31 B    32 A    33 A    32 B    33 B                  
  0.273   0.279   0.291   0.295   0.304   0.320   0.328   0.339
 34 A    35 A    34 B    35 B    36 A    37 A    36 B    37 B                  
  0.351   0.356   0.356   0.379   0.388   0.394   0.399   0.408
 38 A    39 A    38 B    39 B    40 A    40 B    41 A    41 B                  
  0.416   0.419   0.423   0.448   0.448   0.459   0.461   0.467
 42 B    42 A    43 A    44 A    43 B    44 B    45 A    45 B                  
  0.472   0.491   0.491   0.498   0.509   0.521   0.524   0.537
 46 A    47 A    46 B    47 B    48 A    48 B    49 A    50 A                  
  0.545   0.596   0.603   0.618   0.618   0.632   0.660   0.673
 49 B    50 B    51 A    52 A    51 B    52 B    53 A    53 B                  
  0.683   0.704   0.709   0.725   0.740   0.747   0.758   0.777
 54 B    54 A    55 B    55 A    56 A    56 B    57 A    57 B                  
  0.779   0.808   0.842   0.851   0.853   0.864   0.866   0.908
 58 A    59 A    58 B    60 A    59 B    60 B    61 A    61 B                  
  0.927   0.928   0.931   0.941   0.957   0.970   0.988   1.014
 62 B    62 A    63 A    64 A    63 B    65 A    64 B    66 A                  
  1.017   1.027   1.040   1.058   1.063   1.069   1.096   1.101
 65 B    67 A    66 B    68 A    67 B    68 B    69 A    69 B                  
  1.130   1.142   1.161   1.173   1.198   1.218   1.222   1.248
 70 A    70 B    71 A    72 A    71 B    73 A    72 B    73 B                  
  1.276   1.281   1.295   1.314   1.332   1.338   1.346   1.359
 74 A    74 B    75 B    75 A    76 A    76 B    77 B    77 A                  
  1.376   1.377   1.388   1.402   1.424   1.430   1.441   1.465
 78 B    78 A    79 A    79 B    80 A    80 B    81 A    81 B                  
  1.478   1.507   1.514   1.539   1.562   1.585   1.588   1.606
 82 A    82 B    83 B    83 A    84 B    84 A    85 B    85 A                  
  1.653   1.677   1.680   1.704   1.719   1.726   1.744   1.763
 86 A    86 B    87 A    87 B    88 B    88 A    89 B    89 A                  
  1.775   1.783   1.814   1.867   1.907   1.916   1.925   1.946
 90 B    90 A    91 B    91 A    92 A    92 B    93 A    93 B                  
  1.996   2.001   2.017   2.033   2.049   2.050   2.082   2.087
 94 A    95 A    94 B    95 B    96 B    96 A    97 A    97 B                  
  2.117   2.126   2.152   2.170   2.194   2.209   2.248   2.277
 98 A    98 B    99 B    99 A   100 A   100 B   101 A   101 B                  
  2.288   2.323   2.326   2.341   2.355   2.360   2.400   2.401
102 A   102 B   103 A   103 B   104 A   104 B   105 B   105 A                  
  2.418   2.440   2.487   2.513   2.519   2.538   2.539   2.576
106 A   106 B   107 B   107 A   108 B   108 A   109 B   109 A                  
  2.590   2.595   2.608   2.612   2.627   2.637   2.693   2.719
110 A   110 B   111 A   111 B   112 A   112 B   113 A   113 B                  
  2.720   2.733   2.755   2.770   2.794   2.826   2.830   2.833
114 A   114 B   115 B   115 A   116 A   117 A   116 B   118 A                  
  2.858   2.871   2.884   2.888   2.946   2.988   2.990   3.006
117 B   118 B   119 A   119 B   120 A   121 A   120 B   122 A                  
  3.007   3.048   3.052   3.057   3.070   3.071   3.095   3.100
121 B   123 A   122 B   124 A   125 A   123 B   126 A   124 B                  
  3.112   3.131   3.157   3.163   3.167   3.167   3.178   3.180
127 A   125 B   126 B   127 B   128 B   128 A   129 B   129 A                  
  3.220   3.228   3.257   3.259   3.274   3.286   3.288   3.297
130 B   130 A   131 B   131 A   132 A   133 A   132 B   134 A                  
  3.307   3.315   3.317   3.337   3.340   3.348   3.357   3.362
133 B   135 A   134 B   135 B   136 A   137 A   136 B   138 A                  
  3.368   3.393   3.402   3.413   3.418   3.425   3.452   3.456
137 B   138 B   139 A   140 A   139 B   141 A   142 A   140 B                  
  3.484   3.515   3.540   3.567   3.570   3.578   3.601   3.615
141 B   143 A   142 B   144 A   143 B   145 A   144 B   146 A                  
  3.626   3.629   3.673   3.694   3.715   3.719   3.739   3.742
145 B   147 A   146 B   147 B   148 A   148 B   149 A   149 B                  
  3.754   3.804   3.816   3.820   3.842   3.844   3.874   3.887
150 A   150 B   151 A   151 B   152 A   152 B   153 A   154 A                  
  3.890   3.898   3.931   3.965   3.970   4.000   4.000   4.025
153 B   154 B   155 A   155 B   156 A   157 A   156 B   158 A                  
  4.027   4.053   4.058   4.067   4.105   4.116   4.119   4.148
157 B   158 B   159 A   160 A   159 B   161 A   160 B   161 B                  
  4.161   4.164   4.206   4.216   4.253   4.262   4.313   4.363
162 A   162 B   163 A   164 A   163 B   164 B   165 A   165 B                  
  4.375   4.382   4.385   4.436   4.464   4.472   4.474   4.506
166 A   167 A   166 B   167 B   168 A   168 B   169 A   170 A                  
  4.527   4.554   4.575   4.590   4.606   4.609   4.655   4.686
169 B   170 B   171 B   171 A   172 B   172 A   173 A   173 B                  
  4.719   4.737   4.755   4.823   4.837   4.877   4.886   4.892
174 B   174 A   175 A   175 B   176 A   176 B   177 A   177 B                  
  4.905   4.926   4.945   5.027   5.070   5.077   5.114   5.149
178 A   178 B   179 A   179 B   180 B   180 A   181 B   181 A                  
  5.214   5.229   5.257   5.267   5.335   5.385   5.426   5.485
182 A   182 B   183 A   183 B   184 A   184 B   185 A   186 A                  
  5.506   5.643   5.738   5.806   5.902   5.918   5.985   6.033
185 B   186 B   187 A   187 B   188 A   188 B   189 A   189 B                  
  6.077   6.084   6.384   6.396   6.552   6.609   9.285  10.585
190 A   190 B   191 A   191 B   192 A   192 B   193 A   193 B                  
 11.877  12.234  13.258  13.360  14.671  14.689
194 A   194 B   195 A   195 B   196 B   196 A                                  
 --------------------------------------------------------------
 
          Ground-State Mulliken Net Atomic Charges

     Atom                 Charge (a.u.)    Spin (a.u.)
  --------------------------------------------------------
      1 S                     0.287374      -0.029244
      2 C                    -0.113952      -0.134089
      3 C                    -0.158629       0.552439
      4 C                    -0.132394      -0.366965
      5 C                    -0.067648       0.471921
      6 H                     0.218717       0.026338
      7 C                    -0.067648       0.471921
      8 S                     0.287374      -0.029244
      9 C                    -0.132394      -0.366965
     10 C                    -0.113952      -0.134089
     11 C                    -0.158629       0.552439
     12 H                     0.224332      -0.039594
     13 H                     0.242200       0.019195
     14 H                     0.224332      -0.039594
     15 H                     0.242200       0.019195
     16 H                     0.218717       0.026338
  --------------------------------------------------------
  Sum of atomic charges =     1.000000
  Sum of spin   charges =     1.000000

 -----------------------------------------------------------------
                    Cartesian Multipole Moments
 -----------------------------------------------------------------
    Charge (ESU x 10^10)
                 4.8032
    Dipole Moment (Debye)
         X      -0.0000      Y      -0.0000      Z       0.7112
       Tot       0.7112
    Quadrupole Moments (Debye-Ang)
        XX     -21.6364     XY       0.5370     YY     -60.4323
        XZ      -0.0000     YZ      -0.0000     ZZ     -68.6628
[...]
 ******************************

                       Coordinates (Angstroms)
     ATOM                X               Y               Z
      1  S         1.8111242863   -1.1541459941   -0.4761420031
      2  C         3.0890956802   -0.2689307755    0.0961478027
      3  C         2.7314767185    0.9566076547    0.6292493511
      4  C         1.3854028911    1.1780026857    0.5259050598
      5  C         0.6953241570    0.1386993499   -0.0932395519
      6  H         0.8890969972    2.0578062371    0.8971889941
      7  C        -0.6953241570   -0.1386993499   -0.0932395519
      8  S        -1.8111242863    1.1541459941   -0.4761420031
      9  C        -1.3854028911   -1.1780026857    0.5259050598
     10  C        -3.0890956802    0.2689307755    0.0961478027
     11  C        -2.7314767185   -0.9566076547    0.6292493511
     12  H        -3.4374919240   -1.6284917061    1.0788300560
     13  H         4.0907325101   -0.6521984129    0.0161398142
     14  H         3.4374919240    1.6284917061    1.0788300560
     15  H        -4.0907325101    0.6521984129    0.0161398142
     16  H        -0.8890969972   -2.0578062371    0.8971889941

Z-matrix Print:
$molecule
1 2
S 
C  1 1.656603
H  2 1.075440 1 120.156557
C  2 1.383486 1 114.020057 3 -178.795801 0
H  4 1.073317 2 123.085755 1 -177.284051 0
C  4 1.368068 2 111.628205 1 1.761943 0
H  6 1.076209 4 124.054634 2 -178.514275 0
C  6 1.392731 4 113.599340 2 0.492584 0
C  8 1.418045 6 129.189823 4 -163.301347 0
C  9 1.392731 8 129.189823 6 110.000000 0
H  10 1.076209 9 122.338292 8 15.724792 0
C  10 1.368068 9 113.599340 8 -163.301347 0
H  12 1.073317 10 125.278462 9 179.513450 0
C  12 1.383486 10 111.628205 9 0.492584 0
H  14 1.075440 12 125.811061 10 -176.954097 0
S  14 1.656603 12 114.020057 10 1.761943 0
$end

 
 --------------------------------------------------------------
             Orbital Energies (a.u.) and Symmetries
 --------------------------------------------------------------
 
 Alpha MOs, Unrestricted
 -- Occupied --                  
-92.159 -92.159 -11.479 -11.478 -11.452 -11.452 -11.436 -11.436
  1 A     1 B     2 A     2 B     3 B     3 A     4 B     4 A                  
-11.403 -11.403  -9.162  -9.162  -6.842  -6.842  -6.842  -6.842
  5 B     5 A     6 A     6 B     7 B     7 A     8 A     8 B                  
 -6.840  -6.840  -1.395  -1.365  -1.230  -1.195  -1.180  -1.130
  9 B     9 A    10 A    10 B    11 A    11 B    12 A    12 B                  
 -0.997  -0.959  -0.930  -0.906  -0.888  -0.824  -0.756  -0.749
 13 A    13 B    14 A    14 B    15 A    15 B    16 A    17 A                  
 -0.748  -0.737  -0.734  -0.711  -0.693  -0.662  -0.644  -0.572
 16 B    18 A    17 B    18 B    19 A    19 B    20 A    21 A                  
 -0.535  -0.519  -0.487
 20 B    22 A    21 B                                                          
 -- Virtual --                   
 -0.113  -0.050  -0.000   0.002   0.021   0.030   0.032   0.039
 23 A    22 B    24 A    23 B    25 A    24 B    26 A    25 B                  
  0.048   0.054   0.072   0.073   0.097   0.116   0.161   0.176
 26 B    27 A    28 A    27 B    28 B    29 A    29 B    30 A                  
  0.198   0.203   0.206   0.209   0.234   0.240   0.254   0.268
 30 B    31 A    31 B    32 A    33 A    32 B    33 B    34 A                  
  0.278   0.284   0.289   0.299   0.308   0.318   0.336   0.343
 35 A    34 B    35 B    36 A    37 A    36 B    37 B    38 A                  
  0.362   0.363   0.364   0.373   0.377   0.385   0.394   0.413
 39 A    38 B    39 B    40 A    40 B    41 A    41 B    42 A                  
  0.420   0.429   0.436   0.436   0.457   0.463   0.466   0.467
 42 B    43 A    44 A    43 B    44 B    45 A    45 B    46 A                  
  0.474   0.486   0.500   0.502   0.509   0.511   0.537   0.541
 46 B    47 A    47 B    48 A    48 B    49 A    49 B    50 A                  
  0.589   0.601   0.621   0.624   0.630   0.653   0.671   0.675
 51 A    50 B    51 B    52 A    52 B    53 A    53 B    54 B                  
  0.685   0.714   0.715   0.735   0.750   0.757   0.773   0.777
 54 A    55 B    55 A    56 A    56 B    57 A    58 A    59 A                  
  0.791   0.827   0.845   0.849   0.869   0.871   0.915   0.915
 57 B    58 B    59 B    60 A    60 B    61 A    61 B    62 A                  
  0.921   0.922   0.945   0.948   0.981   0.986   1.002   1.006
 63 A    62 B    63 B    64 A    64 B    65 A    65 B    66 A                  
  1.026   1.031   1.045   1.061   1.064   1.078   1.103   1.117
 67 A    66 B    67 B    68 A    68 B    69 B    69 A    70 A                  
  1.138   1.154   1.167   1.194   1.200   1.220   1.233   1.270
 70 B    71 A    72 A    71 B    73 A    72 B    73 B    74 A                  
  1.282   1.295   1.295   1.318   1.332   1.339   1.356   1.364
 74 B    75 A    75 B    76 A    76 B    77 B    77 A    78 A                  
  1.374   1.390   1.399   1.410   1.415   1.433   1.458   1.473
 78 B    79 A    79 B    80 A    80 B    81 A    81 B    82 A                  
  1.501   1.511   1.525   1.547   1.584   1.588   1.611   1.647
 82 B    83 B    83 A    84 B    84 A    85 B    85 A    86 A                  
  1.672   1.695   1.703   1.714   1.735   1.740   1.758   1.790
 86 B    87 A    87 B    88 A    88 B    89 B    89 A    90 A                  
  1.792   1.813   1.858   1.893   1.902   1.928   1.935   1.980
 90 B    91 B    91 A    92 A    92 B    93 A    93 B    94 A                  
  2.012   2.013   2.024   2.045   2.045   2.094   2.107   2.107
 95 A    94 B    95 B    96 B    96 A    97 A    98 A    97 B                  
  2.114   2.157   2.168   2.179   2.182   2.251   2.268   2.295
 98 B    99 A    99 B   100 B   100 A   101 A   101 B   102 A                  
  2.303   2.323   2.325   2.334   2.354   2.388   2.397   2.400
102 B   103 A   104 A   103 B   104 B   105 A   105 B   106 A                  
  2.439   2.485   2.504   2.519   2.532   2.534   2.581   2.584
106 B   107 B   108 B   107 A   109 B   108 A   109 A   110 B                  
  2.597   2.606   2.621   2.622   2.642   2.686   2.699   2.716
111 B   110 A   112 B   111 A   112 A   113 A   113 B   114 A                  
  2.718   2.746   2.766   2.780   2.829   2.831   2.839   2.846
114 B   115 B   115 A   116 A   117 A   116 B   117 B   118 A                  
  2.853   2.883   2.887   2.937   2.980   2.991   3.006   3.008
118 B   119 B   119 A   120 A   121 A   120 B   122 A   121 B                  
  3.035   3.040   3.054   3.056   3.064   3.085   3.097   3.107
123 A   122 B   124 A   123 B   125 A   126 A   124 B   127 A                  
  3.110   3.126   3.136   3.143   3.165   3.180   3.202   3.215
125 B   126 B   128 A   127 B   128 B   129 A   129 B   130 A                  
  3.233   3.241   3.255   3.267   3.276   3.279   3.289   3.298
131 A   130 B   132 A   131 B   133 A   132 B   133 B   134 A                  
  3.307   3.310   3.324   3.325   3.336   3.347   3.357   3.358
134 B   135 A   135 B   136 A   137 A   136 B   137 B   138 A                  
  3.387   3.390   3.406   3.409   3.418   3.443   3.458   3.469
138 B   139 A   139 B   140 A   141 A   142 A   140 B   141 B                  
  3.490   3.526   3.551   3.566   3.569   3.586   3.594   3.607
143 A   142 B   144 A   143 B   145 A   146 A   144 B   145 B                  
  3.636   3.662   3.691   3.696   3.726   3.729   3.753   3.767
147 A   146 B   148 A   147 B   148 B   149 A   149 B   150 A                  
  3.804   3.813   3.821   3.835   3.835   3.876   3.881   3.888
150 B   151 B   151 A   152 A   152 B   153 A   153 B   154 B                  
  3.898   3.919   3.950   3.955   3.995   3.999   4.017   4.025
154 A   155 A   156 A   155 B   157 A   156 B   158 A   157 B                  
  4.054   4.062   4.081   4.116   4.118   4.129   4.143   4.152
158 B   159 A   160 A   159 B   160 B   161 A   161 B   162 A                  
  4.155   4.210   4.225   4.241   4.246   4.320   4.350   4.357
162 B   163 A   164 A   163 B   164 B   165 A   165 B   166 A                  
  4.382   4.391   4.429   4.460   4.476   4.484   4.514   4.519
167 A   166 B   167 B   168 A   169 A   168 B   170 A   169 B                  
  4.550   4.576   4.581   4.594   4.597   4.654   4.679   4.715
170 B   171 A   171 B   172 B   172 A   173 A   173 B   174 B                  
  4.734   4.751   4.828   4.834   4.857   4.882   4.891   4.901
174 A   175 A   176 A   175 B   176 B   177 A   177 B   178 A                  
  4.930   4.957   5.029   5.053   5.082   5.103   5.157   5.209
178 B   179 A   179 B   180 B   180 A   181 B   181 A   182 A                  
  5.231   5.255   5.267   5.327   5.384   5.422   5.475   5.489
182 B   183 A   183 B   184 A   184 B   185 A   186 A   185 B                  
  5.653   5.713   5.784   5.905   5.923   5.991   6.018   6.061
186 B   187 A   187 B   188 A   188 B   189 A   189 B   190 A                  
  6.098   6.379   6.383   6.524   6.607   9.199  10.573  11.834
190 B   191 A   191 B   192 A   192 B   193 A   193 B   194 A                  
 12.401  13.280  13.387  14.651  14.682
194 B   195 A   195 B   196 B   196 A                                          
 
 Beta MOs, Unrestricted
 -- Occupied --                  
-92.161 -92.161 -11.478 -11.477 -11.440 -11.440 -11.429 -11.429
  1 A     1 B     2 A     2 B     3 B     3 A     4 A     4 B                  
-11.409 -11.409  -9.163  -9.163  -6.844  -6.844  -6.843  -6.843
  5 B     5 A     6 A     6 B     7 B     7 A     8 A     8 B                  
 -6.843  -6.843  -1.382  -1.350  -1.218  -1.186  -1.175  -1.107
  9 A     9 B    10 A    10 B    11 A    11 B    12 A    12 B                  
 -0.989  -0.949  -0.918  -0.901  -0.887  -0.819  -0.745  -0.744
 13 A    13 B    14 A    14 B    15 A    15 B    16 A    16 B                  
 -0.740  -0.729  -0.721  -0.680  -0.667  -0.659  -0.642  -0.535
 17 A    17 B    18 A    19 A    18 B    19 B    20 A    21 A                  
 -0.535  -0.499
 20 B    22 A                                                                  
 -- Virtual --                   
 -0.194  -0.053  -0.015   0.006   0.008   0.024   0.030   0.047
 21 B    23 A    22 B    24 A    23 B    25 A    24 B    26 A                  
  0.049   0.057   0.060   0.072   0.077   0.100   0.117   0.162
 25 B    27 A    26 B    28 A    27 B    28 B    29 A    29 B                  
  0.178   0.201   0.206   0.210   0.211   0.237   0.241   0.258
 30 A    30 B    31 A    31 B    32 A    33 A    32 B    33 B                  
  0.273   0.287   0.290   0.296   0.309   0.315   0.321   0.338
 34 A    35 A    34 B    35 B    36 A    37 A    36 B    37 B                  
  0.348   0.366   0.371   0.378   0.379   0.394   0.396   0.406
 38 A    38 B    39 A    40 A    39 B    40 B    41 A    41 B                  
  0.418   0.424   0.429   0.444   0.447   0.464   0.465   0.470
 42 A    42 B    43 A    43 B    44 A    44 B    45 A    46 A                  
  0.470   0.485   0.490   0.501   0.505   0.516   0.516   0.542
 45 B    46 B    47 A    47 B    48 A    49 A    48 B    49 B                  
  0.546   0.594   0.603   0.623   0.624   0.633   0.654   0.674
 50 A    51 A    50 B    51 B    52 A    52 B    53 A    53 B                  
  0.680   0.687   0.718   0.719   0.745   0.756   0.759   0.774
 54 B    54 A    55 B    55 A    56 A    56 B    57 A    58 A                  
  0.782   0.793   0.829   0.849   0.852   0.871   0.873   0.917
 59 A    57 B    58 B    59 B    60 A    61 A    60 B    61 B                  
  0.922   0.925   0.927   0.954   0.955   0.983   0.988   1.004
 62 A    62 B    63 A    64 A    63 B    64 B    65 A    65 B                  
  1.010   1.030   1.036   1.048   1.064   1.064   1.084   1.104
 66 A    67 A    66 B    67 B    68 B    68 A    69 B    69 A                  
  1.121   1.139   1.160   1.173   1.197   1.208   1.230   1.241
 70 A    70 B    71 A    72 A    71 B    73 A    72 B    73 B                  
  1.274   1.285   1.297   1.299   1.321   1.336   1.347   1.364
 74 A    74 B    75 B    75 A    76 A    76 B    77 B    77 A                  
  1.365   1.374   1.395   1.401   1.409   1.418   1.438   1.463
 78 A    78 B    79 A    79 B    80 A    80 B    81 A    81 B                  
  1.476   1.502   1.514   1.530   1.551   1.589   1.592   1.610
 82 A    82 B    83 B    83 A    84 B    84 A    85 B    85 A                  
  1.647   1.672   1.694   1.705   1.713   1.738   1.738   1.759
 86 A    86 B    87 A    87 B    88 A    88 B    89 B    89 A                  
  1.792   1.794   1.814   1.857   1.894   1.902   1.929   1.936
 90 B    90 A    91 B    91 A    92 A    92 B    93 A    93 B                  
  1.983   2.011   2.014   2.025   2.046   2.047   2.096   2.112
 94 A    94 B    95 A    95 B    96 B    96 A    97 A    97 B                  
  2.118   2.124   2.159   2.170   2.182   2.186   2.256   2.265
 98 A    98 B    99 A    99 B   100 B   100 A   101 A   101 B                  
  2.295   2.307   2.325   2.332   2.338   2.366   2.397   2.405
102 A   102 B   103 A   104 A   103 B   104 B   105 A   105 B                  
  2.411   2.447   2.491   2.508   2.521   2.536   2.536   2.585
106 A   106 B   107 B   108 B   107 A   109 B   108 A   109 A                  
  2.588   2.606   2.613   2.628   2.628   2.646   2.688   2.707
110 B   111 B   110 A   112 B   111 A   112 A   113 A   113 B                  
  2.723   2.724   2.753   2.774   2.784   2.836   2.836   2.847
114 B   114 A   115 B   115 A   116 A   116 B   117 A   117 B                  
  2.850   2.861   2.886   2.888   2.941   2.986   3.000   3.010
118 A   118 B   119 B   119 A   120 A   121 A   120 B   122 A                  
  3.017   3.040   3.040   3.057   3.060   3.070   3.090   3.101
121 B   123 A   122 B   124 A   123 B   125 A   126 A   124 B                  
  3.115   3.117   3.134   3.146   3.147   3.174   3.182   3.206
125 B   127 A   126 B   128 A   127 B   128 B   129 A   129 B                  
  3.217   3.237   3.246   3.259   3.273   3.280   3.282   3.294
130 A   131 A   130 B   132 A   131 B   132 B   133 A   133 B                  
  3.302   3.313   3.314   3.326   3.336   3.347   3.353   3.360
134 A   134 B   135 A   135 B   136 A   137 A   136 B   138 A                  
  3.367   3.391   3.393   3.410   3.413   3.423   3.447   3.463
137 B   138 B   139 A   139 B   140 A   141 A   142 A   140 B                  
  3.472   3.494   3.530   3.556   3.570   3.573   3.590   3.596
141 B   143 A   142 B   144 A   143 B   145 A   146 A   144 B                  
  3.611   3.640   3.668   3.695   3.700   3.730   3.733   3.754
145 B   147 A   146 B   148 A   147 B   148 B   149 A   149 B                  
  3.769   3.810   3.816   3.823   3.837   3.838   3.880   3.883
150 A   150 B   151 B   151 A   152 A   152 B   153 A   153 B                  
  3.891   3.901   3.921   3.952   3.958   3.998   4.001   4.017
154 B   154 A   155 A   156 A   155 B   157 A   156 B   158 A                  
  4.028   4.055   4.063   4.082   4.116   4.120   4.131   4.145
157 B   158 B   159 A   160 A   159 B   160 B   161 A   161 B                  
  4.154   4.157   4.213   4.227   4.242   4.247   4.321   4.351
162 A   162 B   163 A   164 A   163 B   164 B   165 A   165 B                  
  4.358   4.384   4.392   4.431   4.464   4.478   4.487   4.515
166 A   167 A   166 B   167 B   168 A   169 A   168 B   170 A                  
  4.521   4.552   4.579   4.583   4.595   4.598   4.655   4.681
169 B   170 B   171 A   171 B   172 B   172 A   173 A   173 B                  
  4.717   4.736   4.754   4.830   4.838   4.859   4.884   4.893
174 B   174 A   175 A   176 A   175 B   176 B   177 A   177 B                  
  4.903   4.932   4.959   5.030   5.054   5.088   5.109   5.158
178 A   178 B   179 A   179 B   180 B   180 A   181 B   181 A                  
  5.210   5.232   5.257   5.268   5.327   5.386   5.423   5.477
182 A   182 B   183 A   183 B   184 A   184 B   185 A   186 A                  
  5.490   5.654   5.714   5.785   5.905   5.924   5.991   6.019
185 B   186 B   187 A   187 B   188 A   188 B   189 A   189 B                  
  6.062   6.097   6.380   6.384   6.524   6.607   9.201  10.577
190 A   190 B   191 A   191 B   192 A   192 B   193 A   193 B                  
 11.838  12.406  13.283  13.389  14.652  14.684
194 A   194 B   195 A   195 B   196 B   196 A                                  
 --------------------------------------------------------------
 
          Ground-State Mulliken Net Atomic Charges

     Atom                 Charge (a.u.)    Spin (a.u.)
  --------------------------------------------------------
      1 S                     0.263461      -0.037410
      2 C                    -0.105674      -0.058733
      3 C                    -0.170655       0.442684
      4 C                    -0.116916      -0.256796
      5 C                    -0.051556       0.408415
      6 H                     0.215771       0.021260
      7 C                    -0.051556       0.408415
      8 S                     0.263461      -0.037410
      9 C                    -0.116916      -0.256796
     10 C                    -0.105674      -0.058733
     11 C                    -0.170655       0.442684
     12 H                     0.224644      -0.033627
     13 H                     0.240926       0.014207
     14 H                     0.224644      -0.033627
     15 H                     0.240926       0.014207
     16 H                     0.215771       0.021260
  --------------------------------------------------------
  Sum of atomic charges =     1.000000
  Sum of spin   charges =     1.000000

 -----------------------------------------------------------------
                    Cartesian Multipole Moments
 -----------------------------------------------------------------
    Charge (ESU x 10^10)
                 4.8032
    Dipole Moment (Debye)
         X      -0.0000      Y      -0.0000      Z       1.3186
       Tot       1.3186
    Quadrupole Moments (Debye-Ang)
        XX     -22.7686     XY      -0.6663     YY     -59.1084
        XZ      -0.0000     YZ      -0.0000     ZZ     -70.0103
    Octopole Moments (Debye-Ang^2)
       XXX      -0.0000    XXY       0.0000    XYY      -0.0000
       YYY      -0.0000    XXZ      11.4008    XYZ      14.2566
       YYZ       5.7790    XZZ      -0.0000    YZZ      -0.0000
       ZZZ      -9.0920
    Hexadecapole Moments (Debye-Ang^3)
      XXXX   -1272.2515   XXXY      -2.5311   XXYY    -344.2085
      XYYY      40.3249   YYYY    -440.5785   XXXZ      -0.0000
      XXYZ      -0.0000   XYYZ      -0.0000   YYYZ      -0.0000
      XXZZ    -352.9934   XYZZ      17.7615   YYZZ     -98.8689
      XZZZ      -0.0000   YZZZ      -0.0000   ZZZZ    -177.3707
 -----------------------------------------------------------------
Archival summary:
1\1\nid01554\OPT\MP2\BasisUnspecified\286(1+,2)\TueMar713:01:222017TueMar713:01:222017\0\\#,OPT,MP2,BasisUnspecified,\\1,2\S\C,1,1.6566\H,2,1.07544,1,120.157\C,2,1.38349,1,114.02,3,-178.796,0\H,4,1.07332,2,123.086,1,-177.284,0\C,4,1.36807,2,111.628,1,1.76194,0\H,6,1.07621,4,124.055,2,-178.514,0\C,6,1.39273,4,113.599,2,0.492584,0\C,8,1.41805,6,129.19,4,-163.301,0\C,9,1.39273,8,129.19,6,110,0\H,10,1.07621,9,122.338,8,15.7248,0\C,10,1.36807,9,113.599,8,-163.301,0\H,12,1.07332,10,125.278,9,179.513,0\C,12,1.38349,10,111.628,9,0.492584,0\H,14,1.07544,12,125.811,10,-176.954,0\S,14,1.6566,12,114.02,10,1.76194,0\\HF=-1101.34486\MP2=-1103.0949\\@

 Total job time:  28504.93s(wall), 139257.45s(cpu) 
 Tue Mar  7 13:01:22 2017

        *************************************************************
        *                                                           *
        *  Thank you very much for using Q-Chem.  Have a nice day.  *
        *                                                           *
        *************************************************************


0 sent ACK to 0 
now end server 0 ... 
