srun -N 1 --ntasks-per-node 1 --cpus-per-task 64 --cpu_bind=cores --nodelist nid01569 /global/project/projectdirs/jcesr/qchem/qc44/cnl_qc441/dist/exe/qcprog.cori.haswell.exe .pt_mp2_hole_-60.0.in.59786.qcin.1 /dev/shm/eg_qchem/qchem59786/
Process 0 of 1 is on nid01569 - thread support 0
initial socket setup ...start
initial socket setup ...done 
now start server 0 ... 
nid01569 10.128.6
Q-Chem Developer Version! Running on 10.128.6.*
                  Welcome to Q-Chem
     A Quantum Leap Into The Future Of Chemistry


 Q-Chem 4.4, Q-Chem, Inc., Pleasanton, CA (2016)

 Y. Shao,  Z. Gan,  E. Epifanovsky,  A. T. B. Gilbert,  M. Wormit,  
 J. Kussmann,  A. W. Lange,  A. Behn,  J. Deng,  X. Feng,  D. Ghosh,  
 M. Goldey,  P. R. Horn,  L. D. Jacobson,  I. Kaliman,  F.Rob,  
 R. Z. Khaliullin,  T. Kus,  A. Landau,  J. Liu,  E. I. Proynov,  Y. M. Rhee,  
 R. M. Richard,  M. A. Rohrdanz,  R. P. Steele,  E. J. Sundstrom,  
 H. L. Woodcock III,  P. M. Zimmerman,  D. Zuev,  B. Albrecht,  E. Alguire,  
 B. Austin,  S. A. Baeppler,  G. J. O. Beran,  Y. A. Bernard,  E. Berquist,  
 K. Brandhorst,  K. B. Bravaya,  S. T. Brown,  D. Casanova,  C.-M. Chang,  
 Y. Chen,  S. H. Chien,  K. D. Closser,  M. P. Coons,  D. L. Crittenden,  
 S. Dasgupta,  M. Diedenhofen,  R. A. DiStasio Jr.,  H. Do,  A. D. Dutoi,  
 R. G. Edgar,  P.-T. Fang,  S. Fatehi,  Q. Feng,  L. Fusti-Molnar,  
 A. Ghysels,  A. Golubeva-Zadorozhnaya,  J. Gomes,  A. Gunina,  
 M. W. D. Hanson-Heine,  P. H. P. Harbach,  A. W. Hauser,  E. G. Hohenstein,  
 Z. C. Holden,  K. Hui,  T.-C. Jagau,  H. Ji,  B. Kaduk,  K. Khistyaev,  
 Jaehoon Kim,  Jihan Kim,  R. A. King,  P. Klunzinger,  D. Kosenkov,  
 T. Kowalczyk,  C. M. Krauter,  A. Kunitsa,  K. U. Lao,  A. Laurent,  
 K. V. Lawler,  D. Lefrancois,  S. Lehtola,  S. V. Levchenko,  C. Y. Lin,  
 Y.-S. Lin,  F. Liu,  E. Livshits,  R. C. Lochan,  A. Luenser,  P. Manohar,  
 S. F. Manzer,  S.-P. Mao,  Y. Mao,  N. Mardirossian,  A. V. Marenich,  
 L. A. Martinez-Martinez,  S. A. Maurer,  N. J. Mayhall,  J.-M. Mewes,  
 A. F. Morrison,  K. Nanda,  C. M. Oana,  R. Olivares-Amaya,  D. P. O'Neill,  
 J. A. Parkhill,  T. M. Perrine,  R. Peverati,  P. A. Pieniazek,  F. Plasser,  
 A. Prociuk,  D. R. Rehn,  E. Rosta,  N. J. Russ,  N. Sergueev,  
 S. M. Sharada,  S. Sharma,  D. W. Small,  A. Sodt,  T. Stauch,  T. Stein,  
 D. Stuck,  Y.-C. Su,  A. J. W. Thom,  T. Tsuchimochi,  L. Vogt,  O. Vydrov,  
 T. Wang,  M. A. Watson,  J. Wenzel,  A. White,  C. F. Williams,  
 V. Vanovschi,  S. Yeganeh,  S. R. Yost,  Z.-Q. You,  I. Y. Zhang,  X. Zhang,  
 Y. Zhao,  B. R. Brooks,  G. K. L. Chan,  D. M. Chipman,  C. J. Cramer,  
 W. A. Goddard III,  M. S. Gordon,  W. J. Hehre,  A. Klamt,  
 H. F. Schaefer III,  M. W. Schmidt,  C. D. Sherrill,  D. G. Truhlar,  
 A. Warshel,  X. Xu,  A. Aspuru-Guzik,  R. Baer,  A. T. Bell,  N. A. Besley,  
 J.-D. Chai,  A. Dreuw,  B. D. Dunietz,  T. R. Furlani,  S. R. Gwaltney,  
 C.-P. Hsu,  Y. Jung,  J. Kong,  D. S. Lambrecht,  W. Liang,  C. Ochsenfeld,  
 V. A. Rassolov,  L. V. Slipchenko,  J. E. Subotnik,  T. Van Voorhis,  
 J. M. Herbert,  A. I. Krylov,  P. M. W. Gill,  M. Head-Gordon

 Contributors to earlier versions of Q-Chem not listed above: 
 R. D. Adamson,  J. Baker,  E. F. C. Byrd,  A. K. Chakraborty,  C.-L. Cheng,  
 H. Dachsel,  R. J. Doerksen,  G. Hawkins,  A. Heyden,  S. Hirata,  
 G. Kedziora,  F. J. Keil,  C. Kelley,  P. P. Korambath,  W. Kurlancheek,  
 A. M. Lee,  M. S. Lee,  D. Liotard,  I. Lotan,  P. E. Maslen,  N. Nair,  
 D. Neuhauser,  R. Olson,  B. Peters,  J. Ritchie,  N. E. Schultz,  
 N. Shenvi,  A. C. Simmonett,  K. S. Thanthiriwatte,  Q. Wu,  W. Zhang

 Please cite Q-Chem as follows:
 Y. Shao et al., Mol. Phys. 113, 184-215 (2015)
 DOI: 10.1080/00268976.2014.952696

 Q-Chem 4.4.1 for Intel X86 EM64T Linux

 Parts of Q-Chem use Armadillo 5.200.1 (Boston Tea Smuggler).
 http://arma.sourceforge.net/

 Q-Chem begins on Tue Mar  7 05:06:16 2017  

Host: nid01545
0

     Scratch files written to /dev/shm/eg_qchem/qchem59786//
 Parallel job on  1  processors

Checking the input file for inconsistencies... 	...done.

--------------------------------------------------------------
User input:
--------------------------------------------------------------
$molecule
 1  2
 S           1.81042700       -1.22909900       -0.13996800
 C           3.10211600       -0.18861200       -0.13982200
 C           2.74845300        1.15163900       -0.14006900
 C           1.39169900        1.31613900       -0.14029100
 C           0.68906700        0.11310500       -0.14015500
 H           0.90454800        2.27578700       -0.14040700
 C          -0.68906700       -0.11310500       -0.14015500
 S          -1.44447156       -1.00040291       -1.44438896
 C          -1.65249881        0.27272571        0.78931601
 C          -2.93483800       -0.83049194       -0.73656706
 C          -2.91643756       -0.12823052        0.45835580
 H          -3.80098230        0.06449234        1.03510166
 H           4.10439600       -0.57731800       -0.13934700
 H           3.47107900        1.94537000       -0.13983300
 H          -3.80452805       -1.24956065       -1.20951357
 H          -1.41461842        0.83170331        1.67768382
$end


$rem
         jobtype = opt
        exchange = hf
           basis = cc-pvtz
  max_scf_cycles = 100
      mem_static = 6200
       mem_total = 62000
          method = mp2
$end


$opt
CONSTRAINT
tors 4 5 7 9 -60.0
ENDCONSTRAINT
$end

--------------------------------------------------------------
 Atom  11: ( -2.8671095321,  0.5490662618, -0.9092386743)
         ->( -2.8671095297,  0.5490662610, -0.9092386794)
 Atom  16: ( -1.1840518476,  1.1359412125, -2.1284962888)
         ->( -1.1840518427,  1.1359412073, -2.1284962850)
 Atom  14: (  3.6831866560, -0.9404243768, -1.4863471969)
         ->(  3.6831866534, -0.9404243799, -1.4863471914)
 Atom  15: ( -3.9904079163, -0.3372035651,  0.7582746684)
         ->( -3.9904079137, -0.3372035698,  0.7582746716)
 ----------------------------------------------------------------
             Standard Nuclear Orientation (Angstroms)
    I     Atom           X                Y                Z
 ----------------------------------------------------------------
    1      S       1.6365980868     0.6392118992     0.9938227528
    2      C       3.0473529256     0.1298928993     0.2856994355
    3      C       2.8671095297    -0.5490662610    -0.9092386794
    4      C       1.5446991095    -0.6472324607    -1.2400494919
    5      C       0.6965488758    -0.0492517415    -0.3105104709
    6      H       1.1840518427    -1.1359412073    -2.1284962850
    7      C      -0.6965488772     0.0492517439    -0.3105104709
    8      S      -1.6365980832    -0.6392119001     0.9938227510
    9      C      -1.5446991106     0.6472324598    -1.2400494925
   10      C      -3.0473529295    -0.1298929015     0.2856994378
   11      C      -2.8671095297     0.5490662610    -0.9092386794
   12      H      -3.6831866534     0.9404243799    -1.4863471914
   13      H       3.9904079137     0.3372035698     0.7582746716
   14      H       3.6831866534    -0.9404243799    -1.4863471914
   15      H      -3.9904079137    -0.3372035698     0.7582746716
   16      H      -1.1840518427     1.1359412073    -2.1284962850
 ----------------------------------------------------------------
 Molecular Point Group                 C2    NOp =  2
 Largest Abelian Subgroup              C2    NOp =  2
 Nuclear Repulsion Energy =   640.9680720260 hartrees
 There are       43 alpha and       42 beta electrons
 Requested basis set is cc-pVTZ
 There are 140 shells and 392 basis functions

 Total QAlloc Memory Limit  62000 MB
 Mega-Array Size      6061 MB
 MEM_STATIC part      6200 MB
 A cutoff of  1.0D-11 yielded   8067 shell pairs
 There are     62815 function pairs (     81883 Cartesian)
 
 -------------------------------------------------------
 OpenMP Integral Computing Module                       
 Release: version 1.0, May 2013, Q-Chem Inc. Pittsburgh 
 -------------------------------------------------------
 Integral Job Info:
 Integral job number is                      11
 Integral operator is                         1
 short-range coefficients                     0
 long-range coefficients              100000000
 Omega coefficients                           0
 if combine SR and LR in K                    0
 Integral screening is                        0
 Integral computing path is                   2
 max size of driver memory is            800000
 size of driver memory is                776718
 size of scratch memory is             26248924
 max col of scratch BK array              10000
 max len of scratch array in speh3          662
 max len of scratch index in speh4           32
 max int batch size is                      520
 min int batch size is                       52
 fixed nKL is                                52
 max L of basis functions is                  3
 order of int derivative is                   0
 number of shells is                        140
 number of basis is                         448
 number of cartesian basis is               448
 number of contracted shell pairs          8067
 number of primitive shell pairs          28661
 maxK2 (contraction) of shell pair          121
 max number of K2 of shell pair               1
 max number of CS2 of shell pair           1066
 max number of PS2 of shell pair           3136
 mem total for path MDJ                  225820
 -------------------------------------------------------
 Smallest overlap matrix eigenvalue = 7.64E-05

 Scale SEOQF with 1.000000e-01/1.000000e+00/1.000000e-01

 Standard Electronic Orientation quadrupole field applied
 Nucleus-field energy     =     0.0000000247 hartrees
 Guess from superposition of atomic densities
 Warning:  Energy on first SCF cycle will be non-variational
 An unrestricted Hartree-Fock SCF calculation will be
 performed using Pulay DIIS extrapolation
 SCF converges when DIIS error is below 1.0E-08
 using 16 threads for integral computing 
 ---------------------------------------
  Cycle       Energy         DIIS Error
 ---------------------------------------
    1   -1106.1577689361      3.05E-02
    2   -1083.4987128605      2.07E-02
    3   -1092.2409005032      1.20E-02
    4   -1098.2150787102      7.02E-03
    5   -1101.1397641226      2.83E-03
    6   -1101.3134614489      8.40E-04
    7   -1101.3304038565      2.81E-04
    8   -1101.3340440377      9.36E-05
    9   -1101.3356535208      4.49E-05
   10   -1101.3365122494      3.03E-05
   11   -1101.3373077221      2.19E-05
   12   -1101.3380581239      1.71E-05
   13   -1101.3388652726      1.19E-05
   14   -1101.3393367733      7.13E-06
   15   -1101.3394131375      4.06E-06
   16   -1101.3394289418      2.55E-06
   17   -1101.3394373414      1.53E-06
   18   -1101.3394400590      6.56E-07
   19   -1101.3394403597      2.49E-07
   20   -1101.3394404088      8.91E-08
   21   -1101.3394404190      4.60E-08
   22   -1101.3394404244      2.18E-08
   23   -1101.3394404251      9.60E-09 Convergence criterion met
 ---------------------------------------
 <S^2> = 1.0091
 SCF time:  CPU 1075.04 s  wall 67.27 s
 SCF   energy in the final basis set = -1101.3394404251
 Total energy in the final basis set = -1101.3394404251
 
 Components of the MP2 correlation energy:
        aaaa  correlation energy =        -0.2343049539 au
        abab  correlation energy =        -1.3052085151 au
        bbbb  correlation energy =        -0.2129519715 au
        non-Brillouin singles    =        -0.0000000000 au

 Total  MP2   correlation energy =        -1.7524654405 au
        MP2         total energy =     -1103.0919058656 au

  Entering Z-vector solver.
   1         0           1      0.000542    0.000542
   2         0           1      0.000494    0.000494
   3         0           1      0.000362    0.000362
   4         0           1      0.000301    0.000301
   5         0           1      0.000134    0.000134
   6         0           1      0.000070    0.000070
   7         0           1      0.000039    0.000039
   8         0           1      0.000023    0.000023
   9         0           1      0.000011    0.000011
  10         0           1      0.000005    0.000005
  11         0           1      0.000002    0.000002
  12         0           1      0.000001    0.000001
  13         1           0      0.000000    0.000000    Roots Converged
 Warning:  Cannot save MP2 spin density
 
 --------------------------------------------------------------
             Orbital Energies (a.u.) and Symmetries
 --------------------------------------------------------------
 
 Alpha MOs, Unrestricted
 -- Occupied --                  
-92.161 -92.161 -11.474 -11.473 -11.451 -11.451 -11.432 -11.432
  1 B     1 A     2 A     2 B     3 B     3 A     4 B     4 A                  
-11.403 -11.403  -9.163  -9.163  -6.844  -6.844  -6.843  -6.843
  5 A     5 B     6 B     6 A     7 B     7 A     8 A     8 B                  
 -6.841  -6.841  -1.394  -1.363  -1.232  -1.188  -1.185  -1.128
  9 B     9 A    10 A    10 B    11 A    12 A    11 B    12 B                  
 -1.000  -0.953  -0.935  -0.905  -0.887  -0.822  -0.752  -0.750
 13 A    14 A    13 B    14 B    15 A    15 B    16 A    16 B                  
 -0.747  -0.737  -0.730  -0.705  -0.697  -0.661  -0.653  -0.557
 17 A    17 B    18 A    19 A    18 B    20 A    19 B    20 B                  
 -0.540  -0.514  -0.492
 21 A    21 B    22 A                                                          
 -- Virtual --                   
 -0.104  -0.060   0.000   0.013   0.016   0.026   0.026   0.039
 22 B    23 A    24 A    23 B    25 A    24 B    26 A    25 B                  
  0.045   0.058   0.072   0.089   0.090   0.109   0.155   0.180
 27 A    26 B    28 A    27 B    29 A    28 B    30 A    29 B                  
  0.196   0.200   0.204   0.223   0.229   0.235   0.259   0.267
 30 B    31 A    32 A    31 B    33 A    32 B    33 B    34 A                  
  0.279   0.290   0.290   0.302   0.318   0.320   0.325   0.335
 35 A    34 B    36 A    35 B    37 A    36 B    37 B    38 A                  
  0.347   0.361   0.366   0.369   0.388   0.390   0.405   0.409
 39 A    38 B    40 A    39 B    41 A    40 B    42 A    41 B                  
  0.429   0.432   0.434   0.440   0.450   0.457   0.457   0.463
 43 A    42 B    44 A    43 B    45 A    46 A    44 B    45 B                  
  0.467   0.483   0.499   0.514   0.519   0.521   0.544   0.567
 47 A    46 B    47 B    48 A    48 B    49 A    50 A    49 B                  
  0.581   0.585   0.621   0.625   0.630   0.641   0.685   0.686
 50 B    51 A    52 A    51 B    52 B    53 A    54 A    53 B                  
  0.699   0.708   0.714   0.733   0.736   0.763   0.767   0.785
 55 A    54 B    55 B    56 B    56 A    57 A    57 B    58 B                  
  0.799   0.829   0.835   0.854   0.860   0.873   0.890   0.901
 58 A    59 A    59 B    60 A    61 A    60 B    61 B    62 A                  
  0.923   0.933   0.956   0.959   0.995   0.996   1.001   1.017
 62 B    63 A    63 B    64 A    64 B    65 B    65 A    66 A                  
  1.025   1.035   1.058   1.059   1.064   1.073   1.121   1.128
 67 A    66 B    67 B    68 A    68 B    69 A    69 B    70 B                  
  1.129   1.145   1.155   1.208   1.228   1.237   1.241   1.261
 70 A    71 A    71 B    72 A    72 B    73 B    73 A    74 B                  
  1.263   1.292   1.304   1.329   1.336   1.348   1.362   1.375
 74 A    75 B    75 A    76 B    76 A    77 B    77 A    78 A                  
  1.382   1.391   1.402   1.412   1.420   1.437   1.460   1.492
 78 B    79 A    79 B    80 A    80 B    81 A    81 B    82 A                  
  1.502   1.513   1.522   1.551   1.569   1.578   1.608   1.652
 83 A    82 B    83 B    84 A    84 B    85 B    85 A    86 B                  
  1.677   1.701   1.709   1.725   1.741   1.750   1.764   1.784
 86 A    87 B    87 A    88 B    88 A    89 A    89 B    90 A                  
  1.788   1.817   1.863   1.894   1.915   1.936   1.939   1.991
 90 B    91 A    91 B    92 B    92 A    93 B    93 A    94 B                  
  2.004   2.020   2.025   2.034   2.054   2.064   2.080   2.099
 94 A    95 B    95 A    96 A    96 B    97 A    97 B    98 A                  
  2.115   2.135   2.140   2.210   2.262   2.266   2.289   2.291
 98 B    99 A    99 B   100 A   101 A   100 B   102 A   101 B                  
  2.322   2.330   2.333   2.350   2.368   2.373   2.381   2.426
102 B   103 B   103 A   104 A   104 B   105 A   105 B   106 A                  
  2.427   2.455   2.485   2.504   2.538   2.562   2.563   2.575
106 B   107 B   107 A   108 A   108 B   109 A   109 B   110 A                  
  2.597   2.608   2.608   2.633   2.633   2.685   2.714   2.716
110 B   111 B   111 A   112 B   112 A   113 A   114 A   113 B                  
  2.746   2.756   2.780   2.784   2.811   2.833   2.841   2.842
114 B   115 A   115 B   116 A   116 B   117 A   117 B   118 A                  
  2.851   2.858   2.897   2.965   2.969   3.005   3.008   3.031
118 B   119 A   119 B   120 B   120 A   121 A   121 B   122 B                  
  3.034   3.041   3.053   3.058   3.079   3.088   3.100   3.105
122 A   123 B   123 A   124 B   124 A   125 B   125 A   126 B                  
  3.112   3.148   3.150   3.154   3.182   3.196   3.197   3.200
126 A   127 A   127 B   128 A   128 B   129 A   129 B   130 A                  
  3.210   3.230   3.251   3.252   3.269   3.287   3.292   3.298
130 B   131 A   132 A   131 B   133 A   134 A   135 A   132 B                  
  3.308   3.321   3.327   3.344   3.345   3.351   3.358   3.371
133 B   134 B   136 A   137 A   135 B   136 B   138 A   137 B                  
  3.385   3.407   3.421   3.432   3.432   3.454   3.477   3.488
138 B   139 A   139 B   140 A   140 B   141 A   142 A   141 B                  
  3.500   3.528   3.547   3.560   3.570   3.588   3.596   3.618
142 B   143 A   143 B   144 A   145 A   144 B   146 A   145 B                  
  3.624   3.665   3.695   3.705   3.745   3.757   3.775   3.776
147 A   146 B   147 B   148 A   148 B   149 A   149 B   150 A                  
  3.777   3.811   3.828   3.838   3.861   3.869   3.876   3.889
150 B   151 A   151 B   152 A   153 A   152 B   153 B   154 A                  
  3.907   3.956   3.957   3.973   4.006   4.014   4.024   4.025
154 B   155 A   155 B   156 A   156 B   157 A   158 A   157 B                  
  4.049   4.050   4.059   4.094   4.095   4.120   4.130   4.169
159 A   158 B   159 B   160 A   160 B   161 B   161 A   162 A                  
  4.171   4.217   4.246   4.276   4.319   4.325   4.353   4.356
162 B   163 A   163 B   164 A   164 B   165 A   166 A   165 B                  
  4.356   4.374   4.425   4.446   4.480   4.501   4.505   4.519
167 A   166 B   168 A   167 B   169 A   168 B   170 A   169 B                  
  4.542   4.568   4.582   4.618   4.631   4.654   4.685   4.705
171 A   170 B   171 B   172 B   172 A   173 A   173 B   174 A                  
  4.753   4.766   4.845   4.849   4.865   4.894   4.905   4.923
174 B   175 A   175 B   176 A   176 B   177 A   178 A   177 B                  
  4.925   4.963   5.029   5.061   5.083   5.126   5.155   5.231
179 A   178 B   179 B   180 A   180 B   181 A   181 B   182 A                  
  5.242   5.250   5.252   5.308   5.408   5.420   5.484   5.516
182 B   183 A   183 B   184 A   184 B   185 A   185 B   186 A                  
  5.687   5.702   5.852   5.891   5.945   5.957   6.029   6.054
187 A   186 B   187 B   188 A   188 B   189 A   189 B   190 A                  
  6.113   6.379   6.393   6.549   6.631   9.354  10.815  11.810
190 B   191 A   191 B   192 A   192 B   193 A   193 B   194 A                  
 12.597  13.151  13.490  14.629  14.814
194 B   195 A   195 B   196 A   196 B                                          
 
 Beta MOs, Unrestricted
 -- Occupied --                  
-92.162 -92.162 -11.473 -11.472 -11.440 -11.440 -11.425 -11.425
  1 B     1 A     2 A     2 B     3 B     3 A     4 B     4 A                  
-11.409 -11.409  -9.164  -9.164  -6.845  -6.845  -6.845  -6.845
  5 B     5 A     6 B     6 A     7 A     7 B     8 A     8 B                  
 -6.844  -6.844  -1.381  -1.348  -1.220  -1.183  -1.176  -1.104
  9 B     9 A    10 A    10 B    11 A    12 A    11 B    12 B                  
 -0.991  -0.944  -0.923  -0.900  -0.885  -0.817  -0.750  -0.739
 13 A    14 A    13 B    14 B    15 A    15 B    16 A    17 A                  
 -0.737  -0.724  -0.723  -0.679  -0.667  -0.657  -0.650  -0.537
 16 B    17 B    18 A    18 B    19 A    20 A    19 B    21 A                  
 -0.532  -0.484
 20 B    21 B                                                                  
 -- Virtual --                   
 -0.203  -0.051  -0.025   0.008   0.018   0.020   0.032   0.042
 22 A    22 B    23 A    24 A    23 B    25 A    24 B    26 A                  
  0.049   0.050   0.063   0.073   0.093   0.094   0.111   0.157
 25 B    27 A    26 B    28 A    27 B    29 A    28 B    30 A                  
  0.184   0.198   0.204   0.207   0.226   0.230   0.236   0.267
 29 B    30 B    31 A    32 A    31 B    33 A    32 B    33 B                  
  0.269   0.288   0.294   0.299   0.310   0.317   0.321   0.325
 34 A    35 A    36 A    34 B    35 B    36 B    37 A    37 B                  
  0.341   0.355   0.372   0.382   0.385   0.398   0.399   0.416
 38 A    39 A    38 B    39 B    40 A    40 B    41 A    42 A                  
  0.418   0.434   0.436   0.443   0.443   0.455   0.459   0.463
 41 B    43 A    42 B    43 B    44 A    45 A    46 A    44 B                  
  0.471   0.472   0.486   0.507   0.515   0.523   0.526   0.551
 45 B    47 A    46 B    47 B    48 A    48 B    49 A    50 A                  
  0.570   0.586   0.586   0.623   0.627   0.632   0.642   0.688
 49 B    50 B    51 A    52 A    51 B    52 B    53 A    53 B                  
  0.692   0.702   0.713   0.721   0.738   0.738   0.767   0.770
 54 A    55 A    54 B    55 B    56 A    56 B    57 A    57 B                  
  0.787   0.804   0.833   0.840   0.857   0.864   0.876   0.894
 58 B    58 A    59 A    59 B    60 A    61 A    60 B    61 B                  
  0.903   0.925   0.941   0.963   0.964   0.997   0.999   1.003
 62 A    62 B    63 A    63 B    64 A    64 B    65 B    65 A                  
  1.021   1.029   1.039   1.060   1.061   1.066   1.077   1.126
 66 A    67 A    66 B    67 B    68 A    68 B    69 A    69 B                  
  1.131   1.131   1.151   1.161   1.213   1.237   1.242   1.249
 70 B    70 A    71 A    71 B    72 A    72 B    73 B    73 A                  
  1.263   1.273   1.294   1.306   1.333   1.338   1.356   1.362
 74 B    74 A    75 B    75 A    76 B    76 A    77 B    77 A                  
  1.380   1.382   1.395   1.407   1.413   1.420   1.440   1.466
 78 A    78 B    79 A    79 B    80 A    80 B    81 A    81 B                  
  1.497   1.504   1.515   1.524   1.555   1.573   1.583   1.609
 82 A    83 A    82 B    83 B    84 A    84 B    85 B    85 A                  
  1.652   1.678   1.702   1.710   1.726   1.741   1.751   1.765
 86 B    86 A    87 B    87 A    88 B    88 A    89 A    89 B                  
  1.788   1.789   1.818   1.863   1.896   1.915   1.937   1.940
 90 B    90 A    91 A    91 B    92 B    92 A    93 B    93 A                  
  1.992   2.005   2.021   2.024   2.036   2.055   2.066   2.082
 94 B    94 A    95 B    95 A    96 A    96 B    97 A    97 B                  
  2.113   2.128   2.138   2.144   2.215   2.259   2.262   2.293
 98 A    98 B    99 A    99 B   100 A   101 A   100 B   102 A                  
  2.301   2.327   2.333   2.336   2.352   2.370   2.390   2.393
101 B   102 B   103 B   103 A   104 A   104 B   105 A   105 B                  
  2.433   2.435   2.458   2.491   2.506   2.540   2.565   2.567
106 A   106 B   107 B   107 A   108 A   108 B   109 A   109 B                  
  2.581   2.606   2.614   2.615   2.636   2.638   2.694   2.718
110 A   110 B   111 B   111 A   112 B   112 A   113 A   114 A                  
  2.723   2.752   2.762   2.784   2.793   2.814   2.836   2.848
113 B   114 B   115 A   115 B   116 A   116 B   117 A   117 B                  
  2.850   2.858   2.860   2.900   2.972   2.974   3.005   3.016
118 A   118 B   119 A   119 B   120 A   120 B   121 A   121 B                  
  3.034   3.041   3.042   3.059   3.063   3.085   3.097   3.108
122 B   122 A   123 B   123 A   124 B   124 A   125 B   125 A                  
  3.111   3.117   3.154   3.157   3.161   3.185   3.198   3.201
126 B   126 A   127 A   127 B   128 A   128 B   129 A   129 B                  
  3.203   3.211   3.236   3.254   3.255   3.271   3.288   3.298
130 A   130 B   131 A   131 B   132 A   133 A   134 A   135 A                  
  3.303   3.313   3.334   3.344   3.349   3.350   3.357   3.362
132 B   133 B   134 B   136 A   137 A   135 B   136 B   138 A                  
  3.379   3.386   3.411   3.426   3.435   3.437   3.458   3.480
137 B   138 B   139 A   139 B   140 A   140 B   141 A   142 A                  
  3.489   3.504   3.533   3.552   3.563   3.573   3.592   3.601
141 B   142 B   143 A   143 B   144 A   145 A   144 B   146 A                  
  3.621   3.629   3.668   3.699   3.709   3.748   3.758   3.776
145 B   147 A   146 B   147 B   148 A   148 B   149 A   149 B                  
  3.780   3.782   3.814   3.833   3.840   3.865   3.870   3.879
150 A   150 B   151 A   151 B   152 A   153 A   152 B   153 B                  
  3.893   3.909   3.959   3.960   3.974   4.008   4.015   4.025
154 A   154 B   155 A   155 B   156 A   156 B   157 A   157 B                  
  4.026   4.051   4.052   4.061   4.096   4.097   4.121   4.131
158 A   159 A   158 B   159 B   160 A   160 B   161 B   161 A                  
  4.170   4.173   4.219   4.246   4.278   4.321   4.327   4.354
162 A   162 B   163 A   163 B   164 A   164 B   165 A   166 A                  
  4.357   4.358   4.375   4.429   4.449   4.483   4.504   4.506
165 B   167 A   166 B   168 A   167 B   169 A   168 B   170 A                  
  4.521   4.546   4.569   4.582   4.620   4.632   4.656   4.686
169 B   171 A   170 B   171 B   172 B   172 A   173 A   173 B                  
  4.707   4.755   4.769   4.848   4.852   4.868   4.895   4.906
174 A   174 B   175 A   175 B   176 A   176 B   177 A   178 A                  
  4.926   4.927   4.964   5.031   5.063   5.088   5.130   5.156
179 A   177 B   178 B   179 B   180 A   180 B   181 A   181 B                  
  5.233   5.244   5.251   5.253   5.308   5.409   5.422   5.486
182 A   182 B   183 A   183 B   184 A   184 B   185 A   185 B                  
  5.517   5.687   5.703   5.852   5.891   5.946   5.958   6.030
186 A   187 A   186 B   187 B   188 A   188 B   189 A   189 B                  
  6.055   6.113   6.380   6.394   6.549   6.631   9.356  10.819
190 A   190 B   191 A   191 B   192 A   192 B   193 A   193 B                  
 11.814  12.602  13.155  13.491  14.630  14.816
194 A   194 B   195 A   195 B   196 A   196 B                                  
 --------------------------------------------------------------
 
          Ground-State Mulliken Net Atomic Charges

     Atom                 Charge (a.u.)    Spin (a.u.)
  --------------------------------------------------------
      1 S                     0.278352      -0.024049
      2 C                    -0.115570      -0.110684
      3 C                    -0.152641       0.518170
      4 C                    -0.131225      -0.342440
      5 C                    -0.064347       0.452111
      6 H                     0.219219       0.026392
      7 C                    -0.064344       0.452111
      8 S                     0.278352      -0.024049
      9 C                    -0.131230      -0.342440
     10 C                    -0.115571      -0.110684
     11 C                    -0.152639       0.518170
     12 H                     0.224605      -0.038227
     13 H                     0.241607       0.018727
     14 H                     0.224605      -0.038227
     15 H                     0.241608       0.018727
     16 H                     0.219219       0.026392
  --------------------------------------------------------
  Sum of atomic charges =     1.000000
  Sum of spin   charges =     1.000000

 -----------------------------------------------------------------
                    Cartesian Multipole Moments
 -----------------------------------------------------------------
    Charge (ESU x 10^10)
                 4.8032
    Dipole Moment (Debye)
         X      -0.0000      Y      -0.0000      Z      -0.6965
       Tot       0.6965
    Quadrupole Moments (Debye-Ang)
        XX     -22.2940     XY      -1.1684     YY     -68.9226
        XZ       0.0000     YZ       0.0000     ZZ     -59.8090
    Octopole Moments (Debye-Ang^2)
       XXX      -0.0000    XXY       0.0000    XYY      -0.0000
       YYY      -0.0000    XXZ       4.7057    XYZ      17.4543
       YYZ      -1.4424    XZZ      -0.0000    YZZ      -0.0000
       ZZZ      -5.6175
    Hexadecapole Moments (Debye-Ang^3)
      XXXX   -1257.4175   XXXY      -9.3709   XXYY    -352.2801
      XYYY       6.1276   YYYY    -208.2354   XXXZ       0.0000
      XXYZ       0.0000   XYYZ       0.0000   YYYZ       0.0000
      XXZZ    -332.8001   XYZZ     -14.3458   YYZZ     -93.7510
      XZZZ       0.0000   YZZZ       0.0000   ZZZZ    -402.0361
 -----------------------------------------------------------------
 DrvMan is completing analytic gradient of the MP2 energy
 MP2 relaxed dipole moment
            1
    1  -0.0000000
    2  -0.0000000
    3  -0.2740288
	Magnitude:	 0.274 au	 0.697 Debye
 MP2 energy read as -1103.091906
 Full Analytical Gradient of MP2 Energy (in au.)
             1             2             3             4             5
    1   -0.00461652    0.00385666   -0.00256193    0.00512681   -0.02504673
    2    0.00901703   -0.00050792    0.00076870   -0.01183152    0.00724962
    3   -0.00165775   -0.00261459   -0.00308756    0.00264676    0.00476362
             6             7             8             9            10
    1    0.00131362    0.02504673    0.00461653   -0.00512681   -0.00385667
    2    0.00008919   -0.00724962   -0.00901703    0.01183151    0.00050792
    3   -0.00094988    0.00476362   -0.00165775    0.00264676   -0.00261458
            11            12            13            14            15
    1    0.00256193    0.00009831   -0.00067748   -0.00009831    0.00067749
    2   -0.00076870   -0.00144408   -0.00309954    0.00144408    0.00309954
    3   -0.00308755   -0.00092816    0.00182755   -0.00092816    0.00182755
            16
    1   -0.00131362
    2   -0.00008919
    3   -0.00094988
 Gradient time:  CPU 1.54 s  wall 0.10 s
 Geometry Optimization Parameters
   NAtoms,    NIC,     NZ,  NCons,   NDum,   NFix, NCnnct, MaxDiis
       16     111       0       1       0       0       0       0


** CONSTRAINED OPTIMIZATION IN DELOCALIZED INTERNAL COORDINATES **
   Searching for a Minimum

   Optimization Cycle:   1

                       Coordinates (Angstroms)
     ATOM                X               Y               Z
      1  S         1.6365980850    0.6392118997    0.9938227519
      2  C         3.0473529275    0.1298929004    0.2856994367
      3  C         2.8671095297   -0.5490662610   -0.9092386794
      4  C         1.5446991101   -0.6472324603   -1.2400494922
      5  C         0.6965488765   -0.0492517427   -0.3105104709
      6  H         1.1840518427   -1.1359412073   -2.1284962850
      7  C        -0.6965488765    0.0492517427   -0.3105104709
      8  S        -1.6365980850   -0.6392118997    0.9938227519
      9  C        -1.5446991101    0.6472324603   -1.2400494922
     10  C        -3.0473529275   -0.1298929004    0.2856994367
     11  C        -2.8671095297    0.5490662610   -0.9092386794
     12  H        -3.6831866534    0.9404243799   -1.4863471914
     13  H         3.9904079137    0.3372035698    0.7582746716
     14  H         3.6831866534   -0.9404243799   -1.4863471914
     15  H        -3.9904079137   -0.3372035698    0.7582746716
     16  H        -1.1840518427    1.1359412073   -2.1284962850
   Point Group: c2    Number of degrees of freedom:    22


   Energy is  -1103.091905866

              Constraints and their Current Values
                                        Value     Constraint
   Dihedral:        4   5   7   9      -60.000      -60.000

 Attempting to Generate Delocalized Internal Coordinates

 21 Hessian modes will be used to form the next step
  Hessian Eigenvalues:
     0.045000    0.045000    0.045000    0.045000    0.045000    0.045000
     0.160000    0.160000    0.160000    0.221335    0.237679    0.250000
     0.299411    0.364554    0.366034    0.368031    0.392996    0.445237
     0.461927    0.467905    0.501257

 Minimum Search - Taking Simple RFO Step
 Searching for Lamda that Minimizes Along All modes
 Value Taken    Lamda =  -0.00499489
 Step Taken.  Stepsize is  0.267640

                             Maximum     Tolerance    Cnvgd?
         Gradient           0.012182      0.000300      NO
         Displacement       0.164229      0.001200      NO
         Energy change     *********      0.000001      NO


 New Cartesian Coordinates Obtained by Inverse Iteration

 Displacement from previous Coordinates is:  0.306480
 ----------------------------------------------------------------
             Standard Nuclear Orientation (Angstroms)
    I     Atom           X                Y                Z
 ----------------------------------------------------------------
    1      S       1.6394398164     0.5705769700     1.0200538127
    2      C       3.0550341963     0.1125683030     0.3016856378
    3      C       2.8829326998    -0.5463053752    -0.9045097754
    4      C       1.5613762993    -0.6174330811    -1.2601075950
    5      C       0.7102743143    -0.0371749790    -0.3334948650
    6      H       1.1990872670    -1.0864824389    -2.1579075190
    7      C      -0.7102743143     0.0371749790    -0.3334948650
    8      S      -1.6394398164    -0.5705769700     1.0200538127
    9      C      -1.5613762993     0.6174330811    -1.2601075950
   10      C      -3.0550341963    -0.1125683030     0.3016856378
   11      C      -2.8829326998     0.5463053752    -0.9045097754
   12      H      -3.7035426891     0.9348516027    -1.4773445957
   13      H       3.9961422797     0.3301631568     0.7747796409
   14      H       3.7035426891    -0.9348516027    -1.4773445957
   15      H      -3.9961422797    -0.3301631568     0.7747796409
   16      H      -1.1990872670     1.0864824389    -2.1579075190
 ----------------------------------------------------------------
 Molecular Point Group                 C2    NOp =  2
 Largest Abelian Subgroup              C2    NOp =  2
 Nuclear Repulsion Energy =   640.5145012821 hartrees
 There are       43 alpha and       42 beta electrons
 Applying Cartesian multipole field
    Component          Value
    ---------          -----
     (2,0,0)        1.00000E-11
     (0,2,0)        2.00000E-10
     (0,0,2)       -3.00000E-11
 Nucleus-field energy     =     0.0000000221 hartrees
 Requested basis set is cc-pVTZ
 There are 140 shells and 392 basis functions
 A cutoff of  1.0D-11 yielded   8052 shell pairs
 There are     62672 function pairs (     81718 Cartesian)
 Smallest overlap matrix eigenvalue = 8.54E-05
 Guess MOs from SCF MO coefficient file
 Reading MOs from coefficient file
 Reading MOs from coefficient file
 An unrestricted Hartree-Fock SCF calculation will be
 performed using Pulay DIIS extrapolation
 SCF converges when DIIS error is below 1.0E-08
 Geometry optimization detected.  Setting ReadMinima to 0
 Setting SaveMinima to 0
 using 16 threads for integral computing 
 ---------------------------------------
  Cycle       Energy         DIIS Error
 ---------------------------------------
    1   -1101.3444638816      9.05E-04
    2   -1101.3423803701      1.03E-04
    3   -1101.3428680827      4.17E-05
    4   -1101.3429493576      2.02E-05
    5   -1101.3429710512      6.71E-06
    6   -1101.3429742956      2.94E-06
    7   -1101.3429754594      1.31E-06
    8   -1101.3429760433      6.21E-07
    9   -1101.3429763163      4.25E-07
   10   -1101.3429765177      3.32E-07
   11   -1101.3429767035      2.50E-07
   12   -1101.3429768635      1.51E-07
   13   -1101.3429769107      6.58E-08
   14   -1101.3429769165      3.43E-08
   15   -1101.3429769183      2.02E-08
   16   -1101.3429769189      1.06E-08
   17   -1101.3429769188      5.42E-09 Convergence criterion met
 ---------------------------------------
 <S^2> = 0.9973
 SCF time:  CPU 1304.23 s  wall 81.57 s
 SCF   energy in the final basis set = -1101.3429769188
 Total energy in the final basis set = -1101.3429769188
 
 Components of the MP2 correlation energy:
        aaaa  correlation energy =        -0.2339600366 au
        abab  correlation energy =        -1.3050662323 au
        bbbb  correlation energy =        -0.2132082147 au
        non-Brillouin singles    =        -0.0000000000 au

 Total  MP2   correlation energy =        -1.7522344836 au
        MP2         total energy =     -1103.0952114024 au

  Entering Z-vector solver.
   1         0           1      0.000535    0.000535
   2         0           1      0.000485    0.000485
   3         0           1      0.000354    0.000354
   4         0           1      0.000293    0.000293
   5         0           1      0.000133    0.000133
   6         0           1      0.000071    0.000071
   7         0           1      0.000040    0.000040
   8         0           1      0.000023    0.000023
   9         0           1      0.000011    0.000011
  10         0           1      0.000005    0.000005
  11         0           1      0.000002    0.000002
  12         1           0      0.000000    0.000000    Roots Converged
 Warning:  Cannot save MP2 spin density
 
 --------------------------------------------------------------
             Orbital Energies (a.u.) and Symmetries
 --------------------------------------------------------------
 
 Alpha MOs, Unrestricted
 -- Occupied --                  
-92.160 -92.160 -11.477 -11.476 -11.451 -11.451 -11.432 -11.432
  1 B     1 A     2 A     2 B     3 B     3 A     4 B     4 A                  
-11.404 -11.404  -9.162  -9.162  -6.843  -6.843  -6.843  -6.843
  5 A     5 B     6 B     6 A     7 B     7 A     8 A     8 B                  
 -6.841  -6.841  -1.394  -1.365  -1.230  -1.187  -1.186  -1.130
  9 B     9 A    10 A    10 B    11 A    12 A    11 B    12 B                  
 -0.996  -0.954  -0.935  -0.905  -0.887  -0.823  -0.752  -0.751
 13 A    14 A    13 B    14 B    15 A    15 B    16 B    16 A                  
 -0.748  -0.737  -0.729  -0.708  -0.696  -0.661  -0.650  -0.563
 17 A    17 B    18 A    19 A    18 B    20 A    19 B    20 B                  
 -0.539  -0.514  -0.490
 21 A    21 B    22 A                                                          
 -- Virtual --                   
 -0.104  -0.058  -0.000   0.016   0.017   0.026   0.029   0.038
 22 B    23 A    24 A    25 A    23 B    24 B    26 A    25 B                  
  0.044   0.059   0.072   0.086   0.090   0.112   0.154   0.182
 27 A    26 B    28 A    29 A    27 B    28 B    30 A    29 B                  
  0.195   0.198   0.202   0.222   0.227   0.236   0.258   0.266
 30 B    31 A    32 A    31 B    33 A    32 B    33 B    34 A                  
  0.281   0.290   0.290   0.301   0.320   0.322   0.329   0.338
 35 A    34 B    36 A    35 B    36 B    37 A    37 B    38 A                  
  0.351   0.363   0.366   0.368   0.386   0.387   0.403   0.408
 39 A    38 B    40 A    39 B    40 B    41 A    42 A    41 B                  
  0.428   0.430   0.437   0.440   0.449   0.455   0.458   0.464
 43 A    42 B    43 B    44 A    45 A    44 B    46 A    45 B                  
  0.467   0.480   0.503   0.513   0.519   0.522   0.547   0.562
 47 A    46 B    47 B    48 A    48 B    49 A    50 A    49 B                  
  0.580   0.582   0.622   0.625   0.636   0.638   0.684   0.684
 50 B    51 A    52 A    51 B    53 A    52 B    54 A    53 B                  
  0.696   0.710   0.718   0.734   0.737   0.756   0.767   0.787
 55 A    54 B    55 B    56 B    56 A    57 A    57 B    58 B                  
  0.795   0.824   0.835   0.853   0.864   0.873   0.896   0.906
 58 A    59 B    59 A    60 A    61 A    60 B    61 B    62 A                  
  0.922   0.937   0.956   0.957   0.988   0.993   0.996   1.018
 62 B    63 A    64 A    63 B    64 B    65 B    65 A    66 A                  
  1.024   1.032   1.056   1.060   1.063   1.078   1.117   1.124
 67 A    66 B    67 B    68 A    68 B    69 A    69 B    70 B                  
  1.131   1.141   1.155   1.202   1.225   1.237   1.240   1.257
 70 A    71 A    71 B    72 A    72 B    73 A    73 B    74 A                  
  1.263   1.294   1.302   1.329   1.335   1.348   1.362   1.373
 74 B    75 B    75 A    76 B    76 A    77 B    77 A    78 A                  
  1.381   1.381   1.406   1.410   1.419   1.435   1.461   1.496
 79 A    78 B    79 B    80 A    80 B    81 A    81 B    82 A                  
  1.500   1.509   1.518   1.541   1.573   1.592   1.607   1.653
 83 A    82 B    83 B    84 A    84 B    85 B    85 A    86 B                  
  1.686   1.693   1.704   1.716   1.732   1.759   1.760   1.781
 86 A    87 A    87 B    88 B    88 A    89 B    89 A    90 A                  
  1.786   1.808   1.870   1.899   1.916   1.925   1.943   2.000
 90 B    91 A    91 B    92 B    92 A    93 B    93 A    94 A                  
  2.002   2.018   2.022   2.034   2.060   2.064   2.074   2.104
 94 B    95 B    95 A    96 A    96 B    97 A    97 B    98 A                  
  2.115   2.135   2.138   2.218   2.264   2.269   2.280   2.289
 98 B    99 A    99 B   100 A   101 A   100 B   101 B   102 A                  
  2.318   2.325   2.326   2.348   2.373   2.374   2.382   2.424
102 B   103 B   103 A   104 A   104 B   105 A   105 B   106 A                  
  2.425   2.451   2.479   2.506   2.543   2.561   2.570   2.572
106 B   107 B   107 A   108 A   108 B   109 A   109 B   110 A                  
  2.600   2.607   2.608   2.633   2.641   2.687   2.717   2.719
110 B   111 A   111 B   112 B   112 A   113 A   114 A   113 B                  
  2.738   2.750   2.784   2.786   2.806   2.828   2.836   2.837
114 B   115 A   115 B   116 A   116 B   117 A   117 B   118 A                  
  2.852   2.853   2.900   2.965   2.967   3.002   3.011   3.029
119 A   118 B   119 B   120 A   120 B   121 A   121 B   122 B                  
  3.031   3.041   3.053   3.058   3.077   3.083   3.088   3.098
122 A   123 B   123 A   124 B   124 A   125 B   125 A   126 B                  
  3.120   3.144   3.147   3.156   3.175   3.190   3.200   3.204
126 A   127 B   127 A   128 A   128 B   129 A   130 A   129 B                  
  3.215   3.231   3.244   3.259   3.265   3.282   3.294   3.295
130 B   131 A   132 A   131 B   133 A   134 A   135 A   132 B                  
  3.299   3.323   3.329   3.338   3.340   3.353   3.360   3.373
133 B   134 B   136 A   137 A   135 B   136 B   138 A   137 B                  
  3.382   3.410   3.418   3.430   3.433   3.452   3.472   3.481
138 B   139 A   139 B   140 A   140 B   141 A   142 A   141 B                  
  3.495   3.528   3.539   3.555   3.574   3.585   3.595   3.619
142 B   143 A   143 B   144 A   145 A   144 B   146 A   145 B                  
  3.621   3.663   3.699   3.709   3.737   3.754   3.768   3.772
147 A   146 B   147 B   148 A   148 B   149 A   149 B   150 B                  
  3.777   3.809   3.822   3.838   3.866   3.868   3.880   3.888
150 A   151 A   151 B   152 A   153 A   152 B   153 B   154 A                  
  3.913   3.956   3.959   3.965   4.005   4.009   4.022   4.025
154 B   155 A   155 B   156 A   157 A   156 B   157 B   158 A                  
  4.040   4.045   4.059   4.083   4.097   4.118   4.128   4.172
158 B   159 A   159 B   160 A   160 B   161 B   161 A   162 A                  
  4.172   4.210   4.244   4.268   4.318   4.329   4.346   4.354
162 B   163 A   163 B   164 A   165 A   164 B   166 A   165 B                  
  4.357   4.374   4.422   4.443   4.474   4.501   4.503   4.509
167 A   166 B   168 A   167 B   169 A   168 B   170 A   169 B                  
  4.540   4.566   4.586   4.621   4.624   4.643   4.681   4.700
171 A   170 B   171 B   172 A   172 B   173 A   173 B   174 A                  
  4.754   4.760   4.832   4.839   4.861   4.888   4.902   4.919
174 B   175 A   175 B   176 A   176 B   177 A   178 A   179 A                  
  4.923   4.953   5.019   5.056   5.077   5.118   5.157   5.227
177 B   178 B   179 B   180 A   180 B   181 A   181 B   182 A                  
  5.240   5.246   5.250   5.306   5.413   5.420   5.481   5.513
182 B   183 A   183 B   184 A   184 B   185 A   185 B   186 A                  
  5.684   5.688   5.849   5.879   5.943   5.958   6.035   6.046
187 A   186 B   187 B   188 A   188 B   189 A   189 B   190 A                  
  6.138   6.385   6.402   6.540   6.621   9.341  10.707  11.821
190 B   191 A   191 B   192 A   192 B   193 A   193 B   194 A                  
 12.361  13.184  13.416  14.617  14.793
194 B   195 A   195 B   196 A   196 B                                          
 
 Beta MOs, Unrestricted
 -- Occupied --                  
-92.161 -92.161 -11.476 -11.475 -11.440 -11.440 -11.425 -11.425
  1 B     1 A     2 A     2 B     3 B     3 A     4 B     4 A                  
-11.410 -11.410  -9.164  -9.164  -6.845  -6.845  -6.844  -6.844
  5 B     5 A     6 B     6 A     7 B     7 A     8 B     8 A                  
 -6.843  -6.843  -1.381  -1.350  -1.215  -1.184  -1.176  -1.107
  9 A     9 B    10 A    10 B    11 A    12 A    11 B    12 B                  
 -0.988  -0.945  -0.922  -0.900  -0.885  -0.818  -0.748  -0.741
 13 A    14 A    13 B    14 B    15 A    15 B    16 A    17 A                  
 -0.739  -0.722  -0.722  -0.680  -0.666  -0.659  -0.648  -0.535
 16 B    18 A    17 B    18 B    19 A    20 A    19 B    21 A                  
 -0.531  -0.487
 20 B    21 B                                                                  
 -- Virtual --                   
 -0.203  -0.050  -0.025   0.009   0.020   0.021   0.035   0.043
 22 A    22 B    23 A    24 A    23 B    25 A    24 B    26 A                  
  0.046   0.050   0.064   0.072   0.091   0.094   0.115   0.155
 25 B    27 A    26 B    28 A    29 A    27 B    28 B    30 A                  
  0.187   0.196   0.203   0.204   0.224   0.228   0.237   0.266
 29 B    30 B    31 A    32 A    31 B    33 A    32 B    33 B                  
  0.269   0.289   0.294   0.298   0.312   0.318   0.323   0.327
 34 A    35 A    36 A    34 B    35 B    36 B    37 A    37 B                  
  0.346   0.356   0.374   0.380   0.388   0.394   0.399   0.414
 38 A    39 A    38 B    39 B    40 A    40 B    41 A    42 A                  
  0.417   0.434   0.435   0.439   0.448   0.454   0.460   0.461
 41 B    42 B    43 A    43 B    44 A    45 A    46 A    44 B                  
  0.472   0.472   0.484   0.510   0.515   0.523   0.527   0.553
 45 B    47 A    46 B    47 B    48 A    48 B    49 A    50 A                  
  0.566   0.583   0.585   0.624   0.627   0.637   0.640   0.687
 49 B    51 A    50 B    52 A    51 B    53 A    52 B    53 B                  
  0.690   0.699   0.715   0.724   0.738   0.739   0.759   0.770
 54 A    55 A    54 B    55 B    56 B    56 A    57 A    57 B                  
  0.789   0.800   0.829   0.839   0.855   0.867   0.876   0.900
 58 B    58 A    59 B    59 A    60 A    61 A    60 B    61 B                  
  0.908   0.924   0.944   0.962   0.964   0.990   0.997   0.997
 62 A    62 B    63 A    64 A    63 B    64 B    65 B    65 A                  
  1.022   1.028   1.036   1.057   1.062   1.065   1.083   1.120
 66 A    67 A    66 B    67 B    68 A    68 B    69 A    69 B                  
  1.128   1.132   1.148   1.161   1.206   1.234   1.244   1.246
 70 B    70 A    71 A    71 B    72 A    72 B    73 B    73 A                  
  1.265   1.266   1.297   1.305   1.333   1.338   1.356   1.362
 74 B    74 A    75 B    75 A    76 B    76 A    77 B    77 A                  
  1.377   1.382   1.385   1.409   1.411   1.421   1.438   1.467
 78 A    78 B    79 A    79 B    80 A    80 B    81 A    81 B                  
  1.499   1.504   1.512   1.520   1.545   1.577   1.597   1.608
 82 A    83 A    82 B    83 B    84 A    84 B    85 B    85 A                  
  1.652   1.687   1.695   1.705   1.718   1.731   1.760   1.761
 86 B    86 A    87 A    87 B    88 B    88 A    89 B    89 A                  
  1.785   1.785   1.809   1.869   1.901   1.916   1.926   1.945
 90 B    90 A    91 A    91 B    92 B    92 A    93 B    93 A                  
  2.001   2.002   2.019   2.021   2.036   2.060   2.065   2.077
 94 A    94 B    95 B    95 A    96 A    96 B    97 A    97 B                  
  2.118   2.129   2.137   2.141   2.222   2.261   2.265   2.291
 98 A    98 B    99 A    99 B   100 A   101 A   100 B   101 B                  
  2.293   2.322   2.327   2.328   2.350   2.377   2.392   2.394
102 A   102 B   103 B   103 A   104 A   104 B   105 A   105 B                  
  2.431   2.433   2.454   2.484   2.507   2.545   2.563   2.574
106 A   106 B   107 B   107 A   108 A   108 B   109 A   109 B                  
  2.579   2.607   2.614   2.614   2.638   2.646   2.696   2.720
110 A   110 B   111 B   111 A   112 B   112 A   113 A   114 A                  
  2.725   2.745   2.756   2.788   2.795   2.809   2.831   2.842
113 B   114 B   115 A   115 B   116 A   116 B   117 A   118 A                  
  2.843   2.857   2.859   2.903   2.968   2.976   3.004   3.020
117 B   119 A   118 B   119 B   120 A   120 B   121 A   121 B                  
  3.032   3.039   3.041   3.058   3.063   3.083   3.091   3.092
122 B   122 A   123 B   123 A   124 B   124 A   125 A   125 B                  
  3.104   3.129   3.152   3.153   3.163   3.178   3.193   3.203
126 B   126 A   127 B   127 A   128 A   128 B   129 A   130 A                  
  3.207   3.217   3.235   3.250   3.262   3.268   3.285   3.297
129 B   130 B   131 A   132 A   131 B   133 A   134 A   135 A                  
  3.300   3.303   3.337   3.341   3.345   3.347   3.358   3.365
132 B   133 B   134 B   136 A   135 B   137 A   136 B   138 A                  
  3.379   3.384   3.413   3.423   3.433   3.439   3.456   3.475
137 B   138 B   139 A   139 B   140 A   140 B   141 A   142 A                  
  3.484   3.499   3.531   3.544   3.559   3.578   3.589   3.600
141 B   142 B   143 A   143 B   144 A   145 A   144 B   146 A                  
  3.623   3.626   3.666   3.702   3.713   3.740   3.755   3.770
145 B   147 A   146 B   147 B   148 A   148 B   149 A   149 B                  
  3.776   3.780   3.811   3.827   3.840   3.869   3.870   3.882
150 B   150 A   151 A   151 B   152 A   153 A   152 B   153 B                  
  3.892   3.915   3.959   3.962   3.966   4.007   4.011   4.023
154 A   154 B   155 A   155 B   156 A   157 A   156 B   157 B                  
  4.027   4.043   4.047   4.062   4.084   4.098   4.119   4.129
158 A   158 B   159 A   159 B   160 A   160 B   161 B   161 A                  
  4.173   4.174   4.211   4.244   4.270   4.319   4.331   4.347
162 A   162 B   163 A   163 B   164 A   165 A   164 B   166 A                  
  4.355   4.358   4.375   4.426   4.446   4.476   4.504   4.505
165 B   167 A   166 B   168 A   167 B   169 A   170 A   168 B                  
  4.510   4.544   4.569   4.586   4.622   4.625   4.643   4.682
169 B   171 A   170 B   171 B   172 A   172 B   173 A   173 B                  
  4.702   4.756   4.762   4.835   4.843   4.863   4.890   4.903
174 A   174 B   175 A   175 B   176 A   176 B   177 A   178 A                  
  4.920   4.926   4.955   5.020   5.058   5.082   5.122   5.158
179 A   177 B   178 B   179 B   180 A   180 B   181 A   181 B                  
  5.229   5.242   5.247   5.251   5.306   5.414   5.421   5.482
182 A   182 B   183 A   183 B   184 A   184 B   185 A   185 B                  
  5.515   5.684   5.689   5.850   5.880   5.944   5.959   6.035
186 A   187 A   186 B   187 B   188 A   188 B   189 A   189 B                  
  6.046   6.138   6.386   6.403   6.541   6.622   9.343  10.710
190 A   190 B   191 A   191 B   192 A   192 B   193 A   193 B                  
 11.826  12.365  13.188  13.417  14.618  14.795
194 A   194 B   195 A   195 B   196 A   196 B                                  
 --------------------------------------------------------------
 
          Ground-State Mulliken Net Atomic Charges

     Atom                 Charge (a.u.)    Spin (a.u.)
  --------------------------------------------------------
      1 S                     0.273056      -0.022819
      2 C                    -0.114240      -0.104505
      3 C                    -0.155154       0.518184
      4 C                    -0.128858      -0.334071
      5 C                    -0.062035       0.437689
      6 H                     0.219853       0.025590
      7 C                    -0.062035       0.437689
      8 S                     0.273056      -0.022819
      9 C                    -0.128858      -0.334071
     10 C                    -0.114240      -0.104505
     11 C                    -0.155154       0.518184
     12 H                     0.224955      -0.037901
     13 H                     0.242423       0.017832
     14 H                     0.224955      -0.037901
     15 H                     0.242423       0.017832
     16 H                     0.219853       0.025590
  --------------------------------------------------------
  Sum of atomic charges =     1.000000
  Sum of spin   charges =     1.000000

 -----------------------------------------------------------------
                    Cartesian Multipole Moments
 -----------------------------------------------------------------
    Charge (ESU x 10^10)
                 4.8032
    Dipole Moment (Debye)
         X      -0.0000      Y       0.0000      Z      -0.6160
       Tot       0.6160
    Quadrupole Moments (Debye-Ang)
        XX     -21.8477     XY      -1.4282     YY     -69.4230
        XZ       0.0000     YZ      -0.0000     ZZ     -59.5471
    Octopole Moments (Debye-Ang^2)
       XXX      -0.0000    XXY       0.0000    XYY      -0.0000
       YYY       0.0000    XXZ       5.0155    XYZ      17.0233
       YYZ      -1.8121    XZZ      -0.0000    YZZ       0.0000
       ZZZ      -6.6276
    Hexadecapole Moments (Debye-Ang^3)
      XXXX   -1261.8959   XXXY      -2.8685   XXYY    -353.0456
      XYYY      14.0478   YYYY    -193.0918   XXXZ       0.0000
      XXYZ      -0.0000   XYYZ       0.0000   YYYZ      -0.0000
      XXZZ    -336.1869   XYZZ     -11.6625   YYZZ     -94.6426
      XZZZ       0.0000   YZZZ      -0.0000   ZZZZ    -412.6774
 -----------------------------------------------------------------
 DrvMan is completing analytic gradient of the MP2 energy
 MP2 relaxed dipole moment
            1
    1  -0.0000001
    2   0.0000000
    3  -0.2423355
	Magnitude:	 0.242 au	 0.616 Debye
 MP2 energy read as -1103.095211
 Full Analytical Gradient of MP2 Energy (in au.)
             1             2             3             4             5
    1    0.00079664    0.00153196   -0.00048070    0.00021134   -0.00137220
    2    0.00125326    0.00306411   -0.00095979   -0.00732209    0.00830948
    3   -0.00197178   -0.00218665    0.00154372    0.00495454   -0.00296487
             6             7             8             9            10
    1    0.00001145    0.00137220   -0.00079664   -0.00021134   -0.00153196
    2   -0.00004477   -0.00830948   -0.00125326    0.00732209   -0.00306411
    3    0.00000123   -0.00296487   -0.00197178    0.00495454   -0.00218665
            11            12            13            14            15
    1    0.00048070   -0.00015432   -0.00005933    0.00015432    0.00005933
    2    0.00095979   -0.00079589   -0.00133256    0.00079589    0.00133256
    3    0.00154372   -0.00029836    0.00092217   -0.00029836    0.00092217
            16
    1   -0.00001145
    2    0.00004477
    3    0.00000123
 Gradient time:  CPU 1.52 s  wall 0.10 s
 Geometry Optimization Parameters
   NAtoms,    NIC,     NZ,  NCons,   NDum,   NFix, NCnnct, MaxDiis
       16     111       0       1       0       0       0       0

 Cartesian Hessian Update
 Hessian Updated using BFGS Update


** CONSTRAINED OPTIMIZATION IN DELOCALIZED INTERNAL COORDINATES **
   Searching for a Minimum

   Optimization Cycle:   2

                       Coordinates (Angstroms)
     ATOM                X               Y               Z
      1  S         1.6394398164    0.5705769700    1.0200538127
      2  C         3.0550341963    0.1125683030    0.3016856378
      3  C         2.8829326998   -0.5463053752   -0.9045097754
      4  C         1.5613762993   -0.6174330811   -1.2601075950
      5  C         0.7102743143   -0.0371749790   -0.3334948650
      6  H         1.1990872670   -1.0864824389   -2.1579075190
      7  C        -0.7102743143    0.0371749790   -0.3334948650
      8  S        -1.6394398164   -0.5705769700    1.0200538127
      9  C        -1.5613762993    0.6174330811   -1.2601075950
     10  C        -3.0550341963   -0.1125683030    0.3016856378
     11  C        -2.8829326998    0.5463053752   -0.9045097754
     12  H        -3.7035426891    0.9348516027   -1.4773445957
     13  H         3.9961422797    0.3301631568    0.7747796409
     14  H         3.7035426891   -0.9348516027   -1.4773445957
     15  H        -3.9961422797   -0.3301631568    0.7747796409
     16  H        -1.1990872670    1.0864824389   -2.1579075190
   Point Group: c2    Number of degrees of freedom:    22


   Energy is  -1103.095211402

              Constraints and their Current Values
                                        Value     Constraint
   Dihedral:        4   5   7   9      -60.000      -60.000
 Hessian Updated using BFGS Update

 16 Hessian modes will be used to form the next step
  Hessian Eigenvalues:
     0.026523    0.051987    0.159890    0.160584    0.221801    0.242854
     0.251076    0.299719    0.364559    0.366069    0.368031    0.394744
     0.444353    0.467217    0.491730    0.530448

 Minimum Search - Taking Simple RFO Step
 Searching for Lamda that Minimizes Along All modes
 Value Taken    Lamda =  -0.00173084
 Step Taken.  Stepsize is  0.241148

                             Maximum     Tolerance    Cnvgd?
         Gradient           0.004918      0.000300      NO
         Displacement       0.167391      0.001200      NO
         Energy change     -0.003306      0.000001      NO


 New Cartesian Coordinates Obtained by Inverse Iteration

 Displacement from previous Coordinates is:  0.413753
 ----------------------------------------------------------------
             Standard Nuclear Orientation (Angstroms)
    I     Atom           X                Y                Z
 ----------------------------------------------------------------
    1      S       1.6131444968     0.5186280599     1.0424436127
    2      C       3.0360545028     0.0761373378     0.3326903314
    3      C       2.8874596150    -0.5298224602    -0.9051484303
    4      C       1.5729015615    -0.5747282901    -1.2903928475
    5      C       0.7137172414    -0.0171370349    -0.3606163699
    6      H       1.2200126415    -1.0162027753    -2.2055903130
    7      C      -0.7137172414     0.0171370349    -0.3606163699
    8      S      -1.6131444968    -0.5186280599     1.0424436127
    9      C      -1.5729015615     0.5747282901    -1.2903928475
   10      C      -3.0360545028    -0.0761373378     0.3326903314
   11      C      -2.8874596150     0.5298224602    -0.9051484303
   12      H      -3.7158655642     0.9111483516    -1.4716816572
   13      H       3.9707118856     0.2866613472     0.8214504150
   14      H       3.7158655642    -0.9111483516    -1.4716816572
   15      H      -3.9707118856    -0.2866613472     0.8214504150
   16      H      -1.2200126415     1.0162027753    -2.2055903130
 ----------------------------------------------------------------
 Molecular Point Group                 C2    NOp =  2
 Largest Abelian Subgroup              C2    NOp =  2
 Nuclear Repulsion Energy =   641.7125610111 hartrees
 There are       43 alpha and       42 beta electrons
 Applying Cartesian multipole field
    Component          Value
    ---------          -----
     (2,0,0)        1.00000E-11
     (0,2,0)        2.00000E-10
     (0,0,2)       -3.00000E-11
 Nucleus-field energy     =     0.0000000193 hartrees
 Requested basis set is cc-pVTZ
 There are 140 shells and 392 basis functions
 A cutoff of  1.0D-11 yielded   8070 shell pairs
 There are     62802 function pairs (     81870 Cartesian)
 Smallest overlap matrix eigenvalue = 9.39E-05
 Guess MOs from SCF MO coefficient file
 Reading MOs from coefficient file
 Reading MOs from coefficient file
 An unrestricted Hartree-Fock SCF calculation will be
 performed using Pulay DIIS extrapolation
 SCF converges when DIIS error is below 1.0E-08
 Geometry optimization detected.  Setting ReadMinima to 0
 Setting SaveMinima to 0
 using 16 threads for integral computing 
 ---------------------------------------
  Cycle       Energy         DIIS Error
 ---------------------------------------
    1   -1101.3385970568      8.78E-04
    2   -1101.3447455692      1.13E-04
    3   -1101.3453871730      4.29E-05
    4   -1101.3455032776      1.77E-05
    5   -1101.3455225705      5.99E-06
    6   -1101.3455260566      2.42E-06
    7   -1101.3455272644      1.30E-06
    8   -1101.3455276572      6.21E-07
    9   -1101.3455280261      5.64E-07
   10   -1101.3455282543      4.14E-07
   11   -1101.3455286206      2.82E-07
   12   -1101.3455288044      1.32E-07
   13   -1101.3455288431      5.77E-08
   14   -1101.3455288481      2.77E-08
   15   -1101.3455288491      1.38E-08
   16   -1101.3455288505      6.24E-09 Convergence criterion met
 ---------------------------------------
 <S^2> = 1.0048
 SCF time:  CPU 1252.39 s  wall 78.33 s
 SCF   energy in the final basis set = -1101.3455288505
 Total energy in the final basis set = -1101.3455288505
 
 Components of the MP2 correlation energy:
        aaaa  correlation energy =        -0.2338844236 au
        abab  correlation energy =        -1.3040911360 au
        bbbb  correlation energy =        -0.2129512132 au
        non-Brillouin singles    =        -0.0000000000 au

 Total  MP2   correlation energy =        -1.7509267728 au
        MP2         total energy =     -1103.0964556232 au

  Entering Z-vector solver.
   1         0           1      0.000536    0.000536
   2         0           1      0.000486    0.000486
   3         0           1      0.000345    0.000345
   4         0           1      0.000277    0.000277
   5         0           1      0.000125    0.000125
   6         0           1      0.000066    0.000066
   7         0           1      0.000037    0.000037
   8         0           1      0.000022    0.000022
   9         0           1      0.000011    0.000011
  10         0           1      0.000005    0.000005
  11         0           1      0.000002    0.000002
  12         1           0      0.000000    0.000000    Roots Converged
 Warning:  Cannot save MP2 spin density
 
 --------------------------------------------------------------
             Orbital Energies (a.u.) and Symmetries
 --------------------------------------------------------------
 
 Alpha MOs, Unrestricted
 -- Occupied --                  
-92.160 -92.160 -11.477 -11.476 -11.451 -11.451 -11.432 -11.432
  1 A     1 B     2 A     2 B     3 B     3 A     4 B     4 A                  
-11.404 -11.404  -9.162  -9.162  -6.843  -6.843  -6.843  -6.843
  5 A     5 B     6 B     6 A     7 B     7 A     8 A     8 B                  
 -6.841  -6.841  -1.394  -1.366  -1.229  -1.188  -1.186  -1.129
  9 A     9 B    10 A    10 B    11 A    12 A    11 B    12 B                  
 -0.995  -0.955  -0.933  -0.905  -0.888  -0.822  -0.753  -0.750
 13 A    14 A    13 B    14 B    15 A    15 B    16 B    16 A                  
 -0.746  -0.736  -0.728  -0.710  -0.695  -0.663  -0.650  -0.568
 17 A    17 B    18 A    19 A    18 B    20 A    19 B    20 B                  
 -0.539  -0.515  -0.488
 21 A    21 B    22 A                                                          
 -- Virtual --                   
 -0.106  -0.055  -0.002   0.017   0.018   0.025   0.031   0.039
 22 B    23 A    24 A    25 A    23 B    24 B    26 A    25 B                  
  0.044   0.060   0.071   0.084   0.093   0.114   0.151   0.184
 27 A    26 B    28 A    29 A    27 B    28 B    30 A    29 B                  
  0.195   0.197   0.202   0.221   0.225   0.238   0.259   0.265
 31 A    30 B    32 A    31 B    33 A    32 B    33 B    34 A                  
  0.281   0.288   0.291   0.301   0.318   0.324   0.330   0.345
 35 A    34 B    36 A    35 B    36 B    37 A    37 B    38 A                  
  0.354   0.365   0.366   0.368   0.385   0.386   0.398   0.406
 39 A    38 B    40 A    39 B    40 B    41 A    42 A    41 B                  
  0.427   0.429   0.435   0.444   0.447   0.454   0.458   0.467
 43 A    42 B    43 B    44 A    45 A    44 B    46 A    45 B                  
  0.469   0.478   0.507   0.514   0.521   0.522   0.549   0.559
 47 A    46 B    47 B    48 A    49 A    48 B    50 A    49 B                  
  0.580   0.581   0.621   0.623   0.635   0.642   0.682   0.684
 50 B    51 A    52 A    51 B    53 A    52 B    53 B    54 A                  
  0.695   0.711   0.718   0.736   0.739   0.752   0.769   0.789
 55 A    54 B    55 B    56 A    56 B    57 A    57 B    58 B                  
  0.798   0.818   0.837   0.853   0.868   0.878   0.898   0.909
 58 A    59 B    59 A    60 A    61 A    60 B    61 B    62 A                  
  0.920   0.935   0.944   0.957   0.985   0.986   0.995   1.015
 62 B    63 A    64 A    63 B    64 B    65 B    65 A    66 A                  
  1.024   1.030   1.052   1.058   1.064   1.084   1.107   1.121
 67 A    66 B    67 B    68 A    68 B    69 A    69 B    70 B                  
  1.132   1.142   1.157   1.195   1.220   1.237   1.246   1.249
 70 A    71 A    71 B    72 A    72 B    73 A    73 B    74 A                  
  1.265   1.297   1.300   1.332   1.334   1.352   1.362   1.369
 74 B    75 B    75 A    76 B    76 A    77 B    77 A    78 A                  
  1.372   1.382   1.405   1.407   1.420   1.430   1.463   1.492
 79 A    78 B    79 B    80 A    80 B    81 A    81 B    82 A                  
  1.503   1.506   1.517   1.535   1.578   1.601   1.605   1.652
 82 B    83 A    83 B    84 A    84 B    85 B    85 A    86 B                  
  1.680   1.692   1.706   1.713   1.729   1.754   1.767   1.779
 86 A    87 A    87 B    88 B    88 A    89 B    89 A    90 A                  
  1.787   1.807   1.876   1.915   1.915   1.919   1.943   2.000
 90 B    91 A    91 B    92 B    92 A    93 B    93 A    94 A                  
  2.006   2.014   2.020   2.035   2.063   2.068   2.072   2.108
 94 B    95 B    95 A    96 A    96 B    97 A    97 B    98 A                  
  2.111   2.134   2.137   2.226   2.257   2.262   2.274   2.294
 98 B    99 A    99 B   100 A   100 B   101 A   101 B   102 A                  
  2.315   2.318   2.325   2.351   2.375   2.377   2.388   2.421
102 B   103 A   103 B   104 A   104 B   105 A   105 B   106 B                  
  2.423   2.455   2.477   2.503   2.546   2.557   2.570   2.571
106 A   107 B   107 A   108 A   108 B   109 A   110 A   109 B                  
  2.598   2.605   2.619   2.632   2.648   2.688   2.721   2.723
110 B   111 A   111 B   112 B   112 A   113 A   113 B   114 A                  
  2.733   2.747   2.784   2.790   2.812   2.817   2.838   2.840
114 B   115 A   115 B   116 A   116 B   117 A   118 A   117 B                  
  2.853   2.856   2.902   2.962   2.967   3.005   3.010   3.027
119 A   118 B   119 B   120 A   120 B   121 A   121 B   122 A                  
  3.036   3.043   3.052   3.057   3.072   3.076   3.083   3.089
122 B   123 B   123 A   124 B   124 A   125 A   125 B   126 B                  
  3.129   3.141   3.141   3.156   3.172   3.185   3.204   3.216
126 A   127 A   127 B   128 A   128 B   129 A   130 A   129 B                  
  3.221   3.227   3.242   3.259   3.264   3.282   3.291   3.298
130 B   131 A   132 A   131 B   133 A   134 A   132 B   133 B                  
  3.299   3.326   3.330   3.336   3.339   3.348   3.363   3.375
135 A   134 B   136 A   137 A   135 B   136 B   138 A   137 B                  
  3.384   3.411   3.421   3.433   3.435   3.450   3.470   3.478
138 B   139 A   139 B   140 A   140 B   141 A   141 B   142 A                  
  3.486   3.532   3.534   3.557   3.573   3.581   3.602   3.620
142 B   143 A   143 B   144 A   145 A   144 B   146 A   147 A                  
  3.620   3.665   3.699   3.710   3.729   3.755   3.762   3.772
145 B   146 B   147 B   148 A   148 B   149 A   149 B   150 B                  
  3.778   3.810   3.822   3.835   3.870   3.871   3.881   3.890
150 A   151 A   151 B   152 A   153 A   152 B   153 B   154 A                  
  3.912   3.953   3.962   3.963   4.003   4.012   4.022   4.025
154 B   155 A   156 A   155 B   157 A   156 B   157 B   158 A                  
  4.038   4.044   4.063   4.071   4.101   4.119   4.132   4.172
158 B   159 A   159 B   160 A   160 B   161 B   161 A   162 A                  
  4.173   4.205   4.243   4.267   4.313   4.335   4.347   4.353
162 B   163 A   163 B   164 A   165 A   164 B   166 A   167 A                  
  4.354   4.374   4.419   4.446   4.471   4.501   4.502   4.505
165 B   166 B   168 A   167 B   169 A   168 B   170 A   169 B                  
  4.539   4.565   4.581   4.615   4.631   4.642   4.676   4.698
171 A   170 B   171 B   172 A   172 B   173 A   173 B   174 A                  
  4.755   4.760   4.820   4.839   4.858   4.887   4.910   4.918
174 B   175 A   175 B   176 A   176 B   177 A   178 A   179 A                  
  4.924   4.955   5.015   5.053   5.077   5.111   5.164   5.223
177 B   178 B   179 B   180 A   180 B   181 A   181 B   182 A                  
  5.237   5.249   5.251   5.309   5.413   5.418   5.478   5.511
182 B   183 A   183 B   184 A   184 B   185 A   185 B   186 A                  
  5.685   5.688   5.853   5.873   5.939   5.957   6.038   6.041
187 A   186 B   187 B   188 A   188 B   189 A   189 B   190 A                  
  6.159   6.380   6.403   6.546   6.610   9.332  10.674  11.833
190 B   191 A   191 B   192 A   192 B   193 A   193 B   194 A                  
 12.315  13.181  13.402  14.616  14.796
194 B   195 A   195 B   196 A   196 B                                          
 
 Beta MOs, Unrestricted
 -- Occupied --                  
-92.161 -92.161 -11.476 -11.475 -11.439 -11.439 -11.425 -11.425
  1 A     1 B     2 A     2 B     3 B     3 A     4 B     4 A                  
-11.410 -11.410  -9.164  -9.164  -6.845  -6.845  -6.844  -6.844
  5 B     5 A     6 B     6 A     7 B     7 A     8 B     8 A                  
 -6.843  -6.843  -1.381  -1.351  -1.214  -1.186  -1.177  -1.107
  9 A     9 B    10 A    10 B    11 A    12 A    11 B    12 B                  
 -0.987  -0.947  -0.921  -0.901  -0.886  -0.818  -0.748  -0.740
 13 A    14 A    13 B    14 B    15 A    15 B    16 A    17 A                  
 -0.738  -0.722  -0.722  -0.679  -0.666  -0.662  -0.648  -0.535
 16 B    18 A    17 B    18 B    19 A    20 A    19 B    21 A                  
 -0.532  -0.492
 20 B    21 B                                                                  
 -- Virtual --                   
 -0.199  -0.050  -0.025   0.008   0.021   0.021   0.036   0.043
 22 A    22 B    23 A    24 A    25 A    23 B    24 B    26 A                  
  0.045   0.051   0.064   0.072   0.089   0.097   0.117   0.152
 25 B    27 A    26 B    28 A    29 A    27 B    28 B    30 A                  
  0.189   0.198   0.202   0.204   0.223   0.226   0.240   0.267
 29 B    30 B    31 A    32 A    31 B    33 A    32 B    33 B                  
  0.269   0.289   0.294   0.295   0.313   0.317   0.324   0.327
 34 A    35 A    36 A    34 B    35 B    36 B    37 A    37 B                  
  0.354   0.358   0.377   0.379   0.389   0.393   0.398   0.409
 38 A    39 A    38 B    39 B    40 A    40 B    41 A    42 A                  
  0.415   0.433   0.434   0.438   0.452   0.453   0.460   0.461
 41 B    43 A    42 B    43 B    44 A    45 A    44 B    46 A                  
  0.473   0.474   0.482   0.513   0.515   0.526   0.527   0.554
 47 A    45 B    46 B    47 B    48 A    49 A    48 B    50 A                  
  0.563   0.582   0.584   0.623   0.624   0.637   0.644   0.685
 49 B    51 A    50 B    52 A    51 B    53 A    52 B    53 B                  
  0.690   0.698   0.718   0.723   0.738   0.742   0.756   0.774
 54 A    55 A    54 B    55 B    56 A    56 B    57 A    57 B                  
  0.790   0.803   0.824   0.841   0.855   0.872   0.880   0.903
 58 B    58 A    59 B    59 A    60 A    61 A    60 B    61 B                  
  0.912   0.922   0.940   0.954   0.964   0.986   0.989   0.995
 62 A    62 B    63 A    64 A    63 B    64 B    65 B    65 A                  
  1.021   1.027   1.034   1.054   1.061   1.065   1.089   1.110
 66 A    67 A    66 B    67 B    68 A    68 B    69 A    69 B                  
  1.125   1.133   1.149   1.164   1.198   1.228   1.246   1.250
 70 B    70 A    71 A    71 B    72 A    72 B    73 A    73 B                  
  1.258   1.268   1.300   1.303   1.336   1.336   1.361   1.362
 74 A    74 B    75 B    75 A    76 B    76 A    77 B    77 A                  
  1.374   1.377   1.382   1.408   1.408   1.423   1.434   1.469
 78 A    79 A    78 B    79 B    80 A    80 B    81 A    81 B                  
  1.496   1.505   1.510   1.519   1.539   1.581   1.605   1.606
 82 A    82 B    83 A    83 B    84 A    84 B    85 B    85 A                  
  1.652   1.681   1.693   1.710   1.713   1.728   1.755   1.768
 86 B    86 A    87 A    87 B    88 B    88 A    89 B    89 A                  
  1.782   1.786   1.809   1.876   1.915   1.916   1.921   1.945
 90 A    90 B    91 A    91 B    92 A    92 B    93 B    93 A                  
  2.000   2.006   2.016   2.020   2.038   2.062   2.068   2.075
 94 A    94 B    95 B    95 A    96 A    96 B    97 A    97 B                  
  2.123   2.125   2.137   2.141   2.230   2.261   2.263   2.272
 98 A    98 B    99 A    99 B   100 A   101 A   100 B   101 B                  
  2.299   2.319   2.320   2.326   2.354   2.382   2.394   2.395
102 A   103 A   102 B   103 B   104 A   104 B   105 A   105 B                  
  2.430   2.430   2.459   2.481   2.505   2.548   2.558   2.577
106 A   106 B   107 B   107 A   108 A   108 B   109 A   109 B                  
  2.578   2.604   2.612   2.625   2.638   2.653   2.697   2.724
110 A   110 B   111 A   111 B   112 B   112 A   113 A   113 B                  
  2.727   2.742   2.753   2.789   2.798   2.814   2.820   2.840
114 A   114 B   115 A   115 B   116 A   116 B   117 A   118 A                  
  2.847   2.860   2.862   2.905   2.966   2.975   3.006   3.019
117 B   119 A   118 B   119 B   120 A   120 B   121 A   121 B                  
  3.036   3.039   3.045   3.058   3.061   3.076   3.080   3.092
122 A   122 B   123 B   123 A   124 B   124 A   125 A   125 B                  
  3.096   3.140   3.148   3.148   3.161   3.177   3.188   3.208
126 B   126 A   127 A   127 B   128 A   128 B   129 A   130 A                  
  3.219   3.224   3.230   3.248   3.262   3.266   3.285   3.296
129 B   130 B   131 A   132 A   131 B   133 A   134 A   132 B                  
  3.301   3.303   3.340   3.341   3.343   3.347   3.352   3.367
135 A   133 B   136 A   134 B   135 B   137 A   136 B   138 A                  
  3.380   3.387   3.415   3.426   3.436   3.440   3.454   3.474
137 B   138 B   139 A   139 B   140 A   140 B   141 A   141 B                  
  3.481   3.489   3.535   3.539   3.561   3.578   3.584   3.607
142 A   142 B   143 A   143 B   144 A   145 A   144 B   146 A                  
  3.624   3.624   3.667   3.703   3.715   3.732   3.756   3.764
145 B   147 A   146 B   147 B   148 A   148 B   149 A   149 B                  
  3.775   3.782   3.812   3.827   3.837   3.873   3.874   3.884
150 B   150 A   151 A   151 B   152 A   152 B   153 A   153 B                  
  3.894   3.914   3.955   3.964   3.967   4.004   4.014   4.023
154 A   154 B   155 A   156 A   155 B   157 A   156 B   157 B                  
  4.028   4.041   4.045   4.065   4.073   4.103   4.120   4.133
158 A   158 B   159 A   159 B   160 A   160 B   161 B   161 A                  
  4.173   4.175   4.207   4.244   4.269   4.315   4.336   4.348
162 A   162 B   163 A   163 B   164 A   165 A   164 B   166 A                  
  4.355   4.355   4.375   4.424   4.449   4.473   4.503   4.504
165 B   167 A   166 B   168 A   167 B   169 A   168 B   170 A                  
  4.507   4.543   4.567   4.582   4.617   4.632   4.643   4.677
169 B   171 A   170 B   171 B   172 A   172 B   173 A   173 B                  
  4.700   4.756   4.763   4.823   4.842   4.860   4.888   4.911
174 A   174 B   175 A   175 B   176 A   176 B   177 A   178 A                  
  4.919   4.926   4.957   5.017   5.054   5.082   5.116   5.165
179 A   177 B   178 B   179 B   180 A   180 B   181 A   181 B                  
  5.225   5.239   5.250   5.252   5.309   5.414   5.419   5.480
182 A   182 B   183 A   183 B   184 A   184 B   185 A   185 B                  
  5.513   5.686   5.689   5.854   5.873   5.939   5.958   6.039
186 A   187 A   186 B   187 B   188 A   188 B   189 A   189 B                  
  6.041   6.159   6.381   6.403   6.546   6.610   9.334  10.677
190 A   190 B   191 A   191 B   192 A   192 B   193 A   193 B                  
 11.837  12.319  13.185  13.404  14.617  14.798
194 A   194 B   195 A   195 B   196 A   196 B                                  
 --------------------------------------------------------------
 
          Ground-State Mulliken Net Atomic Charges

     Atom                 Charge (a.u.)    Spin (a.u.)
  --------------------------------------------------------
      1 S                     0.267439      -0.026700
      2 C                    -0.113414      -0.081458
      3 C                    -0.156530       0.494490
      4 C                    -0.129857      -0.304557
      5 C                    -0.054306       0.414874
      6 H                     0.219819       0.023945
      7 C                    -0.054306       0.414874
      8 S                     0.267439      -0.026700
      9 C                    -0.129857      -0.304557
     10 C                    -0.113414      -0.081458
     11 C                    -0.156530       0.494490
     12 H                     0.225183      -0.036572
     13 H                     0.241666       0.015977
     14 H                     0.225183      -0.036572
     15 H                     0.241666       0.015977
     16 H                     0.219819       0.023945
  --------------------------------------------------------
  Sum of atomic charges =     1.000000
  Sum of spin   charges =     1.000000

 -----------------------------------------------------------------
                    Cartesian Multipole Moments
 -----------------------------------------------------------------
    Charge (ESU x 10^10)
                 4.8032
    Dipole Moment (Debye)
         X      -0.0000      Y       0.0000      Z      -0.5606
       Tot       0.5606
    Quadrupole Moments (Debye-Ang)
        XX     -22.3859     XY      -1.8838     YY     -69.8739
        XZ       0.0000     YZ      -0.0000     ZZ     -58.9262
    Octopole Moments (Debye-Ang^2)
       XXX      -0.0000    XXY       0.0000    XYY      -0.0000
[...]
 ******************************

                       Coordinates (Angstroms)
     ATOM                X               Y               Z
      1  S         1.5848139065    0.4300493127    1.0844992747
      2  C         3.0228349083    0.0024201071    0.3724982879
      3  C         2.8913685484   -0.4803893663   -0.9156994866
      4  C         1.5868027357   -0.4661965097   -1.3280988150
      5  C         0.7053913848    0.0382801701   -0.3728769264
      6  H         1.2508524033   -0.8235155412   -2.2857577622
      7  C        -0.7053913848   -0.0382801701   -0.3728769264
      8  S        -1.5848139065   -0.4300493127    1.0844992747
      9  C        -1.5868027357    0.4661965097   -1.3280988150
     10  C        -3.0228349083   -0.0024201071    0.3724982879
     11  C        -2.8913685484    0.4803893663   -0.9156994866
     12  H        -3.7227421874    0.8314709039   -1.4967557931
     13  H         3.9471655696    0.1357492707    0.9053459620
     14  H         3.7227421874   -0.8314709039   -1.4967557931
     15  H        -3.9471655696   -0.1357492707    0.9053459620
     16  H        -1.2508524033    0.8235155412   -2.2857577622

Z-matrix Print:
$molecule
1 2
S 
C  1 1.660637
H  2 1.075216 1 120.001150
C  2 1.381970 1 114.031958 3 178.502709 0
H  4 1.073344 2 123.038894 1 177.722366 0
C  4 1.368271 2 111.593985 1 -1.438447 0
H  6 1.075942 4 124.230495 2 178.198282 0
C  6 1.394214 4 113.578873 2 -0.647613 0
C  8 1.412859 6 127.709365 4 167.112620 0
C  9 1.394214 8 127.709365 6 60.000000 0
H  10 1.075942 9 122.180226 8 -11.759998 0
C  10 1.368271 9 113.578873 8 167.112620 0
H  12 1.073344 10 125.361247 9 -179.784982 0
C  12 1.381970 10 111.593985 9 -0.647613 0
H  14 1.075216 12 125.947776 10 176.959805 0
S  14 1.660637 12 114.031958 10 -1.438447 0
$end

 
 --------------------------------------------------------------
             Orbital Energies (a.u.) and Symmetries
 --------------------------------------------------------------
 
 Alpha MOs, Unrestricted
 -- Occupied --                  
-92.160 -92.160 -11.477 -11.476 -11.451 -11.451 -11.435 -11.435
  1 A     1 B     2 A     2 B     3 B     3 A     4 B     4 A                  
-11.402 -11.402  -9.162  -9.162  -6.843  -6.843  -6.842  -6.842
  5 A     5 B     6 B     6 A     7 B     7 A     8 A     8 B                  
 -6.840  -6.840  -1.395  -1.364  -1.231  -1.190  -1.184  -1.129
  9 A     9 B    10 A    10 B    11 A    12 A    11 B    12 B                  
 -0.999  -0.957  -0.930  -0.905  -0.889  -0.823  -0.753  -0.752
 13 A    14 A    13 B    14 B    15 A    15 B    16 B    16 A                  
 -0.747  -0.736  -0.729  -0.710  -0.692  -0.666  -0.647  -0.573
 17 A    17 B    18 A    19 A    18 B    20 A    19 B    20 B                  
 -0.537  -0.518  -0.485
 21 A    21 B    22 A                                                          
 -- Virtual --                   
 -0.116  -0.047  -0.003   0.016   0.018   0.023   0.033   0.043
 22 B    23 A    24 A    25 A    23 B    24 B    26 A    27 A                  
  0.043   0.062   0.071   0.080   0.101   0.118   0.143   0.187
 25 B    26 B    28 A    29 A    27 B    28 B    30 A    29 B                  
  0.187   0.202   0.203   0.216   0.222   0.242   0.261   0.265
 31 A    30 B    32 A    31 B    33 A    32 B    33 B    34 A                  
  0.280   0.285   0.294   0.301   0.314   0.322   0.328   0.351
 35 A    34 B    36 A    35 B    36 B    37 A    37 B    38 A                  
  0.363   0.365   0.369   0.374   0.384   0.391   0.391   0.404
 38 B    39 A    40 A    39 B    41 A    40 B    42 A    41 B                  
  0.426   0.426   0.432   0.442   0.450   0.455   0.460   0.470
 43 A    42 B    43 B    44 A    45 A    44 B    46 A    47 A                  
  0.474   0.475   0.512   0.512   0.514   0.529   0.553   0.555
 45 B    46 B    47 B    48 A    49 A    48 B    49 B    50 A                  
  0.576   0.579   0.618   0.619   0.639   0.642   0.680   0.681
 50 B    51 A    51 B    52 A    53 A    52 B    53 B    54 A                  
  0.692   0.705   0.722   0.733   0.748   0.750   0.780   0.794
 55 A    54 B    55 B    56 A    56 B    57 A    57 B    58 B                  
  0.795   0.808   0.842   0.852   0.860   0.878   0.904   0.909
 58 A    59 B    59 A    60 A    61 A    60 B    61 B    62 A                  
  0.918   0.922   0.941   0.952   0.958   0.978   0.998   1.006
 63 A    62 B    64 A    63 B    64 B    65 B    65 A    66 A                  
  1.025   1.030   1.044   1.055   1.068   1.091   1.095   1.118
 66 B    67 A    67 B    68 A    68 B    69 A    69 B    70 B                  
  1.136   1.146   1.161   1.185   1.210   1.224   1.242   1.253
 70 A    71 A    71 B    72 A    72 B    73 A    74 A    73 B                  
  1.273   1.298   1.304   1.335   1.345   1.352   1.357   1.365
 74 B    75 A    75 B    76 A    76 B    77 A    77 B    78 A                  
  1.369   1.383   1.401   1.406   1.419   1.422   1.463   1.480
 79 A    78 B    80 A    79 B    80 B    81 A    81 B    82 A                  
  1.493   1.505   1.514   1.540   1.589   1.601   1.623   1.651
 82 B    83 A    83 B    84 A    84 B    85 A    85 B    86 B                  
  1.658   1.700   1.702   1.726   1.729   1.744   1.769   1.786
 86 A    87 B    87 A    88 A    88 B    89 B    89 A    90 B                  
  1.790   1.809   1.879   1.909   1.911   1.938   1.950   1.999
 90 A    91 A    91 B    92 A    92 B    93 A    93 B    94 A                  
  2.002   2.010   2.019   2.038   2.058   2.070   2.080   2.105
 94 B    95 B    95 A    96 A    96 B    97 B    97 A    98 B                  
  2.109   2.132   2.133   2.203   2.241   2.264   2.271   2.294
 98 A    99 B    99 A   100 B   100 A   101 A   101 B   102 A                  
  2.299   2.323   2.330   2.351   2.367   2.376   2.403   2.408
102 B   103 A   103 B   104 A   104 B   105 A   105 B   106 B                  
  2.424   2.484   2.484   2.504   2.543   2.556   2.566   2.567
106 A   107 B   107 A   108 A   109 A   108 B   109 B   110 A                  
  2.598   2.599   2.629   2.643   2.646   2.686   2.721   2.733
110 B   111 A   111 B   112 B   112 A   113 A   113 B   114 A                  
  2.734   2.748   2.764   2.790   2.810   2.824   2.832   2.839
114 B   115 A   115 B   116 A   117 A   118 A   116 B   117 B                  
  2.856   2.884   2.897   2.963   2.978   2.997   3.011   3.012
119 A   118 B   119 B   120 A   120 B   121 A   122 A   121 B                  
  3.034   3.049   3.052   3.055   3.062   3.079   3.083   3.089
122 B   123 B   123 A   124 B   124 A   125 A   125 B   126 B                  
  3.131   3.137   3.140   3.157   3.171   3.178   3.197   3.223
126 A   127 A   127 B   128 A   128 B   129 A   130 A   131 A                  
  3.233   3.243   3.248   3.260   3.266   3.276   3.282   3.306
129 B   130 B   132 A   131 B   133 A   132 B   134 A   135 A                  
  3.308   3.325   3.328   3.332   3.333   3.336   3.362   3.369
133 B   134 B   136 A   137 A   135 B   136 B   138 A   137 B                  
  3.381   3.398   3.421   3.437   3.439   3.449   3.449   3.463
138 B   139 A   139 B   140 A   140 B   141 B   141 A   142 B                  
  3.490   3.524   3.541   3.565   3.573   3.575   3.607   3.619
142 A   143 B   143 A   144 A   145 A   144 B   146 A   147 A                  
  3.621   3.663   3.697   3.714   3.722   3.756   3.767   3.771
145 B   146 B   147 B   148 A   148 B   149 B   149 A   150 B                  
  3.775   3.808   3.825   3.834   3.872   3.873   3.883   3.887
150 A   151 A   151 B   152 A   152 B   153 A   154 A   153 B                  
  3.909   3.937   3.959   3.964   4.001   4.010   4.028   4.033
154 B   155 A   156 A   155 B   157 A   156 B   158 A   157 B                  
  4.036   4.041   4.066   4.067   4.105   4.125   4.135   4.163
158 B   159 A   159 B   160 A   160 B   161 B   161 A   162 A                  
  4.176   4.207   4.247   4.271   4.300   4.330   4.346   4.350
162 B   163 A   163 B   164 A   165 A   164 B   166 A   165 B                  
  4.355   4.380   4.416   4.447   4.474   4.502   4.509   4.513
167 A   166 B   168 A   167 B   169 A   168 B   170 A   169 B                  
  4.544   4.561   4.578   4.611   4.638   4.645   4.673   4.701
171 A   170 B   171 B   172 A   172 B   173 A   173 B   174 A                  
  4.758   4.762   4.790   4.835   4.852   4.881   4.904   4.920
175 A   174 B   175 B   176 A   176 B   177 A   178 A   177 B                  
  4.930   4.958   5.008   5.044   5.083   5.107   5.171   5.218
179 A   178 B   179 B   180 A   180 B   181 A   181 B   182 A                  
  5.241   5.254   5.255   5.315   5.413   5.421   5.478   5.501
182 B   183 A   183 B   184 A   184 B   185 A   185 B   186 A                  
  5.678   5.681   5.835   5.859   5.948   5.953   6.025   6.038
187 A   186 B   187 B   188 A   188 B   189 A   190 A   189 B                  
  6.175   6.370   6.400   6.556   6.567   9.289  10.678  11.807
190 B   191 A   191 B   192 A   192 B   193 A   193 B   194 A                  
 12.468  13.150  13.379  14.602  14.755
194 B   195 A   195 B   196 A   196 B                                          
 
 Beta MOs, Unrestricted
 -- Occupied --                  
-92.161 -92.161 -11.477 -11.476 -11.439 -11.439 -11.427 -11.427
  1 A     1 B     2 A     2 B     3 B     3 A     4 B     4 A                  
-11.409 -11.409  -9.164  -9.164  -6.845  -6.845  -6.844  -6.844
  5 B     5 A     6 B     6 A     7 B     7 A     8 B     8 A                  
 -6.843  -6.843  -1.382  -1.349  -1.219  -1.185  -1.174  -1.106
  9 B     9 A    10 A    10 B    11 A    12 A    11 B    12 B                  
 -0.990  -0.949  -0.918  -0.900  -0.886  -0.819  -0.750  -0.741
 13 A    14 A    13 B    14 B    15 A    15 B    16 A    17 A                  
 -0.737  -0.726  -0.722  -0.679  -0.667  -0.662  -0.645  -0.536
 16 B    18 A    17 B    18 B    19 A    20 A    19 B    21 A                  
 -0.535  -0.505
 20 B    21 B                                                                  
 -- Virtual --                   
 -0.189  -0.053  -0.024   0.007   0.021   0.024   0.036   0.043
 22 A    22 B    23 A    24 A    25 A    23 B    24 B    26 A                  
  0.046   0.052   0.066   0.072   0.084   0.105   0.120   0.145
 25 B    27 A    26 B    28 A    29 A    27 B    28 B    30 A                  
  0.192   0.194   0.205   0.205   0.217   0.223   0.243   0.269
 29 B    31 A    32 A    30 B    31 B    33 A    32 B    33 B                  
  0.270   0.287   0.291   0.297   0.313   0.316   0.321   0.325
 34 A    35 A    34 B    36 A    35 B    36 B    37 A    37 B                  
  0.356   0.374   0.378   0.384   0.387   0.395   0.400   0.402
 38 A    39 A    38 B    39 B    40 A    40 B    41 A    42 A                  
  0.413   0.430   0.430   0.434   0.447   0.458   0.461   0.464
 41 B    42 B    43 A    43 B    44 A    45 A    44 B    46 A                  
  0.475   0.478   0.482   0.515   0.517   0.517   0.534   0.558
 47 A    45 B    46 B    48 A    47 B    49 A    48 B    49 B                  
  0.558   0.580   0.580   0.619   0.621   0.641   0.645   0.682
 50 A    50 B    51 A    51 B    52 A    53 A    52 B    53 B                  
  0.686   0.695   0.712   0.727   0.736   0.751   0.754   0.785
 54 A    55 A    54 B    55 B    56 A    56 B    57 A    57 B                  
  0.797   0.799   0.812   0.845   0.854   0.863   0.881   0.908
 58 B    58 A    59 B    59 A    60 A    61 A    60 B    61 B                  
  0.916   0.921   0.925   0.951   0.954   0.963   0.981   0.998
 62 A    63 A    62 B    64 A    63 B    64 B    65 B    65 A                  
  1.011   1.030   1.032   1.046   1.058   1.069   1.095   1.096
 66 A    66 B    67 A    67 B    68 A    68 B    69 B    69 A                  
  1.124   1.138   1.153   1.167   1.188   1.218   1.232   1.252
 70 B    70 A    71 A    71 B    72 A    72 B    73 A    74 A                  
  1.256   1.279   1.302   1.308   1.336   1.348   1.355   1.366
 73 B    74 B    75 A    75 B    76 A    76 B    77 A    77 B                  
  1.368   1.374   1.383   1.401   1.408   1.423   1.425   1.470
 78 A    79 A    78 B    80 A    79 B    80 B    81 A    81 B                  
  1.484   1.495   1.509   1.516   1.543   1.592   1.601   1.625
 82 A    82 B    83 A    83 B    84 A    84 B    85 A    85 B                  
  1.651   1.660   1.703   1.703   1.725   1.729   1.745   1.771
 86 B    86 A    87 A    87 B    88 A    88 B    89 B    89 A                  
  1.786   1.791   1.812   1.879   1.909   1.912   1.940   1.951
 90 B    90 A    91 A    91 B    92 A    92 B    93 A    93 B                  
  1.998   2.001   2.011   2.019   2.040   2.058   2.073   2.081
 94 A    94 B    95 B    95 A    96 A    96 B    97 B    97 A                  
  2.118   2.124   2.135   2.136   2.211   2.240   2.266   2.267
 98 B    98 A    99 B    99 A   100 B   100 A   101 B   101 A                  
  2.300   2.307   2.326   2.332   2.354   2.378   2.392   2.407
102 A   102 B   103 A   103 B   104 A   104 B   105 A   105 B                  
  2.418   2.430   2.488   2.490   2.507   2.545   2.557   2.571
106 B   106 A   107 A   107 B   108 A   109 A   108 B   109 B                  
  2.575   2.605   2.607   2.636   2.646   2.652   2.694   2.723
110 A   110 B   111 A   111 B   112 B   112 A   113 A   113 B                  
  2.737   2.744   2.754   2.772   2.795   2.816   2.826   2.836
114 A   114 B   115 A   115 B   116 A   117 A   118 A   116 B                  
  2.846   2.864   2.888   2.899   2.967   2.985   3.005   3.012
117 B   119 A   118 B   119 B   120 A   120 B   121 A   122 A                  
  3.020   3.041   3.050   3.059   3.059   3.065   3.086   3.092
121 B   122 B   123 B   124 B   123 A   124 A   125 A   125 B                  
  3.096   3.139   3.146   3.148   3.162   3.178   3.182   3.201
126 B   126 A   127 B   127 A   128 A   128 B   129 A   130 A                  
  3.226   3.234   3.244   3.251   3.266   3.268   3.283   3.285
131 A   129 B   130 B   132 A   131 B   133 A   132 B   134 A                  
  3.309   3.311   3.334   3.334   3.341   3.343   3.348   3.365
135 A   133 B   136 A   134 B   135 B   136 B   137 A   138 A                  
  3.373   3.386   3.402   3.425   3.440   3.444   3.454   3.455
137 B   138 B   139 A   139 B   140 A   140 B   141 A   141 B                  
  3.466   3.494   3.530   3.546   3.569   3.577   3.579   3.612
142 B   142 A   143 B   143 A   144 A   145 A   144 B   146 A                  
  3.623   3.625   3.665   3.701   3.720   3.725   3.759   3.767
147 A   145 B   146 B   147 B   148 A   148 B   149 B   149 A                  
  3.773   3.779   3.811   3.830   3.836   3.875   3.876   3.887
150 B   150 A   151 A   151 B   152 A   152 B   153 A   154 A                  
  3.889   3.911   3.940   3.962   3.967   4.003   4.011   4.030
153 B   154 B   155 A   156 A   155 B   157 A   156 B   158 A                  
  4.037   4.037   4.042   4.068   4.069   4.107   4.126   4.136
157 B   158 B   159 A   159 B   160 A   160 B   161 B   161 A                  
  4.164   4.178   4.208   4.248   4.273   4.303   4.332   4.347
162 A   162 B   163 A   163 B   164 A   165 A   164 B   166 A                  
  4.352   4.357   4.382   4.420   4.450   4.476   4.503   4.510
165 B   167 A   166 B   168 A   167 B   169 A   168 B   170 A                  
  4.515   4.549   4.564   4.579   4.613   4.640   4.645   4.675
169 B   171 A   170 B   171 B   172 A   172 B   173 A   173 B                  
  4.703   4.761   4.764   4.792   4.838   4.854   4.883   4.906
174 A   175 A   174 B   175 B   176 A   176 B   177 A   178 A                  
  4.922   4.932   4.961   5.010   5.046   5.089   5.113   5.173
177 B   179 A   178 B   179 B   180 A   180 B   181 A   181 B                  
  5.219   5.242   5.256   5.256   5.316   5.414   5.422   5.479
182 A   182 B   183 A   183 B   184 A   184 B   185 A   185 B                  
  5.503   5.678   5.682   5.836   5.860   5.949   5.954   6.025
186 A   187 A   186 B   187 B   188 A   188 B   189 A   190 A                  
  6.039   6.175   6.371   6.401   6.556   6.568   9.291  10.681
189 B   190 B   191 A   191 B   192 A   192 B   193 A   193 B                  
 11.811  12.473  13.154  13.380  14.603  14.757
194 A   194 B   195 A   195 B   196 A   196 B                                  
 --------------------------------------------------------------
 
          Ground-State Mulliken Net Atomic Charges

     Atom                 Charge (a.u.)    Spin (a.u.)
  --------------------------------------------------------
      1 S                     0.249780      -0.039096
      2 C                    -0.109416      -0.022501
      3 C                    -0.162620       0.406710
      4 C                    -0.125358      -0.216710
      5 C                    -0.035843       0.371256
      6 H                     0.217536       0.019919
      7 C                    -0.035843       0.371256
      8 S                     0.249780      -0.039096
      9 C                    -0.125358      -0.216710
     10 C                    -0.109416      -0.022501
     11 C                    -0.162620       0.406710
     12 H                     0.225662      -0.031932
     13 H                     0.240258       0.012353
     14 H                     0.225662      -0.031932
     15 H                     0.240258       0.012353
     16 H                     0.217536       0.019919
  --------------------------------------------------------
  Sum of atomic charges =     1.000000
  Sum of spin   charges =     1.000000

 -----------------------------------------------------------------
                    Cartesian Multipole Moments
 -----------------------------------------------------------------
    Charge (ESU x 10^10)
                 4.8032
    Dipole Moment (Debye)
         X      -0.0000      Y       0.0000      Z      -0.6638
       Tot       0.6638
    Quadrupole Moments (Debye-Ang)
        XX     -22.9365     XY      -2.9107     YY     -70.9807
        XZ      -0.0000     YZ      -0.0000     ZZ     -57.7389
    Octopole Moments (Debye-Ang^2)
       XXX      -0.0000    XXY       0.0000    XYY      -0.0000
       YYY      -0.0000    XXZ       6.1413    XYZ      13.9677
       YYZ      -1.2709    XZZ      -0.0000    YZZ       0.0000
       ZZZ     -12.5844
    Hexadecapole Moments (Debye-Ang^3)
      XXXX   -1258.5009   XXXY     -12.0096   XXYY    -350.5545
      XYYY      30.0920   YYYY    -152.6254   XXXZ      -0.0000
      XXYZ      -0.0000   XYYZ      -0.0000   YYYZ      -0.0000
      XXZZ    -325.7875   XYZZ      -6.6836   YYZZ    -100.5296
      XZZZ       0.0000   YZZZ       0.0000   ZZZZ    -441.9467
 -----------------------------------------------------------------
Archival summary:
1\1\nid01569\OPT\MP2\BasisUnspecified\286(1+,2)\TueMar713:00:052017TueMar713:00:052017\0\\#,OPT,MP2,BasisUnspecified,\\1,2\S\C,1,1.66064\H,2,1.07522,1,120.001\C,2,1.38197,1,114.032,3,178.503,0\H,4,1.07334,2,123.039,1,177.722,0\C,4,1.36827,2,111.594,1,-1.43845,0\H,6,1.07594,4,124.23,2,178.198,0\C,6,1.39421,4,113.579,2,-0.647613,0\C,8,1.41286,6,127.709,4,167.113,0\C,9,1.39421,8,127.709,6,60,0\H,10,1.07594,9,122.18,8,-11.76,0\C,10,1.36827,9,113.579,8,167.113,0\H,12,1.07334,10,125.361,9,-179.785,0\C,12,1.38197,10,111.594,9,-0.647613,0\H,14,1.07522,12,125.948,10,176.96,0\S,14,1.66064,12,114.032,10,-1.43845,0\\HF=-1101.3517\MP2=-1103.09779\\@

 Total job time:  28428.96s(wall), 137544.03s(cpu) 
 Tue Mar  7 13:00:05 2017

        *************************************************************
        *                                                           *
        *  Thank you very much for using Q-Chem.  Have a nice day.  *
        *                                                           *
        *************************************************************


0 sent ACK to 0 
now end server 0 ... 
