srun -N 1 --ntasks-per-node 1 --cpus-per-task 64 --cpu_bind=cores --nodelist nid01566 /global/project/projectdirs/jcesr/qchem/qc44/cnl_qc441/dist/exe/qcprog.cori.haswell.exe .pt_mp2_hole_180.0.in.60196.qcin.1 /dev/shm/eg_qchem/qchem60196/
Process 0 of 1 is on nid01566 - thread support 0
initial socket setup ...start
initial socket setup ...done 
now start server 0 ... 
nid01566 10.128.6
Q-Chem Developer Version! Running on 10.128.6.*
                  Welcome to Q-Chem
     A Quantum Leap Into The Future Of Chemistry


 Q-Chem 4.4, Q-Chem, Inc., Pleasanton, CA (2016)

 Y. Shao,  Z. Gan,  E. Epifanovsky,  A. T. B. Gilbert,  M. Wormit,  
 J. Kussmann,  A. W. Lange,  A. Behn,  J. Deng,  X. Feng,  D. Ghosh,  
 M. Goldey,  P. R. Horn,  L. D. Jacobson,  I. Kaliman,  F.Rob,  
 R. Z. Khaliullin,  T. Kus,  A. Landau,  J. Liu,  E. I. Proynov,  Y. M. Rhee,  
 R. M. Richard,  M. A. Rohrdanz,  R. P. Steele,  E. J. Sundstrom,  
 H. L. Woodcock III,  P. M. Zimmerman,  D. Zuev,  B. Albrecht,  E. Alguire,  
 B. Austin,  S. A. Baeppler,  G. J. O. Beran,  Y. A. Bernard,  E. Berquist,  
 K. Brandhorst,  K. B. Bravaya,  S. T. Brown,  D. Casanova,  C.-M. Chang,  
 Y. Chen,  S. H. Chien,  K. D. Closser,  M. P. Coons,  D. L. Crittenden,  
 S. Dasgupta,  M. Diedenhofen,  R. A. DiStasio Jr.,  H. Do,  A. D. Dutoi,  
 R. G. Edgar,  P.-T. Fang,  S. Fatehi,  Q. Feng,  L. Fusti-Molnar,  
 A. Ghysels,  A. Golubeva-Zadorozhnaya,  J. Gomes,  A. Gunina,  
 M. W. D. Hanson-Heine,  P. H. P. Harbach,  A. W. Hauser,  E. G. Hohenstein,  
 Z. C. Holden,  K. Hui,  T.-C. Jagau,  H. Ji,  B. Kaduk,  K. Khistyaev,  
 Jaehoon Kim,  Jihan Kim,  R. A. King,  P. Klunzinger,  D. Kosenkov,  
 T. Kowalczyk,  C. M. Krauter,  A. Kunitsa,  K. U. Lao,  A. Laurent,  
 K. V. Lawler,  D. Lefrancois,  S. Lehtola,  S. V. Levchenko,  C. Y. Lin,  
 Y.-S. Lin,  F. Liu,  E. Livshits,  R. C. Lochan,  A. Luenser,  P. Manohar,  
 S. F. Manzer,  S.-P. Mao,  Y. Mao,  N. Mardirossian,  A. V. Marenich,  
 L. A. Martinez-Martinez,  S. A. Maurer,  N. J. Mayhall,  J.-M. Mewes,  
 A. F. Morrison,  K. Nanda,  C. M. Oana,  R. Olivares-Amaya,  D. P. O'Neill,  
 J. A. Parkhill,  T. M. Perrine,  R. Peverati,  P. A. Pieniazek,  F. Plasser,  
 A. Prociuk,  D. R. Rehn,  E. Rosta,  N. J. Russ,  N. Sergueev,  
 S. M. Sharada,  S. Sharma,  D. W. Small,  A. Sodt,  T. Stauch,  T. Stein,  
 D. Stuck,  Y.-C. Su,  A. J. W. Thom,  T. Tsuchimochi,  L. Vogt,  O. Vydrov,  
 T. Wang,  M. A. Watson,  J. Wenzel,  A. White,  C. F. Williams,  
 V. Vanovschi,  S. Yeganeh,  S. R. Yost,  Z.-Q. You,  I. Y. Zhang,  X. Zhang,  
 Y. Zhao,  B. R. Brooks,  G. K. L. Chan,  D. M. Chipman,  C. J. Cramer,  
 W. A. Goddard III,  M. S. Gordon,  W. J. Hehre,  A. Klamt,  
 H. F. Schaefer III,  M. W. Schmidt,  C. D. Sherrill,  D. G. Truhlar,  
 A. Warshel,  X. Xu,  A. Aspuru-Guzik,  R. Baer,  A. T. Bell,  N. A. Besley,  
 J.-D. Chai,  A. Dreuw,  B. D. Dunietz,  T. R. Furlani,  S. R. Gwaltney,  
 C.-P. Hsu,  Y. Jung,  J. Kong,  D. S. Lambrecht,  W. Liang,  C. Ochsenfeld,  
 V. A. Rassolov,  L. V. Slipchenko,  J. E. Subotnik,  T. Van Voorhis,  
 J. M. Herbert,  A. I. Krylov,  P. M. W. Gill,  M. Head-Gordon

 Contributors to earlier versions of Q-Chem not listed above: 
 R. D. Adamson,  J. Baker,  E. F. C. Byrd,  A. K. Chakraborty,  C.-L. Cheng,  
 H. Dachsel,  R. J. Doerksen,  G. Hawkins,  A. Heyden,  S. Hirata,  
 G. Kedziora,  F. J. Keil,  C. Kelley,  P. P. Korambath,  W. Kurlancheek,  
 A. M. Lee,  M. S. Lee,  D. Liotard,  I. Lotan,  P. E. Maslen,  N. Nair,  
 D. Neuhauser,  R. Olson,  B. Peters,  J. Ritchie,  N. E. Schultz,  
 N. Shenvi,  A. C. Simmonett,  K. S. Thanthiriwatte,  Q. Wu,  W. Zhang

 Please cite Q-Chem as follows:
 Y. Shao et al., Mol. Phys. 113, 184-215 (2015)
 DOI: 10.1080/00268976.2014.952696

 Q-Chem 4.4.1 for Intel X86 EM64T Linux

 Parts of Q-Chem use Armadillo 5.200.1 (Boston Tea Smuggler).
 http://arma.sourceforge.net/

 Q-Chem begins on Tue Mar  7 05:06:25 2017  

Host: nid01545
0

     Scratch files written to /dev/shm/eg_qchem/qchem60196//
 Parallel job on  1  processors

Checking the input file for inconsistencies... 	...done.

--------------------------------------------------------------
User input:
--------------------------------------------------------------
$molecule
 1  2
 S           1.81042700       -1.22909900       -0.13996800
 C           3.10211600       -0.18861200       -0.13982200
 C           2.74845300        1.15163900       -0.14006900
 C           1.39169900        1.31613900       -0.14029100
 C           0.68906700        0.11310500       -0.14015500
 H           0.90454800        2.27578700       -0.14040700
 C          -0.68906700       -0.11310500       -0.14015500
 S          -1.81042700        1.22909900       -0.14034967
 C          -1.39169900       -1.31613900       -0.14001900
 C          -3.10211601        0.18861206       -0.13999650
 C          -2.74845301       -1.15163896       -0.13989383
 H          -3.47107902       -1.94536988       -0.13948900
 H           4.10439600       -0.57731800       -0.13934700
 H           3.47107900        1.94537000       -0.13983300
 H          -4.10439603        0.57731816       -0.13965984
 H          -0.90454800       -2.27578700       -0.13987503
$end


$rem
         jobtype = opt
        exchange = hf
           basis = cc-pvtz
  max_scf_cycles = 100
      mem_static = 6200
       mem_total = 62000
          method = mp2
$end


$opt
CONSTRAINT
tors 4 5 7 9 180.0
ENDCONSTRAINT
$end

--------------------------------------------------------------
 ----------------------------------------------------------------
             Standard Nuclear Orientation (Angstroms)
    I     Atom           X                Y                Z
 ----------------------------------------------------------------
    1      S       1.8287307320    -1.2016963923    -0.0000878867
    2      C       3.1046045582    -0.1418758375     0.0001616992
    3      C       2.7307987979     1.1928973904     0.0000895342
    4      C       1.3717214325     1.3369473832    -0.0000840523
    5      C       0.6872856147     0.1234688451    -0.0000840517
    6      H       0.8701743175     2.2891505577    -0.0000700659
    7      C      -0.6872856142    -0.1234688446    -0.0000840514
    8      S      -1.8287307316     1.2016963938    -0.0000878863
    9      C      -1.3717214320    -1.3369473827    -0.0000840507
   10      C      -3.1046045576     0.1418758366     0.0001616978
   11      C      -2.7307988002    -1.1928973933     0.0000895328
   12      H      -3.4413900554    -1.9974203905     0.0004099505
   13      H       4.1126244456    -0.5154444663     0.0005675275
   14      H       3.4413900562     1.9974203876     0.0004099465
   15      H      -4.1126244483     0.5154444639     0.0005675295
   16      H      -0.8701743164    -2.2891505606    -0.0000700671
 ----------------------------------------------------------------
 Molecular Point Group                 C2    NOp =  2
 Largest Abelian Subgroup              C2    NOp =  2
 Nuclear Repulsion Energy =   639.8765228282 hartrees
 There are       43 alpha and       42 beta electrons
 Requested basis set is cc-pVTZ
 There are 140 shells and 392 basis functions

 Total QAlloc Memory Limit  62000 MB
 Mega-Array Size      6061 MB
 MEM_STATIC part      6200 MB
 A cutoff of  1.0D-11 yielded   8069 shell pairs
 There are     62785 function pairs (     81906 Cartesian)
 
 -------------------------------------------------------
 OpenMP Integral Computing Module                       
 Release: version 1.0, May 2013, Q-Chem Inc. Pittsburgh 
 -------------------------------------------------------
 Integral Job Info:
 Integral job number is                      11
 Integral operator is                         1
 short-range coefficients                     0
 long-range coefficients              100000000
 Omega coefficients                           0
 if combine SR and LR in K                    0
 Integral screening is                        0
 Integral computing path is                   2
 max size of driver memory is            800000
 size of driver memory is                776718
 size of scratch memory is             26248924
 max col of scratch BK array              10000
 max len of scratch array in speh3          662
 max len of scratch index in speh4           32
 max int batch size is                      520
 min int batch size is                       52
 fixed nKL is                                52
 max L of basis functions is                  3
 order of int derivative is                   0
 number of shells is                        140
 number of basis is                         448
 number of cartesian basis is               448
 number of contracted shell pairs          8069
 number of primitive shell pairs          28723
 maxK2 (contraction) of shell pair          121
 max number of K2 of shell pair               1
 max number of CS2 of shell pair           1052
 max number of PS2 of shell pair           3094
 mem total for path MDJ                  223748
 -------------------------------------------------------
 Smallest overlap matrix eigenvalue = 5.87E-05

 Scale SEOQF with 1.000000e-01/1.000000e-01/1.000000e+00

 Standard Electronic Orientation quadrupole field applied
 Nucleus-field energy     =     0.0000000217 hartrees
 Guess from superposition of atomic densities
 Warning:  Energy on first SCF cycle will be non-variational
 An unrestricted Hartree-Fock SCF calculation will be
 performed using Pulay DIIS extrapolation
 SCF converges when DIIS error is below 1.0E-08
 using 16 threads for integral computing 
 ---------------------------------------
  Cycle       Energy         DIIS Error
 ---------------------------------------
    1   -1106.2529897831      3.04E-02
    2   -1100.5624545350      5.85E-03
    3   -1101.2925419125      1.52E-03
    4   -1101.3287764825      1.06E-03
    5   -1101.3550090340      1.87E-04
    6   -1101.3582606561      9.58E-05
    7   -1101.3605654882      4.86E-05
    8   -1101.3625672392      3.65E-05
    9   -1101.3644593183      2.80E-05
   10   -1101.3656280954      2.39E-05
   11   -1101.3668839428      1.57E-05
   12   -1101.3673584803      6.65E-06
   13   -1101.3674333943      2.12E-06
   14   -1101.3674359642      9.79E-07
   15   -1101.3674368608      7.25E-07
   16   -1101.3674371331      3.37E-07
   17   -1101.3674371821      1.02E-07
   18   -1101.3674371932      4.58E-08
   19   -1101.3674371999      1.84E-08
   20   -1101.3674372008      1.08E-08
   21   -1101.3674372017      8.90E-09 Convergence criterion met
 ---------------------------------------
 <S^2> = 1.0394
 SCF time:  CPU 965.72 s  wall 60.42 s
 SCF   energy in the final basis set = -1101.3674372017
 Total energy in the final basis set = -1101.3674372017
 
 Components of the MP2 correlation energy:
        aaaa  correlation energy =        -0.2339594738 au
        abab  correlation energy =        -1.2988813769 au
        bbbb  correlation energy =        -0.2103588465 au
        non-Brillouin singles    =        -0.0000000000 au

 Total  MP2   correlation energy =        -1.7431996972 au
        MP2         total energy =     -1103.1106368989 au

  Entering Z-vector solver.
   1         0           1      0.000529    0.000529
   2         0           1      0.000460    0.000460
   3         0           1      0.000285    0.000285
   4         0           1      0.000220    0.000220
   5         0           1      0.000096    0.000096
   6         0           1      0.000048    0.000048
   7         0           1      0.000027    0.000027
   8         0           1      0.000019    0.000019
   9         0           1      0.000006    0.000006
  10         0           1      0.000003    0.000003
  11         0           1      0.000001    0.000001
  12         1           0      0.000000    0.000000    Roots Converged
 Warning:  Cannot save MP2 spin density
 
 --------------------------------------------------------------
             Orbital Energies (a.u.) and Symmetries
 --------------------------------------------------------------
 
 Alpha MOs, Unrestricted
 -- Occupied --                  
-92.160 -92.160 -11.476 -11.474 -11.453 -11.453 -11.434 -11.434
  1 A     1 B     2 A     2 B     3 B     3 A     4 A     4 B                  
-11.405 -11.405  -9.162  -9.162  -6.843  -6.843  -6.842  -6.842
  5 B     5 A     6 A     6 B     7 A     7 B     8 A     8 B                  
 -6.840  -6.840  -1.395  -1.365  -1.232  -1.199  -1.178  -1.129
  9 B     9 A    10 A    10 B    11 A    11 B    12 A    12 B                  
 -1.001  -0.966  -0.922  -0.905  -0.891  -0.823  -0.752  -0.750
 13 A    13 B    14 A    14 B    15 A    15 B    16 A    16 B                  
 -0.749  -0.743  -0.734  -0.711  -0.696  -0.666  -0.640  -0.585
 17 A    18 A    17 B    18 B    19 A    19 B    20 A    21 A                  
 -0.543  -0.520  -0.474
 20 B    22 A    21 B                                                          
 -- Virtual --                   
 -0.130  -0.025  -0.001   0.007   0.019   0.030   0.037   0.049
 23 A    22 B    23 B    24 A    25 A    24 B    26 A    25 B                  
  0.052   0.053   0.063   0.070   0.122   0.136   0.161   0.184
 27 A    26 B    27 B    28 A    28 B    29 A    29 B    30 A                  
  0.205   0.207   0.218   0.220   0.222   0.246   0.258   0.273
 31 A    30 B    32 A    31 B    33 A    32 B    33 B    34 B                  
  0.288   0.291   0.295   0.302   0.314   0.315   0.340   0.360
 35 B    34 A    35 A    36 A    36 B    37 A    38 A    37 B                  
  0.369   0.370   0.373   0.381   0.393   0.402   0.403   0.416
 39 A    38 B    40 A    39 B    40 B    41 A    41 B    42 B                  
  0.417   0.435   0.436   0.441   0.453   0.462   0.466   0.470
 42 A    43 A    43 B    44 B    45 B    44 A    45 A    46 A                  
  0.471   0.485   0.493   0.494   0.501   0.517   0.542   0.548
 46 B    47 A    47 B    48 A    49 A    48 B    49 B    50 A                  
  0.607   0.614   0.626   0.646   0.662   0.671   0.694   0.702
 50 B    51 A    52 A    51 B    52 B    53 B    54 B    53 A                  
  0.706   0.711   0.722   0.727   0.753   0.765   0.778   0.787
 55 B    56 B    54 A    55 A    56 A    57 B    57 A    58 A                  
  0.828   0.828   0.845   0.846   0.872   0.877   0.905   0.920
 58 B    59 A    59 B    60 A    60 B    61 A    62 A    61 B                  
  0.927   0.943   0.945   0.947   0.974   0.991   0.995   1.008
 63 A    62 B    64 A    63 B    64 B    65 A    65 B    66 A                  
  1.009   1.012   1.026   1.063   1.089   1.089   1.104   1.115
 66 B    67 B    67 A    68 A    68 B    69 A    69 B    70 A                  
  1.125   1.136   1.169   1.187   1.199   1.231   1.260   1.270
 70 B    71 A    71 B    72 A    73 A    72 B    74 A    73 B                  
  1.271   1.273   1.309   1.316   1.346   1.348   1.370   1.376
 75 A    74 B    75 B    76 A    77 A    76 B    77 B    78 B                  
  1.389   1.390   1.397   1.398   1.432   1.442   1.457   1.493
 78 A    79 A    79 B    80 B    80 A    81 A    81 B    82 A                  
  1.494   1.528   1.529   1.554   1.588   1.608   1.661   1.694
 82 B    83 B    83 A    84 B    84 A    85 A    85 B    86 A                  
  1.696   1.701   1.703   1.715   1.715   1.720   1.760   1.767
 86 B    87 A    88 A    89 A    87 B    88 B    89 B    90 A                  
  1.775   1.787   1.878   1.903   1.923   1.924   1.928   2.012
 90 B    91 B    91 A    92 A    92 B    93 A    93 B    94 B                  
  2.014   2.028   2.028   2.054   2.087   2.088   2.089   2.120
 94 A    95 B    96 B    95 A    96 A    97 B    97 A    98 B                  
  2.134   2.137   2.146   2.166   2.233   2.253   2.270   2.306
 98 A    99 B    99 A   100 B   100 A   101 B   101 A   102 B                  
  2.309   2.309   2.343   2.359   2.361   2.386   2.406   2.406
102 A   103 A   104 A   103 B   104 B   105 B   105 A   106 A                  
  2.446   2.462   2.514   2.521   2.548   2.552   2.572   2.581
106 B   107 B   107 A   108 B   109 B   110 B   108 A   109 A                  
  2.585   2.603   2.613   2.636   2.643   2.656   2.688   2.726
110 A   111 B   112 B   111 A   112 A   113 A   113 B   114 A                  
  2.753   2.773   2.774   2.781   2.798   2.816   2.823   2.832
114 B   115 A   115 B   116 B   116 A   117 A   117 B   118 B                  
  2.853   2.878   2.912   2.949   2.976   2.979   3.011   3.029
118 A   119 B   119 A   120 A   121 A   120 B   122 A   121 B                  
  3.031   3.036   3.045   3.056   3.075   3.091   3.096   3.104
123 A   122 B   123 B   124 B   124 A   125 A   125 B   126 A                  
  3.111   3.137   3.143   3.144   3.158   3.161   3.188   3.217
127 A   126 B   127 B   128 B   128 A   129 A   130 A   131 A                  
  3.224   3.230   3.252   3.254   3.270   3.291   3.295   3.299
129 B   130 B   131 B   132 A   133 A   134 A   135 A   132 B                  
  3.313   3.313   3.333   3.337   3.347   3.360   3.361   3.374
136 A   133 B   134 B   135 B   137 A   136 B   138 A   137 B                  
  3.377   3.380   3.386   3.394   3.426   3.441   3.464   3.495
139 A   140 A   141 A   138 B   139 B   140 B   142 A   141 B                  
  3.520   3.526   3.561   3.566   3.575   3.597   3.598   3.617
142 B   143 A   143 B   144 B   144 A   145 B   145 A   146 A                  
  3.659   3.670   3.679   3.691   3.734   3.747   3.750   3.758
146 B   147 A   147 B   148 A   149 A   150 A   148 B   149 B                  
  3.790   3.830   3.835   3.836   3.858   3.873   3.879   3.896
151 A   152 A   150 B   151 B   152 B   153 A   153 B   154 A                  
  3.923   3.927   3.944   3.968   3.999   4.020   4.021   4.023
155 A   154 B   155 B   156 B   156 A   157 A   157 B   158 A                  
  4.023   4.052   4.063   4.082   4.121   4.122   4.137   4.151
159 A   158 B   160 A   161 A   159 B   160 B   162 A   161 B                  
  4.154   4.196   4.215   4.256   4.276   4.326   4.349   4.363
163 A   162 B   164 A   163 B   164 B   165 A   165 B   166 A                  
  4.399   4.425   4.440   4.483   4.503   4.513   4.518   4.550
166 B   167 A   167 B   168 A   168 B   169 A   170 A   169 B                  
  4.551   4.562   4.569   4.609   4.631   4.638   4.690   4.715
171 A   172 A   170 B   171 B   172 B   173 B   173 A   174 B                  
  4.728   4.774   4.851   4.860   4.885   4.904   4.914   4.921
174 A   175 B   176 B   175 A   176 A   177 B   177 A   178 A                  
  4.957   4.991   5.016   5.078   5.100   5.115   5.155   5.241
178 B   179 A   179 B   180 A   180 B   181 B   181 A   182 B                  
  5.251   5.258   5.260   5.352   5.381   5.439   5.463   5.517
182 A   183 B   183 A   184 A   184 B   185 A   186 A   185 B                  
  5.586   5.798   5.819   5.916   5.933   6.024   6.034   6.168
186 B   187 A   187 B   188 B   188 A   189 B   189 A   190 B                  
  6.208   6.387   6.404   6.589   6.613   9.277  10.894  11.788
190 A   191 A   191 B   192 B   192 A   193 A   193 B   194 A                  
 12.694  13.486  13.607  14.681  14.841
194 B   195 A   195 B   196 B   196 A                                          
 
 Beta MOs, Unrestricted
 -- Occupied --                  
-92.161 -92.161 -11.476 -11.474 -11.440 -11.440 -11.426 -11.426
  1 A     1 B     2 A     2 B     3 B     3 A     4 A     4 B                  
-11.412 -11.412  -9.164  -9.164  -6.845  -6.845  -6.844  -6.844
  5 B     5 A     6 A     6 B     7 A     7 B     8 B     8 A                  
 -6.843  -6.843  -1.384  -1.349  -1.223  -1.190  -1.174  -1.106
  9 A     9 B    10 A    10 B    11 A    11 B    12 A    12 B                  
 -0.993  -0.956  -0.910  -0.901  -0.890  -0.818  -0.748  -0.745
 13 A    13 B    14 A    14 B    15 A    15 B    16 B    16 A                  
 -0.739  -0.731  -0.721  -0.691  -0.665  -0.662  -0.641  -0.540
 17 A    17 B    18 A    19 A    18 B    19 B    20 A    20 B                  
 -0.533  -0.520
 21 A    22 A                                                                  
 -- Virtual --                   
 -0.178  -0.061   0.001   0.002   0.011   0.020   0.030   0.050
 21 B    23 A    22 B    23 B    24 A    25 A    24 B    25 B                  
  0.054   0.064   0.067   0.070   0.075   0.124   0.135   0.163
 26 A    26 B    27 A    28 A    27 B    28 B    29 A    29 B                  
  0.186   0.206   0.210   0.220   0.223   0.229   0.247   0.261
 30 A    31 A    30 B    32 A    31 B    33 A    32 B    33 B                  
  0.286   0.292   0.293   0.305   0.306   0.315   0.319   0.347
 34 B    35 B    34 A    35 A    36 A    36 B    37 A    38 A                  
  0.372   0.374   0.385   0.387   0.390   0.401   0.408   0.423
 37 B    39 A    40 A    38 B    39 B    40 B    41 A    41 B                  
  0.427   0.432   0.435   0.436   0.450   0.459   0.465   0.468
 42 A    42 B    43 A    43 B    44 B    45 B    44 A    45 A                  
  0.473   0.477   0.494   0.496   0.497   0.505   0.518   0.547
 46 B    46 A    47 A    47 B    48 A    49 A    48 B    49 B                  
  0.551   0.608   0.615   0.630   0.647   0.664   0.674   0.696
 50 A    50 B    51 A    52 A    51 B    52 B    53 B    54 B                  
  0.703   0.712   0.717   0.728   0.735   0.755   0.766   0.785
 53 A    55 B    56 B    54 A    55 A    56 A    57 B    57 A                  
  0.796   0.828   0.830   0.845   0.848   0.876   0.879   0.908
 58 A    58 B    59 A    59 B    60 A    60 B    61 A    62 A                  
  0.922   0.938   0.948   0.951   0.954   0.975   0.996   0.997
 61 B    63 A    64 A    62 B    63 B    64 B    65 B    65 A                  
  1.008   1.013   1.016   1.033   1.064   1.089   1.090   1.113
 66 A    66 B    67 B    67 A    68 A    68 B    69 A    69 B                  
  1.115   1.128   1.143   1.170   1.192   1.204   1.242   1.260
 70 A    70 B    71 A    71 B    72 A    73 A    72 B    74 A                  
  1.276   1.282   1.284   1.311   1.319   1.349   1.355   1.374
 73 B    75 A    74 B    75 B    76 A    76 B    77 A    77 B                  
  1.377   1.391   1.394   1.398   1.401   1.432   1.448   1.459
 78 B    78 A    79 A    79 B    80 B    80 A    81 A    81 B                  
  1.497   1.500   1.532   1.533   1.555   1.589   1.609   1.661
 82 A    82 B    83 B    83 A    84 B    84 A    85 A    85 B                  
  1.695   1.698   1.700   1.702   1.713   1.714   1.726   1.761
 86 A    86 B    87 A    88 A    89 A    87 B    88 B    89 B                  
  1.772   1.777   1.787   1.877   1.905   1.923   1.924   1.928
 90 A    90 B    91 B    91 A    92 A    92 B    93 A    93 B                  
  2.011   2.015   2.028   2.028   2.054   2.090   2.097   2.103
 94 B    94 A    95 B    96 B    95 A    96 A    97 A    97 B                  
  2.119   2.139   2.145   2.146   2.173   2.235   2.250   2.267
 98 B    99 B    98 A    99 A   100 B   100 A   101 B   101 A                  
  2.307   2.310   2.326   2.345   2.362   2.385   2.390   2.411
102 B   102 A   103 A   104 A   103 B   104 B   105 B   105 A                  
  2.412   2.450   2.465   2.516   2.524   2.556   2.556   2.572
106 A   106 B   107 B   107 A   108 B   109 B   110 B   108 A                  
  2.588   2.592   2.608   2.620   2.639   2.649   2.662   2.698
109 A   110 A   111 B   112 B   111 A   112 A   113 A   113 B                  
  2.737   2.758   2.775   2.784   2.786   2.801   2.824   2.827
114 A   114 B   115 A   115 B   116 B   116 A   117 A   117 B                  
  2.837   2.859   2.881   2.916   2.959   2.978   2.986   3.014
118 B   118 A   119 B   119 A   120 A   121 A   120 B   122 A                  
  3.031   3.038   3.038   3.052   3.065   3.084   3.094   3.107
121 B   122 B   123 A   123 B   124 B   124 A   125 A   125 B                  
  3.109   3.115   3.139   3.146   3.152   3.161   3.173   3.192
126 A   127 A   126 B   127 B   128 B   128 A   129 A   130 A                  
  3.218   3.224   3.236   3.254   3.261   3.271   3.299   3.299
131 A   129 B   130 B   131 B   132 A   133 A   134 A   135 A                  
  3.308   3.315   3.316   3.339   3.349   3.361   3.361   3.369
132 B   133 B   136 A   134 B   135 B   137 A   138 A   136 B                  
  3.378   3.379   3.389   3.390   3.395   3.429   3.445   3.467
137 B   139 A   140 A   141 A   138 B   139 B   140 B   142 A                  
  3.500   3.524   3.531   3.568   3.569   3.578   3.600   3.604
141 B   142 B   143 A   143 B   144 B   144 A   145 B   145 A                  
  3.620   3.661   3.672   3.684   3.693   3.743   3.750   3.751
146 A   146 B   147 A   147 B   148 A   149 A   148 B   150 A                  
  3.762   3.791   3.832   3.838   3.839   3.862   3.876   3.881
149 B   151 A   152 A   150 B   151 B   152 B   153 A   153 B                  
  3.900   3.924   3.930   3.946   3.972   4.000   4.022   4.022
154 A   155 A   154 B   155 B   156 B   156 A   157 A   157 B                  
  4.025   4.025   4.054   4.066   4.083   4.122   4.124   4.138
158 A   159 A   158 B   160 A   161 A   159 B   160 B   162 A                  
  4.153   4.156   4.197   4.216   4.259   4.277   4.326   4.351
161 B   163 A   162 B   164 A   163 B   164 B   165 A   165 B                  
  4.364   4.400   4.426   4.445   4.484   4.503   4.519   4.519
166 A   166 B   167 A   167 B   168 A   168 B   169 A   170 A                  
  4.553   4.554   4.563   4.570   4.610   4.635   4.638   4.691
169 B   171 A   172 A   170 B   171 B   172 B   173 B   173 A                  
  4.717   4.730   4.777   4.853   4.863   4.885   4.906   4.918
174 B   174 A   175 B   176 B   175 A   176 A   177 B   177 A                  
  4.922   4.958   4.992   5.017   5.085   5.101   5.121   5.156
178 A   178 B   179 A   179 B   180 A   180 B   181 B   181 A                  
  5.242   5.252   5.259   5.262   5.353   5.382   5.440   5.464
182 B   182 A   183 B   183 A   184 A   184 B   185 A   186 A                  
  5.519   5.586   5.799   5.820   5.917   5.934   6.025   6.036
185 B   186 B   187 A   187 B   188 B   188 A   189 B   189 A                  
  6.168   6.208   6.388   6.405   6.590   6.614   9.279  10.898
190 B   190 A   191 A   191 B   192 B   192 A   193 A   193 B                  
 11.792  12.700  13.488  13.606  14.683  14.843
194 A   194 B   195 A   195 B   196 B   196 A                                  
 --------------------------------------------------------------
 
          Ground-State Mulliken Net Atomic Charges

     Atom                 Charge (a.u.)    Spin (a.u.)
  --------------------------------------------------------
      1 S                     0.245815      -0.014019
      2 C                    -0.117552       0.013029
      3 C                    -0.158105       0.399749
      4 C                    -0.151669      -0.204123
      5 C                     0.016456       0.309219
      6 H                     0.198424       0.018361
      7 C                     0.016454       0.309220
      8 S                     0.245814      -0.014019
      9 C                    -0.151665      -0.204123
     10 C                    -0.117550       0.013029
     11 C                    -0.158107       0.399749
     12 H                     0.224680      -0.031712
     13 H                     0.241953       0.009496
     14 H                     0.224678      -0.031712
     15 H                     0.241953       0.009496
     16 H                     0.198423       0.018361
  --------------------------------------------------------
  Sum of atomic charges =     1.000000
  Sum of spin   charges =     1.000000

 -----------------------------------------------------------------
                    Cartesian Multipole Moments
 -----------------------------------------------------------------
    Charge (ESU x 10^10)
                 4.8032
    Dipole Moment (Debye)
         X       0.0000      Y      -0.0000      Z       0.0013
       Tot       0.0013
    Quadrupole Moments (Debye-Ang)
        XX     -21.9822     XY       2.1581     YY     -55.8167
        XZ       0.0000     YZ       0.0000     ZZ     -73.5594
    Octopole Moments (Debye-Ang^2)
       XXX       0.0000    XXY       0.0000    XYY      -0.0000
       YYY      -0.0000    XXZ       0.0281    XYZ       0.0033
       YYZ       0.0026    XZZ      -0.0000    YZZ      -0.0000
       ZZZ       0.0009
    Hexadecapole Moments (Debye-Ang^3)
      XXXX   -1267.3757   XXXY      -0.3009   XXYY    -337.2250
      XYYY      27.6695   YYYY    -493.4410   XXXZ       0.0000
      XXYZ       0.0000   XYYZ       0.0000   YYYZ      -0.0000
      XXZZ    -365.6038   XYZZ      -8.8509   YYZZ    -113.5137
      XZZZ       0.0000   YZZZ      -0.0000   ZZZZ     -85.9481
 -----------------------------------------------------------------
 DrvMan is completing analytic gradient of the MP2 energy
 MP2 relaxed dipole moment
            1
    1   0.0000000
    2  -0.0000000
    3   0.0005088
	Magnitude:	 0.001 au	 0.001 Debye
 MP2 energy read as -1103.110637
 Full Analytical Gradient of MP2 Energy (in au.)
             1             2             3             4             5
    1   -0.00001322    0.00000736    0.00000484   -0.00001531    0.00002920
    2   -0.00002609   -0.00000958    0.00000077   -0.00002510    0.00011162
    3   -0.00000978   -0.00001109   -0.00001536   -0.00001078    0.00001994
             6             7             8             9            10
    1   -0.00000644   -0.00002920    0.00001322    0.00001530   -0.00000736
    2   -0.00000204   -0.00011162    0.00002609    0.00002510    0.00000958
    3    0.00000153    0.00001994   -0.00000978   -0.00001077   -0.00001109
            11            12            13            14            15
    1   -0.00000485   -0.00000881    0.00000202    0.00000882   -0.00000202
    2   -0.00000077    0.00000360    0.00000514   -0.00000360   -0.00000514
    3   -0.00001536    0.00001126    0.00001428    0.00001125    0.00001428
            16
    1    0.00000645
    2    0.00000204
    3    0.00000153
 Gradient time:  CPU 1.30 s  wall 0.09 s
 Geometry Optimization Parameters
   NAtoms,    NIC,     NZ,  NCons,   NDum,   NFix, NCnnct, MaxDiis
       16     111       0       1       0       0       0       0


** CONSTRAINED OPTIMIZATION IN DELOCALIZED INTERNAL COORDINATES **
   Searching for a Minimum

   Optimization Cycle:   1

                       Coordinates (Angstroms)
     ATOM                X               Y               Z
      1  S         1.8287307318   -1.2016963931   -0.0000878865
      2  C         3.1046045579   -0.1418758370    0.0001616985
      3  C         2.7307987991    1.1928973919    0.0000895335
      4  C         1.3717214322    1.3369473830   -0.0000840515
      5  C         0.6872856145    0.1234688448   -0.0000840515
      6  H         0.8701743170    2.2891505592   -0.0000700665
      7  C        -0.6872856145   -0.1234688448   -0.0000840515
      8  S        -1.8287307318    1.2016963931   -0.0000878865
      9  C        -1.3717214322   -1.3369473830   -0.0000840515
     10  C        -3.1046045579    0.1418758370    0.0001616985
     11  C        -2.7307987991   -1.1928973919    0.0000895335
     12  H        -3.4413900558   -1.9974203891    0.0004099485
     13  H         4.1126244469   -0.5154444651    0.0005675285
     14  H         3.4413900558    1.9974203891    0.0004099485
     15  H        -4.1126244469    0.5154444651    0.0005675285
     16  H        -0.8701743170   -2.2891505592   -0.0000700665
   Point Group: c2    Number of degrees of freedom:    22


   Energy is  -1103.110636899

              Constraints and their Current Values
                                        Value     Constraint
   Dihedral:        4   5   7   9     -180.000      180.000

 Attempting to Generate Delocalized Internal Coordinates

 21 Hessian modes will be used to form the next step
  Hessian Eigenvalues:
     0.045000    0.045000    0.045000    0.045000    0.045000    0.045000
     0.160000    0.160000    0.160000    0.221335    0.237679    0.250000
     0.299411    0.364554    0.366034    0.368031    0.392996    0.445237
     0.461927    0.467905    0.501257

 Minimum Search - Taking Simple RFO Step
 Searching for Lamda that Minimizes Along All modes
 Value Taken    Lamda =   0.00000000
 Step Taken.  Stepsize is  0.000878

                             Maximum     Tolerance    Cnvgd?
         Gradient           0.000057      0.000300     YES
         Displacement       0.000461      0.001200     YES
         Energy change     *********      0.000001      NO

 Final energy is   -1103.11063689888     


 ******************************
 **  OPTIMIZATION CONVERGED  **
 ******************************

                       Coordinates (Angstroms)
     ATOM                X               Y               Z
      1  S         1.8287307318   -1.2016963931   -0.0000878865
      2  C         3.1046045579   -0.1418758370    0.0001616985
      3  C         2.7307987991    1.1928973919    0.0000895335
      4  C         1.3717214322    1.3369473830   -0.0000840515
      5  C         0.6872856145    0.1234688448   -0.0000840515
      6  H         0.8701743170    2.2891505592   -0.0000700665
      7  C        -0.6872856145   -0.1234688448   -0.0000840515
      8  S        -1.8287307318    1.2016963931   -0.0000878865
      9  C        -1.3717214322   -1.3369473830   -0.0000840515
     10  C        -3.1046045579    0.1418758370    0.0001616985
     11  C        -2.7307987991   -1.1928973919    0.0000895335
     12  H        -3.4413900558   -1.9974203891    0.0004099485
     13  H         4.1126244469   -0.5154444651    0.0005675285
     14  H         3.4413900558    1.9974203891    0.0004099485
     15  H        -4.1126244469    0.5154444651    0.0005675285
     16  H        -0.8701743170   -2.2891505592   -0.0000700665

Z-matrix Print:
$molecule
1 2
S 
C  1 1.658636
H  2 1.075015 1 119.950331
C  2 1.386128 1 114.070137 3 179.987123 0
H  4 1.073405 2 122.902590 1 -179.988475 0
C  4 1.366690 2 111.695252 1 -0.004130 0
H  6 1.076216 4 123.827047 2 -179.993912 0
C  6 1.393191 4 113.373964 2 -0.002830 0
C  8 1.396576 6 129.608599 4 -179.992072 0
C  9 1.393191 8 129.608599 6 180.000000 0
H  10 1.076216 9 122.798988 8 -0.000886 0
C  10 1.366690 9 113.373964 8 -179.992072 0
H  12 1.073405 10 125.402156 9 179.981044 0
C  12 1.386128 10 111.695252 9 -0.002830 0
H  14 1.075015 12 125.979530 10 179.982082 0
S  14 1.658636 12 114.070138 10 -0.004130 0
$end

 
 --------------------------------------------------------------
             Orbital Energies (a.u.) and Symmetries
 --------------------------------------------------------------
 
 Alpha MOs, Unrestricted
 -- Occupied --                  
-92.160 -92.160 -11.476 -11.474 -11.453 -11.453 -11.434 -11.434
  1 A     1 B     2 A     2 B     3 B     3 A     4 A     4 B                  
-11.405 -11.405  -9.162  -9.162  -6.843  -6.843  -6.842  -6.842
  5 B     5 A     6 A     6 B     7 A     7 B     8 A     8 B                  
 -6.840  -6.840  -1.395  -1.365  -1.232  -1.199  -1.178  -1.129
  9 B     9 A    10 A    10 B    11 A    11 B    12 A    12 B                  
 -1.001  -0.966  -0.922  -0.905  -0.891  -0.823  -0.752  -0.750
 13 A    13 B    14 A    14 B    15 A    15 B    16 A    16 B                  
 -0.749  -0.743  -0.734  -0.711  -0.696  -0.666  -0.640  -0.585
 17 A    18 A    17 B    18 B    19 A    19 B    20 A    21 A                  
 -0.543  -0.520  -0.474
 20 B    22 A    21 B                                                          
 -- Virtual --                   
 -0.130  -0.025  -0.001   0.007   0.019   0.030   0.037   0.049
 23 A    22 B    23 B    24 A    25 A    24 B    26 A    25 B                  
  0.052   0.053   0.063   0.070   0.122   0.136   0.161   0.184
 27 A    26 B    27 B    28 A    28 B    29 A    29 B    30 A                  
  0.205   0.207   0.218   0.220   0.222   0.246   0.258   0.273
 31 A    30 B    32 A    31 B    33 A    32 B    33 B    34 B                  
  0.288   0.291   0.295   0.302   0.314   0.315   0.340   0.360
 35 B    34 A    35 A    36 A    36 B    37 A    38 A    37 B                  
  0.369   0.370   0.373   0.381   0.393   0.402   0.403   0.416
 39 A    38 B    40 A    39 B    40 B    41 A    41 B    42 B                  
  0.417   0.435   0.436   0.441   0.453   0.462   0.466   0.470
 42 A    43 A    43 B    44 B    45 B    44 A    45 A    46 A                  
  0.471   0.485   0.493   0.494   0.501   0.517   0.542   0.548
 46 B    47 A    47 B    48 A    49 A    48 B    49 B    50 A                  
  0.607   0.614   0.626   0.646   0.662   0.671   0.694   0.702
 50 B    51 A    52 A    51 B    52 B    53 B    54 B    53 A                  
  0.706   0.711   0.722   0.727   0.753   0.765   0.778   0.787
 55 B    56 B    54 A    55 A    56 A    57 B    57 A    58 A                  
  0.828   0.828   0.845   0.846   0.872   0.877   0.905   0.920
 58 B    59 A    59 B    60 A    60 B    61 A    62 A    61 B                  
  0.927   0.943   0.945   0.947   0.974   0.991   0.995   1.008
 63 A    62 B    64 A    63 B    64 B    65 A    65 B    66 A                  
  1.009   1.012   1.026   1.063   1.089   1.089   1.104   1.115
 66 B    67 B    67 A    68 A    68 B    69 A    69 B    70 A                  
  1.125   1.136   1.169   1.187   1.199   1.231   1.260   1.270
 70 B    71 A    71 B    72 A    73 A    72 B    74 A    73 B                  
  1.271   1.273   1.309   1.316   1.346   1.348   1.370   1.376
 75 A    74 B    75 B    76 A    77 A    76 B    77 B    78 B                  
  1.389   1.390   1.397   1.398   1.432   1.442   1.457   1.493
 78 A    79 A    79 B    80 B    80 A    81 A    81 B    82 A                  
  1.494   1.528   1.529   1.554   1.588   1.608   1.661   1.694
 82 B    83 B    83 A    84 B    84 A    85 A    85 B    86 A                  
  1.696   1.701   1.703   1.715   1.715   1.720   1.760   1.767
 86 B    87 A    88 A    89 A    87 B    88 B    89 B    90 A                  
  1.775   1.787   1.878   1.903   1.923   1.924   1.928   2.012
 90 B    91 B    91 A    92 A    92 B    93 A    93 B    94 B                  
  2.014   2.028   2.028   2.054   2.087   2.088   2.089   2.120
 94 A    95 B    96 B    95 A    96 A    97 B    97 A    98 B                  
  2.134   2.137   2.146   2.166   2.233   2.253   2.270   2.306
 98 A    99 B    99 A   100 B   100 A   101 B   101 A   102 B                  
  2.309   2.309   2.343   2.359   2.361   2.386   2.406   2.406
102 A   103 A   104 A   103 B   104 B   105 B   105 A   106 A                  
  2.446   2.462   2.514   2.521   2.548   2.552   2.572   2.581
106 B   107 B   107 A   108 B   109 B   110 B   108 A   109 A                  
  2.585   2.603   2.613   2.636   2.643   2.656   2.688   2.726
110 A   111 B   112 B   111 A   112 A   113 A   113 B   114 A                  
  2.753   2.773   2.774   2.781   2.798   2.816   2.823   2.832
114 B   115 A   115 B   116 B   116 A   117 A   117 B   118 B                  
  2.853   2.878   2.912   2.949   2.976   2.979   3.011   3.029
118 A   119 B   119 A   120 A   121 A   120 B   122 A   121 B                  
  3.031   3.036   3.045   3.056   3.075   3.091   3.096   3.104
123 A   122 B   123 B   124 B   124 A   125 A   125 B   126 A                  
  3.111   3.137   3.143   3.144   3.158   3.161   3.188   3.217
127 A   126 B   127 B   128 B   128 A   129 A   130 A   131 A                  
  3.224   3.230   3.252   3.254   3.270   3.291   3.295   3.299
129 B   130 B   131 B   132 A   133 A   134 A   135 A   132 B                  
  3.313   3.313   3.333   3.337   3.347   3.360   3.361   3.374
136 A   133 B   134 B   135 B   137 A   136 B   138 A   137 B                  
  3.377   3.380   3.386   3.394   3.426   3.441   3.464   3.495
139 A   140 A   141 A   138 B   139 B   140 B   142 A   141 B                  
  3.520   3.526   3.561   3.566   3.575   3.597   3.598   3.617
142 B   143 A   143 B   144 B   144 A   145 B   145 A   146 A                  
  3.659   3.670   3.679   3.691   3.734   3.747   3.750   3.758
146 B   147 A   147 B   148 A   149 A   150 A   148 B   149 B                  
  3.790   3.830   3.835   3.836   3.858   3.873   3.879   3.896
151 A   152 A   150 B   151 B   152 B   153 A   153 B   154 A                  
  3.923   3.927   3.944   3.968   3.999   4.020   4.021   4.023
155 A   154 B   155 B   156 B   156 A   157 A   157 B   158 A                  
  4.023   4.052   4.063   4.082   4.121   4.122   4.137   4.151
159 A   158 B   160 A   161 A   159 B   160 B   162 A   161 B                  
  4.154   4.196   4.215   4.256   4.276   4.326   4.349   4.363
163 A   162 B   164 A   163 B   164 B   165 A   165 B   166 A                  
  4.399   4.425   4.440   4.483   4.503   4.513   4.518   4.550
166 B   167 A   167 B   168 A   168 B   169 A   170 A   169 B                  
  4.551   4.562   4.569   4.609   4.631   4.638   4.690   4.715
171 A   172 A   170 B   171 B   172 B   173 B   173 A   174 B                  
  4.728   4.774   4.851   4.860   4.885   4.904   4.914   4.921
174 A   175 B   176 B   175 A   176 A   177 B   177 A   178 A                  
  4.957   4.991   5.016   5.078   5.100   5.115   5.155   5.241
178 B   179 A   179 B   180 A   180 B   181 B   181 A   182 B                  
  5.251   5.258   5.260   5.352   5.381   5.439   5.463   5.517
182 A   183 B   183 A   184 A   184 B   185 A   186 A   185 B                  
  5.586   5.798   5.819   5.916   5.933   6.024   6.034   6.168
186 B   187 A   187 B   188 B   188 A   189 B   189 A   190 B                  
  6.208   6.387   6.404   6.589   6.613   9.277  10.894  11.788
190 A   191 A   191 B   192 B   192 A   193 A   193 B   194 A                  
 12.694  13.486  13.607  14.681  14.841
194 B   195 A   195 B   196 B   196 A                                          
 
 Beta MOs, Unrestricted
 -- Occupied --                  
-92.161 -92.161 -11.476 -11.474 -11.440 -11.440 -11.426 -11.426
  1 A     1 B     2 A     2 B     3 B     3 A     4 A     4 B                  
-11.412 -11.412  -9.164  -9.164  -6.845  -6.845  -6.844  -6.844
  5 B     5 A     6 A     6 B     7 A     7 B     8 B     8 A                  
 -6.843  -6.843  -1.384  -1.349  -1.223  -1.190  -1.174  -1.106
  9 A     9 B    10 A    10 B    11 A    11 B    12 A    12 B                  
 -0.993  -0.956  -0.910  -0.901  -0.890  -0.818  -0.748  -0.745
 13 A    13 B    14 A    14 B    15 A    15 B    16 B    16 A                  
 -0.739  -0.731  -0.721  -0.691  -0.665  -0.662  -0.641  -0.540
 17 A    17 B    18 A    19 A    18 B    19 B    20 A    20 B                  
 -0.533  -0.520
 21 A    22 A                                                                  
 -- Virtual --                   
 -0.178  -0.061   0.001   0.002   0.011   0.020   0.030   0.050
 21 B    23 A    22 B    23 B    24 A    25 A    24 B    25 B                  
  0.054   0.064   0.067   0.070   0.075   0.124   0.135   0.163
 26 A    26 B    27 A    28 A    27 B    28 B    29 A    29 B                  
  0.186   0.206   0.210   0.220   0.223   0.229   0.247   0.261
 30 A    31 A    30 B    32 A    31 B    33 A    32 B    33 B                  
  0.286   0.292   0.293   0.305   0.306   0.315   0.319   0.347
 34 B    35 B    34 A    35 A    36 A    36 B    37 A    38 A                  
  0.372   0.374   0.385   0.387   0.390   0.401   0.408   0.423
 37 B    39 A    40 A    38 B    39 B    40 B    41 A    41 B                  
  0.427   0.432   0.435   0.436   0.450   0.459   0.465   0.468
 42 A    42 B    43 A    43 B    44 B    45 B    44 A    45 A                  
  0.473   0.477   0.494   0.496   0.497   0.505   0.518   0.547
 46 B    46 A    47 A    47 B    48 A    49 A    48 B    49 B                  
  0.551   0.608   0.615   0.630   0.647   0.664   0.674   0.696
 50 A    50 B    51 A    52 A    51 B    52 B    53 B    54 B                  
  0.703   0.712   0.717   0.728   0.735   0.755   0.766   0.785
 53 A    55 B    56 B    54 A    55 A    56 A    57 B    57 A                  
  0.796   0.828   0.830   0.845   0.848   0.876   0.879   0.908
 58 A    58 B    59 A    59 B    60 A    60 B    61 A    62 A                  
  0.922   0.938   0.948   0.951   0.954   0.975   0.996   0.997
 61 B    63 A    64 A    62 B    63 B    64 B    65 B    65 A                  
  1.008   1.013   1.016   1.033   1.064   1.089   1.090   1.113
 66 A    66 B    67 B    67 A    68 A    68 B    69 A    69 B                  
  1.115   1.128   1.143   1.170   1.192   1.204   1.242   1.260
 70 A    70 B    71 A    71 B    72 A    73 A    72 B    74 A                  
  1.276   1.282   1.284   1.311   1.319   1.349   1.355   1.374
 73 B    75 A    74 B    75 B    76 A    76 B    77 A    77 B                  
  1.377   1.391   1.394   1.398   1.401   1.432   1.448   1.459
 78 B    78 A    79 A    79 B    80 B    80 A    81 A    81 B                  
  1.497   1.500   1.532   1.533   1.555   1.589   1.609   1.661
 82 A    82 B    83 B    83 A    84 B    84 A    85 A    85 B                  
  1.695   1.698   1.700   1.702   1.713   1.714   1.726   1.761
 86 A    86 B    87 A    88 A    89 A    87 B    88 B    89 B                  
  1.772   1.777   1.787   1.877   1.905   1.923   1.924   1.928
 90 A    90 B    91 B    91 A    92 A    92 B    93 A    93 B                  
  2.011   2.015   2.028   2.028   2.054   2.090   2.097   2.103
 94 B    94 A    95 B    96 B    95 A    96 A    97 A    97 B                  
  2.119   2.139   2.145   2.146   2.173   2.235   2.250   2.267
 98 B    99 B    98 A    99 A   100 B   100 A   101 B   101 A                  
  2.307   2.310   2.326   2.345   2.362   2.385   2.390   2.411
102 B   102 A   103 A   104 A   103 B   104 B   105 B   105 A                  
  2.412   2.450   2.465   2.516   2.524   2.556   2.556   2.572
106 A   106 B   107 B   107 A   108 B   109 B   110 B   108 A                  
  2.588   2.592   2.608   2.620   2.639   2.649   2.662   2.698
109 A   110 A   111 B   112 B   111 A   112 A   113 A   113 B                  
  2.737   2.758   2.775   2.784   2.786   2.801   2.824   2.827
114 A   114 B   115 A   115 B   116 B   116 A   117 A   117 B                  
  2.837   2.859   2.881   2.916   2.959   2.978   2.986   3.014
118 B   118 A   119 B   119 A   120 A   121 A   120 B   122 A                  
  3.031   3.038   3.038   3.052   3.065   3.084   3.094   3.107
121 B   122 B   123 A   123 B   124 B   124 A   125 A   125 B                  
  3.109   3.115   3.139   3.146   3.152   3.161   3.173   3.192
126 A   127 A   126 B   127 B   128 B   128 A   129 A   130 A                  
  3.218   3.224   3.236   3.254   3.261   3.271   3.299   3.299
131 A   129 B   130 B   131 B   132 A   133 A   134 A   135 A                  
  3.308   3.315   3.316   3.339   3.349   3.361   3.361   3.369
132 B   133 B   136 A   134 B   135 B   137 A   138 A   136 B                  
  3.378   3.379   3.389   3.390   3.395   3.429   3.445   3.467
137 B   139 A   140 A   141 A   138 B   139 B   140 B   142 A                  
  3.500   3.524   3.531   3.568   3.569   3.578   3.600   3.604
141 B   142 B   143 A   143 B   144 B   144 A   145 B   145 A                  
  3.620   3.661   3.672   3.684   3.693   3.743   3.750   3.751
146 A   146 B   147 A   147 B   148 A   149 A   148 B   150 A                  
  3.762   3.791   3.832   3.838   3.839   3.862   3.876   3.881
149 B   151 A   152 A   150 B   151 B   152 B   153 A   153 B                  
  3.900   3.924   3.930   3.946   3.972   4.000   4.022   4.022
154 A   155 A   154 B   155 B   156 B   156 A   157 A   157 B                  
  4.025   4.025   4.054   4.066   4.083   4.122   4.124   4.138
158 A   159 A   158 B   160 A   161 A   159 B   160 B   162 A                  
  4.153   4.156   4.197   4.216   4.259   4.277   4.326   4.351
161 B   163 A   162 B   164 A   163 B   164 B   165 A   165 B                  
  4.364   4.400   4.426   4.445   4.484   4.503   4.519   4.519
166 A   166 B   167 A   167 B   168 A   168 B   169 A   170 A                  
  4.553   4.554   4.563   4.570   4.610   4.635   4.638   4.691
169 B   171 A   172 A   170 B   171 B   172 B   173 B   173 A                  
  4.717   4.730   4.777   4.853   4.863   4.885   4.906   4.918
174 B   174 A   175 B   176 B   175 A   176 A   177 B   177 A                  
  4.922   4.958   4.992   5.017   5.085   5.101   5.121   5.156
178 A   178 B   179 A   179 B   180 A   180 B   181 B   181 A                  
  5.242   5.252   5.259   5.262   5.353   5.382   5.440   5.464
182 B   182 A   183 B   183 A   184 A   184 B   185 A   186 A                  
  5.519   5.586   5.799   5.820   5.917   5.934   6.025   6.036
185 B   186 B   187 A   187 B   188 B   188 A   189 B   189 A                  
  6.168   6.208   6.388   6.405   6.590   6.614   9.279  10.898
190 B   190 A   191 A   191 B   192 B   192 A   193 A   193 B                  
 11.792  12.700  13.488  13.606  14.683  14.843
194 A   194 B   195 A   195 B   196 B   196 A                                  
 --------------------------------------------------------------
 
          Ground-State Mulliken Net Atomic Charges

     Atom                 Charge (a.u.)    Spin (a.u.)
  --------------------------------------------------------
      1 S                     0.245815      -0.014019
      2 C                    -0.117552       0.013029
      3 C                    -0.158105       0.399749
      4 C                    -0.151669      -0.204123
      5 C                     0.016456       0.309219
      6 H                     0.198424       0.018361
      7 C                     0.016454       0.309220
      8 S                     0.245814      -0.014019
      9 C                    -0.151665      -0.204123
     10 C                    -0.117550       0.013029
     11 C                    -0.158107       0.399749
     12 H                     0.224680      -0.031712
     13 H                     0.241953       0.009496
     14 H                     0.224678      -0.031712
     15 H                     0.241953       0.009496
     16 H                     0.198423       0.018361
  --------------------------------------------------------
  Sum of atomic charges =     1.000000
  Sum of spin   charges =     1.000000

 -----------------------------------------------------------------
                    Cartesian Multipole Moments
 -----------------------------------------------------------------
    Charge (ESU x 10^10)
                 4.8032
    Dipole Moment (Debye)
         X       0.0000      Y      -0.0000      Z       0.0013
       Tot       0.0013
    Quadrupole Moments (Debye-Ang)
        XX     -21.9822     XY       2.1581     YY     -55.8167
        XZ       0.0000     YZ       0.0000     ZZ     -73.5594
    Octopole Moments (Debye-Ang^2)
       XXX       0.0000    XXY       0.0000    XYY      -0.0000
       YYY      -0.0000    XXZ       0.0281    XYZ       0.0033
       YYZ       0.0026    XZZ      -0.0000    YZZ      -0.0000
       ZZZ       0.0009
    Hexadecapole Moments (Debye-Ang^3)
      XXXX   -1267.3757   XXXY      -0.3009   XXYY    -337.2250
      XYYY      27.6695   YYYY    -493.4410   XXXZ       0.0000
      XXYZ       0.0000   XYYZ       0.0000   YYYZ      -0.0000
      XXZZ    -365.6038   XYZZ      -8.8509   YYZZ    -113.5137
      XZZZ       0.0000   YZZZ      -0.0000   ZZZZ     -85.9481
 -----------------------------------------------------------------
Archival summary:
1\1\nid01566\OPT\MP2\BasisUnspecified\286(1+,2)\TueMar705:58:552017TueMar705:58:552017\0\\#,OPT,MP2,BasisUnspecified,\\1,2\S\C,1,1.65864\H,2,1.07502,1,119.95\C,2,1.38613,1,114.07,3,179.987,0\H,4,1.0734,2,122.903,1,-179.988,0\C,4,1.36669,2,111.695,1,-0.00412993,0\H,6,1.07622,4,123.827,2,-179.994,0\C,6,1.39319,4,113.374,2,-0.00283018,0\C,8,1.39658,6,129.609,4,-179.992,0\C,9,1.39319,8,129.609,6,180,0\H,10,1.07622,9,122.799,8,-0.00088563,0\C,10,1.36669,9,113.374,8,-179.992,0\H,12,1.0734,10,125.402,9,179.981,0\C,12,1.38613,10,111.695,9,-0.00283001,0\H,14,1.07502,12,125.98,10,179.982,0\S,14,1.65864,12,114.07,10,-0.00413,0\\HF=-1101.36744\MP2=-1103.11064\\@

 Total job time:  3150.23s(wall), 15278.11s(cpu) 
 Tue Mar  7 05:58:55 2017

        *************************************************************
        *                                                           *
        *  Thank you very much for using Q-Chem.  Have a nice day.  *
        *                                                           *
        *************************************************************


0 sent ACK to 0 
now end server 0 ... 
