srun -N 1 --ntasks-per-node 1 --cpus-per-task 64 --cpu_bind=cores --nodelist nid01579 /global/project/projectdirs/jcesr/qchem/qc44/cnl_qc441/dist/exe/qcprog.cori.haswell.exe .pt_mp2_hole_-150.0.in.60092.qcin.1 /dev/shm/eg_qchem/qchem60092/
Process 0 of 1 is on nid01579 - thread support 0
initial socket setup ...start
initial socket setup ...done 
now start server 0 ... 
nid01579 10.128.6
Q-Chem Developer Version! Running on 10.128.6.*
                  Welcome to Q-Chem
     A Quantum Leap Into The Future Of Chemistry


 Q-Chem 4.4, Q-Chem, Inc., Pleasanton, CA (2016)

 Y. Shao,  Z. Gan,  E. Epifanovsky,  A. T. B. Gilbert,  M. Wormit,  
 J. Kussmann,  A. W. Lange,  A. Behn,  J. Deng,  X. Feng,  D. Ghosh,  
 M. Goldey,  P. R. Horn,  L. D. Jacobson,  I. Kaliman,  F.Rob,  
 R. Z. Khaliullin,  T. Kus,  A. Landau,  J. Liu,  E. I. Proynov,  Y. M. Rhee,  
 R. M. Richard,  M. A. Rohrdanz,  R. P. Steele,  E. J. Sundstrom,  
 H. L. Woodcock III,  P. M. Zimmerman,  D. Zuev,  B. Albrecht,  E. Alguire,  
 B. Austin,  S. A. Baeppler,  G. J. O. Beran,  Y. A. Bernard,  E. Berquist,  
 K. Brandhorst,  K. B. Bravaya,  S. T. Brown,  D. Casanova,  C.-M. Chang,  
 Y. Chen,  S. H. Chien,  K. D. Closser,  M. P. Coons,  D. L. Crittenden,  
 S. Dasgupta,  M. Diedenhofen,  R. A. DiStasio Jr.,  H. Do,  A. D. Dutoi,  
 R. G. Edgar,  P.-T. Fang,  S. Fatehi,  Q. Feng,  L. Fusti-Molnar,  
 A. Ghysels,  A. Golubeva-Zadorozhnaya,  J. Gomes,  A. Gunina,  
 M. W. D. Hanson-Heine,  P. H. P. Harbach,  A. W. Hauser,  E. G. Hohenstein,  
 Z. C. Holden,  K. Hui,  T.-C. Jagau,  H. Ji,  B. Kaduk,  K. Khistyaev,  
 Jaehoon Kim,  Jihan Kim,  R. A. King,  P. Klunzinger,  D. Kosenkov,  
 T. Kowalczyk,  C. M. Krauter,  A. Kunitsa,  K. U. Lao,  A. Laurent,  
 K. V. Lawler,  D. Lefrancois,  S. Lehtola,  S. V. Levchenko,  C. Y. Lin,  
 Y.-S. Lin,  F. Liu,  E. Livshits,  R. C. Lochan,  A. Luenser,  P. Manohar,  
 S. F. Manzer,  S.-P. Mao,  Y. Mao,  N. Mardirossian,  A. V. Marenich,  
 L. A. Martinez-Martinez,  S. A. Maurer,  N. J. Mayhall,  J.-M. Mewes,  
 A. F. Morrison,  K. Nanda,  C. M. Oana,  R. Olivares-Amaya,  D. P. O'Neill,  
 J. A. Parkhill,  T. M. Perrine,  R. Peverati,  P. A. Pieniazek,  F. Plasser,  
 A. Prociuk,  D. R. Rehn,  E. Rosta,  N. J. Russ,  N. Sergueev,  
 S. M. Sharada,  S. Sharma,  D. W. Small,  A. Sodt,  T. Stauch,  T. Stein,  
 D. Stuck,  Y.-C. Su,  A. J. W. Thom,  T. Tsuchimochi,  L. Vogt,  O. Vydrov,  
 T. Wang,  M. A. Watson,  J. Wenzel,  A. White,  C. F. Williams,  
 V. Vanovschi,  S. Yeganeh,  S. R. Yost,  Z.-Q. You,  I. Y. Zhang,  X. Zhang,  
 Y. Zhao,  B. R. Brooks,  G. K. L. Chan,  D. M. Chipman,  C. J. Cramer,  
 W. A. Goddard III,  M. S. Gordon,  W. J. Hehre,  A. Klamt,  
 H. F. Schaefer III,  M. W. Schmidt,  C. D. Sherrill,  D. G. Truhlar,  
 A. Warshel,  X. Xu,  A. Aspuru-Guzik,  R. Baer,  A. T. Bell,  N. A. Besley,  
 J.-D. Chai,  A. Dreuw,  B. D. Dunietz,  T. R. Furlani,  S. R. Gwaltney,  
 C.-P. Hsu,  Y. Jung,  J. Kong,  D. S. Lambrecht,  W. Liang,  C. Ochsenfeld,  
 V. A. Rassolov,  L. V. Slipchenko,  J. E. Subotnik,  T. Van Voorhis,  
 J. M. Herbert,  A. I. Krylov,  P. M. W. Gill,  M. Head-Gordon

 Contributors to earlier versions of Q-Chem not listed above: 
 R. D. Adamson,  J. Baker,  E. F. C. Byrd,  A. K. Chakraborty,  C.-L. Cheng,  
 H. Dachsel,  R. J. Doerksen,  G. Hawkins,  A. Heyden,  S. Hirata,  
 G. Kedziora,  F. J. Keil,  C. Kelley,  P. P. Korambath,  W. Kurlancheek,  
 A. M. Lee,  M. S. Lee,  D. Liotard,  I. Lotan,  P. E. Maslen,  N. Nair,  
 D. Neuhauser,  R. Olson,  B. Peters,  J. Ritchie,  N. E. Schultz,  
 N. Shenvi,  A. C. Simmonett,  K. S. Thanthiriwatte,  Q. Wu,  W. Zhang

 Please cite Q-Chem as follows:
 Y. Shao et al., Mol. Phys. 113, 184-215 (2015)
 DOI: 10.1080/00268976.2014.952696

 Q-Chem 4.4.1 for Intel X86 EM64T Linux

 Parts of Q-Chem use Armadillo 5.200.1 (Boston Tea Smuggler).
 http://arma.sourceforge.net/

 Q-Chem begins on Tue Mar  7 05:06:25 2017  

Host: nid01545
0

     Scratch files written to /dev/shm/eg_qchem/qchem60092//
 Parallel job on  1  processors

Checking the input file for inconsistencies... 	...done.

--------------------------------------------------------------
User input:
--------------------------------------------------------------
$molecule
 1  2
 S           1.81042700       -1.22909900       -0.13996800
 C           3.10211600       -0.18861200       -0.13982200
 C           2.74845300        1.15163900       -0.14006900
 C           1.39169900        1.31613900       -0.14029100
 C           0.68906700        0.11310500       -0.14015500
 H           0.90454800        2.27578700       -0.14040700
 C          -0.68906700       -0.11310500       -0.14015500
 S          -1.77772785        1.02988673       -0.89337961
 C          -1.41500201       -1.17417061        0.39663238
 C          -3.08718619        0.09765547       -0.48431064
 C          -2.76347466       -1.06012287        0.20569695
 H          -3.50059039       -1.76557846        0.53914878
 H           4.10439600       -0.57731800       -0.13934700
 H           3.47107900        1.94537000       -0.13983300
 H          -4.07764680        0.41435444       -0.75697770
 H          -0.95012482       -1.99812039        0.90969802
$end


$rem
         jobtype = opt
        exchange = hf
           basis = cc-pvtz
  max_scf_cycles = 100
      mem_static = 6200
       mem_total = 62000
          method = mp2
$end


$opt
CONSTRAINT
tors 4 5 7 9 -150.0
ENDCONSTRAINT
$end

--------------------------------------------------------------
 Atom  16: ( -0.9045636212, -2.2099702960,  0.6360619835)
         ->( -0.9045636191, -2.2099702951,  0.6360619772)
 Atom  14: (  3.4685873876,  1.9178070070,  0.4445421995)
         ->(  3.4685873923,  1.9178070100,  0.4445421998)
 Atom  15: ( -4.1003628908,  0.5144907671, -0.2261534418)
         ->( -4.1003628870,  0.5144907714, -0.2261534388)
 ----------------------------------------------------------------
             Standard Nuclear Orientation (Angstroms)
    I     Atom           X                Y                Z
 ----------------------------------------------------------------
    1      S       1.8082663691    -1.1689944156    -0.2970841269
    2      C       3.0991509005    -0.1492798331    -0.0852516749
    3      C       2.7463234659     1.1427621035     0.2718068034
    4      C       1.3908944905     1.2873567176     0.3705306902
    5      C       0.6884647069     0.1167151152     0.0927300621
    6      H       0.9045636191     2.2099702951     0.6360619772
    7      C      -0.6884647080    -0.1167151152     0.0927300619
    8      S      -1.8082663679     1.1689944151    -0.2970841253
    9      C      -1.3908944917    -1.2873567203     0.3705306916
   10      C      -3.0991509001     0.1492798337    -0.0852516786
   11      C      -2.7463234654    -1.1427620986     0.2718068038
   12      H      -3.4685873923    -1.9178070100     0.4445421998
   13      H       4.1003628870    -0.5144907714    -0.2261534388
   14      H       3.4685873923     1.9178070100     0.4445421998
   15      H      -4.1003628870     0.5144907714    -0.2261534388
   16      H      -0.9045636191    -2.2099702951     0.6360619772
 ----------------------------------------------------------------
 Molecular Point Group                 C2    NOp =  2
 Largest Abelian Subgroup              C2    NOp =  2
 Nuclear Repulsion Energy =   639.4779360584 hartrees
 There are       43 alpha and       42 beta electrons
 Requested basis set is cc-pVTZ
 There are 140 shells and 392 basis functions

 Total QAlloc Memory Limit  62000 MB
 Mega-Array Size      6061 MB
 MEM_STATIC part      6200 MB
 A cutoff of  1.0D-11 yielded   8069 shell pairs
 There are     62717 function pairs (     81726 Cartesian)
 
 -------------------------------------------------------
 OpenMP Integral Computing Module                       
 Release: version 1.0, May 2013, Q-Chem Inc. Pittsburgh 
 -------------------------------------------------------
 Integral Job Info:
 Integral job number is                      11
 Integral operator is                         1
 short-range coefficients                     0
 long-range coefficients              100000000
 Omega coefficients                           0
 if combine SR and LR in K                    0
 Integral screening is                        0
 Integral computing path is                   2
 max size of driver memory is            800000
 size of driver memory is                776718
 size of scratch memory is             26248924
 max col of scratch BK array              10000
 max len of scratch array in speh3          662
 max len of scratch index in speh4           32
 max int batch size is                      520
 min int batch size is                       52
 fixed nKL is                                52
 max L of basis functions is                  3
 order of int derivative is                   0
 number of shells is                        140
 number of basis is                         448
 number of cartesian basis is               448
 number of contracted shell pairs          8069
 number of primitive shell pairs          28709
 maxK2 (contraction) of shell pair          121
 max number of K2 of shell pair               1
 max number of CS2 of shell pair           1052
 max number of PS2 of shell pair           3094
 mem total for path MDJ                  223748
 -------------------------------------------------------
 Smallest overlap matrix eigenvalue = 7.06E-05

 Scale SEOQF with 1.000000e-01/1.000000e-01/1.000000e+00

 Standard Electronic Orientation quadrupole field applied
 Nucleus-field energy     =     0.0000000138 hartrees
 Guess from superposition of atomic densities
 Warning:  Energy on first SCF cycle will be non-variational
 An unrestricted Hartree-Fock SCF calculation will be
 performed using Pulay DIIS extrapolation
 SCF converges when DIIS error is below 1.0E-08
 using 16 threads for integral computing 
 ---------------------------------------
  Cycle       Energy         DIIS Error
 ---------------------------------------
    1   -1106.2102713339      3.04E-02
    2   -1087.1362129121      2.11E-02
    3   -1095.1431724673      1.11E-02
    4   -1100.8778846865      4.50E-03
    5   -1101.2544199643      2.06E-03
    6   -1101.3487925806      3.18E-04
    7   -1101.3545739387      1.18E-04
    8   -1101.3569655521      4.00E-05
    9   -1101.3582001065      2.54E-05
   10   -1101.3591211045      2.23E-05
   11   -1101.3600814759      1.80E-05
   12   -1101.3607406139      1.40E-05
   13   -1101.3609690086      8.36E-06
   14   -1101.3610619020      4.68E-06
   15   -1101.3611161052      2.26E-06
   16   -1101.3611251457      1.14E-06
   17   -1101.3611281047      4.99E-07
   18   -1101.3611283839      2.13E-07
   19   -1101.3611284337      1.16E-07
   20   -1101.3611284468      5.02E-08
   21   -1101.3611284492      2.74E-08
   22   -1101.3611284495      8.50E-09 Convergence criterion met
 ---------------------------------------
 <S^2> = 1.0366
 SCF time:  CPU 1031.20 s  wall 64.52 s
 SCF   energy in the final basis set = -1101.3611284495
 Total energy in the final basis set = -1101.3611284495
 
 Components of the MP2 correlation energy:
        aaaa  correlation energy =        -0.2339509733 au
        abab  correlation energy =        -1.2998340042 au
        bbbb  correlation energy =        -0.2108602699 au
        non-Brillouin singles    =        -0.0000000000 au

 Total  MP2   correlation energy =        -1.7446452474 au
        MP2         total energy =     -1103.1057736969 au

  Entering Z-vector solver.
   1         0           1      0.000534    0.000534
   2         0           1      0.000471    0.000471
   3         0           1      0.000304    0.000304
   4         0           1      0.000237    0.000237
   5         0           1      0.000100    0.000100
   6         0           1      0.000049    0.000049
   7         0           1      0.000028    0.000028
   8         0           1      0.000019    0.000019
   9         0           1      0.000007    0.000007
  10         0           1      0.000003    0.000003
  11         0           1      0.000001    0.000001
  12         1           0      0.000000    0.000000    Roots Converged
 Warning:  Cannot save MP2 spin density
 
 --------------------------------------------------------------
             Orbital Energies (a.u.) and Symmetries
 --------------------------------------------------------------
 
 Alpha MOs, Unrestricted
 -- Occupied --                  
-92.160 -92.160 -11.475 -11.474 -11.452 -11.452 -11.433 -11.433
  1 A     1 B     2 A     2 B     3 B     3 A     4 B     4 A                  
-11.404 -11.404  -9.163  -9.163  -6.843  -6.843  -6.843  -6.843
  5 B     5 A     6 A     6 B     7 B     7 A     8 A     8 B                  
 -6.841  -6.841  -1.395  -1.364  -1.232  -1.197  -1.179  -1.129
  9 B     9 A    10 A    10 B    11 A    11 B    12 A    12 B                  
 -1.001  -0.963  -0.925  -0.905  -0.889  -0.823  -0.752  -0.750
 13 A    13 B    14 A    14 B    15 A    15 B    16 A    16 B                  
 -0.748  -0.740  -0.734  -0.710  -0.696  -0.664  -0.644  -0.577
 17 A    18 A    17 B    18 B    19 A    19 B    20 A    21 A                  
 -0.540  -0.521  -0.479
 20 B    22 A    21 B                                                          
 -- Virtual --                   
 -0.122  -0.033  -0.002   0.003   0.020   0.026   0.036   0.047
 23 A    22 B    23 B    24 A    25 A    24 B    26 A    25 B                  
  0.051   0.054   0.072   0.072   0.112   0.126   0.162   0.180
 26 B    27 A    27 B    28 A    28 B    29 A    29 B    30 A                  
  0.194   0.201   0.209   0.215   0.238   0.241   0.262   0.276
 31 A    30 B    32 A    31 B    33 A    32 B    33 B    34 A                  
  0.280   0.286   0.291   0.300   0.318   0.319   0.345   0.355
 34 B    35 A    35 B    36 A    36 B    37 A    38 A    37 B                  
  0.365   0.369   0.374   0.375   0.382   0.386   0.395   0.404
 39 A    38 B    40 A    39 B    40 B    41 A    41 B    42 B                  
  0.416   0.433   0.438   0.446   0.454   0.460   0.462   0.468
 42 A    43 B    43 A    44 A    44 B    45 B    45 A    46 B                  
  0.469   0.492   0.496   0.501   0.508   0.512   0.533   0.543
 46 A    47 A    48 A    47 B    49 A    48 B    49 B    50 A                  
  0.607   0.615   0.620   0.628   0.654   0.669   0.671   0.673
 50 B    51 A    52 A    51 B    52 B    53 B    53 A    54 B                  
  0.694   0.703   0.731   0.738   0.744   0.751   0.802   0.808
 55 B    54 A    56 B    55 A    56 A    57 A    57 B    58 A                  
  0.809   0.813   0.836   0.857   0.860   0.866   0.897   0.915
 59 A    58 B    60 A    61 A    59 B    60 B    62 A    61 B                  
  0.926   0.932   0.945   0.948   0.981   0.988   0.998   1.002
 62 B    63 A    64 A    63 B    64 B    65 A    65 B    66 A                  
  1.010   1.034   1.037   1.059   1.081   1.090   1.093   1.117
 66 B    67 B    67 A    68 A    68 B    69 A    69 B    70 A                  
  1.130   1.146   1.171   1.177   1.227   1.233   1.258   1.261
 70 B    71 A    72 A    71 B    72 B    73 A    73 B    74 A                  
  1.273   1.283   1.312   1.323   1.329   1.342   1.357   1.367
 75 A    74 B    76 A    75 B    76 B    77 A    77 B    78 B                  
  1.381   1.383   1.396   1.407   1.430   1.439   1.453   1.475
 78 A    79 A    79 B    80 B    80 A    81 A    81 B    82 A                  
  1.504   1.524   1.545   1.558   1.574   1.600   1.618   1.674
 82 B    83 B    83 A    84 B    84 A    85 A    85 B    86 A                  
  1.680   1.693   1.701   1.723   1.724   1.750   1.763   1.764
 86 B    87 A    87 B    88 B    88 A    89 B    89 A    90 A                  
  1.773   1.810   1.868   1.889   1.895   1.927   1.952   1.999
 90 B    91 B    91 A    92 B    92 A    93 A    93 B    94 A                  
  2.013   2.024   2.029   2.036   2.072   2.091   2.093   2.111
 94 B    95 A    95 B    96 B    96 A    97 A    97 B    98 A                  
  2.120   2.127   2.140   2.198   2.230   2.262   2.270   2.281
 98 B    99 B    99 A   100 B   100 A   101 B   101 A   102 A                  
  2.310   2.319   2.337   2.347   2.351   2.386   2.400   2.416
102 B   103 A   104 A   103 B   104 B   105 B   105 A   106 A                  
  2.442   2.484   2.521   2.521   2.541   2.554   2.563   2.576
106 B   107 B   108 B   107 A   109 B   108 A   109 A   110 B                  
  2.586   2.594   2.608   2.612   2.630   2.655   2.697   2.720
110 A   111 B   111 A   112 B   112 A   113 A   113 B   114 A                  
  2.737   2.758   2.768   2.785   2.809   2.824   2.829   2.842
114 B   115 B   115 A   116 A   116 B   117 B   117 A   118 B                  
  2.850   2.878   2.912   2.961   2.966   2.981   2.997   3.013
118 A   119 B   119 A   120 A   121 A   120 B   122 A   121 B                  
  3.036   3.038   3.055   3.062   3.074   3.092   3.095   3.104
123 A   122 B   123 B   124 A   124 B   125 A   126 A   125 B                  
  3.107   3.120   3.146   3.152   3.156   3.165   3.210   3.214
127 A   126 B   127 B   128 A   129 A   128 B   130 A   129 B                  
  3.214   3.245   3.253   3.260   3.261   3.279   3.288   3.309
131 A   130 B   131 B   132 A   132 B   133 A   134 A   135 A                  
  3.311   3.327   3.332   3.340   3.348   3.354   3.357   3.368
133 B   134 B   136 A   135 B   137 A   136 B   138 A   137 B                  
  3.376   3.378   3.390   3.398   3.421   3.452   3.462   3.499
138 B   139 A   140 A   141 A   139 B   142 A   140 B   141 B                  
  3.523   3.530   3.535   3.569   3.576   3.593   3.613   3.619
142 B   143 A   143 B   144 A   145 A   144 B   145 B   146 A                  
  3.649   3.666   3.683   3.700   3.727   3.748   3.760   3.770
146 B   147 A   147 B   148 A   149 A   148 B   149 B   150 A                  
  3.792   3.828   3.829   3.833   3.844   3.868   3.876   3.885
151 A   150 B   151 B   152 A   152 B   153 A   153 B   154 A                  
  3.920   3.942   3.962   3.971   3.982   4.011   4.023   4.025
154 B   155 A   155 B   156 B   156 A   157 A   157 B   158 A                  
  4.043   4.046   4.065   4.100   4.115   4.117   4.138   4.143
158 B   159 A   160 A   161 A   159 B   160 B   162 A   161 B                  
  4.172   4.190   4.210   4.256   4.276   4.314   4.363   4.369
163 A   162 B   164 A   163 B   164 B   165 A   165 B   166 A                  
  4.385   4.405   4.445   4.472   4.480   4.496   4.511   4.540
166 B   167 A   167 B   168 A   168 B   169 A   170 A   169 B                  
  4.561   4.566   4.570   4.599   4.617   4.672   4.673   4.719
170 B   171 A   171 B   172 A   172 B   173 A   173 B   174 B                  
  4.728   4.792   4.832   4.851   4.861   4.887   4.897   4.914
174 A   175 B   175 A   176 B   176 A   177 B   177 A   178 A                  
  4.918   4.969   5.027   5.080   5.092   5.119   5.152   5.237
178 B   179 A   179 B   180 A   180 B   181 B   181 A   182 A                  
  5.240   5.261   5.262   5.334   5.383   5.428   5.469   5.516
182 B   183 B   183 A   184 A   184 B   185 A   186 A   185 B                  
  5.589   5.791   5.821   5.915   5.929   6.013   6.028   6.107
186 B   187 A   187 B   188 B   188 A   189 A   189 B   190 B                  
  6.152   6.375   6.404   6.590   6.600   9.302  10.869  11.752
190 A   191 A   191 B   192 B   192 A   193 A   193 B   194 A                  
 12.635  13.316  13.550  14.681  14.765
194 B   195 A   195 B   196 B   196 A                                          
 
 Beta MOs, Unrestricted
 -- Occupied --                  
-92.161 -92.161 -11.475 -11.474 -11.440 -11.440 -11.426 -11.426
  1 A     1 B     2 A     2 B     3 B     3 A     4 A     4 B                  
-11.411 -11.411  -9.164  -9.164  -6.845  -6.845  -6.844  -6.844
  5 B     5 A     6 A     6 B     7 B     7 A     8 A     8 B                  
 -6.844  -6.844  -1.383  -1.349  -1.222  -1.188  -1.174  -1.105
  9 A     9 B    10 A    10 B    11 A    11 B    12 A    12 B                  
 -0.993  -0.953  -0.913  -0.901  -0.888  -0.818  -0.747  -0.745
 13 A    13 B    14 A    14 B    15 A    15 B    16 B    16 A                  
 -0.739  -0.730  -0.721  -0.687  -0.665  -0.661  -0.644  -0.537
 17 A    17 B    18 A    19 A    18 B    19 B    20 A    20 B                  
 -0.534  -0.511
 21 A    22 A                                                                  
 -- Virtual --                   
 -0.184  -0.058  -0.007   0.004   0.009   0.022   0.028   0.050
 21 B    23 A    22 B    23 B    24 A    25 A    24 B    25 B                  
  0.055   0.059   0.062   0.075   0.078   0.117   0.127   0.164
 26 A    27 A    26 B    28 A    27 B    28 B    29 A    29 B                  
  0.181   0.198   0.205   0.211   0.217   0.241   0.244   0.267
 30 A    31 A    30 B    32 A    31 B    33 A    32 B    33 B                  
  0.280   0.288   0.295   0.295   0.309   0.316   0.321   0.352
 34 A    34 B    35 A    35 B    36 A    37 A    36 B    38 A                  
  0.364   0.373   0.377   0.380   0.385   0.396   0.396   0.403
 37 B    39 A    40 A    38 B    39 B    41 A    40 B    41 B                  
  0.421   0.422   0.439   0.439   0.459   0.460   0.465   0.466
 42 A    42 B    43 A    43 B    44 B    44 A    45 B    45 A                  
  0.471   0.475   0.498   0.501   0.502   0.510   0.515   0.540
 46 B    46 A    47 A    48 A    47 B    49 A    48 B    49 B                  
  0.547   0.608   0.618   0.623   0.630   0.655   0.673   0.675
 50 A    50 B    51 A    52 A    51 B    52 B    53 A    53 B                  
  0.675   0.699   0.710   0.734   0.744   0.748   0.755   0.806
 54 B    55 B    54 A    56 B    55 A    56 A    57 A    57 B                  
  0.809   0.813   0.817   0.838   0.859   0.863   0.869   0.902
 58 A    58 B    59 A    60 A    61 A    59 B    60 B    62 A                  
  0.920   0.928   0.938   0.951   0.959   0.982   0.990   0.999
 61 B    62 B    63 A    64 A    63 B    64 B    65 A    65 B                  
  1.005   1.015   1.038   1.043   1.061   1.081   1.091   1.099
 66 A    66 B    67 B    67 A    68 A    68 B    69 A    69 B                  
  1.119   1.131   1.152   1.177   1.180   1.238   1.239   1.263
 70 A    70 B    71 A    72 A    71 B    72 B    73 A    74 A                  
  1.264   1.279   1.289   1.316   1.326   1.332   1.351   1.362
 73 B    75 A    74 B    76 A    75 B    76 B    77 A    77 B                  
  1.368   1.382   1.387   1.398   1.409   1.430   1.445   1.457
 78 B    78 A    79 A    79 B    80 B    80 A    81 A    81 B                  
  1.479   1.507   1.527   1.550   1.561   1.578   1.600   1.621
 82 A    82 B    83 B    83 A    84 B    84 A    85 A    85 B                  
  1.673   1.680   1.693   1.705   1.722   1.724   1.753   1.762
 86 A    86 B    87 A    87 B    88 B    88 A    89 B    89 A                  
  1.769   1.772   1.811   1.867   1.889   1.896   1.927   1.954
 90 A    90 B    91 B    91 A    92 B    92 A    93 A    93 B                  
  2.000   2.013   2.026   2.028   2.036   2.077   2.091   2.101
 94 A    94 B    95 A    95 B    96 B    96 A    97 A    97 B                  
  2.123   2.127   2.131   2.145   2.201   2.232   2.259   2.272
 98 A    98 B    99 B    99 A   100 B   100 A   101 B   101 A                  
  2.282   2.312   2.321   2.350   2.353   2.362   2.397   2.406
102 A   102 B   103 A   104 A   103 B   104 B   105 B   105 A                  
  2.424   2.448   2.487   2.522   2.524   2.545   2.556   2.567
106 A   106 B   107 B   107 A   108 B   109 B   108 A   109 A                  
  2.582   2.592   2.602   2.613   2.618   2.636   2.658   2.706
110 B   110 A   111 B   111 A   112 B   112 A   113 A   113 B                  
  2.730   2.741   2.767   2.771   2.791   2.814   2.827   2.832
114 A   114 B   115 B   115 A   116 A   116 B   117 B   117 A                  
  2.849   2.857   2.881   2.918   2.964   2.972   2.992   3.000
118 B   118 A   119 B   119 A   120 A   121 A   120 B   122 A                  
  3.020   3.038   3.042   3.058   3.067   3.080   3.096   3.103
121 B   122 B   123 A   123 B   124 A   124 B   125 A   126 A                  
  3.111   3.112   3.125   3.154   3.160   3.163   3.170   3.213
127 A   125 B   126 B   127 B   128 A   129 A   128 B   130 A                  
  3.216   3.217   3.251   3.255   3.262   3.264   3.283   3.296
129 B   131 A   130 B   131 B   132 B   132 A   133 A   134 A                  
  3.318   3.318   3.335   3.337   3.347   3.356   3.357   3.363
135 A   133 B   136 A   134 B   135 B   137 A   138 A   136 B                  
  3.371   3.379   3.382   3.395   3.406   3.425   3.455   3.465
137 B   138 B   139 A   140 A   141 A   139 B   142 A   140 B                  
  3.505   3.526   3.535   3.539   3.572   3.580   3.596   3.618
141 B   142 B   143 A   143 B   144 A   145 A   144 B   145 B                  
  3.622   3.651   3.669   3.687   3.704   3.732   3.748   3.763
146 A   146 B   147 A   147 B   148 A   149 A   148 B   149 B                  
  3.771   3.796   3.831   3.834   3.835   3.847   3.871   3.878
150 A   151 A   150 B   151 B   152 A   152 B   153 A   153 B                  
  3.889   3.922   3.944   3.965   3.974   3.985   4.012   4.024
154 A   154 B   155 A   155 B   156 B   156 A   157 A   157 B                  
  4.027   4.044   4.048   4.066   4.101   4.116   4.117   4.139
158 A   158 B   159 A   160 A   161 A   159 B   160 B   162 A                  
  4.144   4.174   4.192   4.211   4.258   4.277   4.314   4.364
161 B   163 A   162 B   164 A   163 B   164 B   165 A   165 B                  
  4.370   4.386   4.406   4.449   4.474   4.480   4.500   4.512
166 A   166 B   167 A   167 B   168 A   168 B   169 A   170 A                  
  4.542   4.563   4.569   4.572   4.600   4.618   4.672   4.676
169 B   170 B   171 A   171 B   172 A   172 B   173 A   173 B                  
  4.721   4.729   4.796   4.834   4.852   4.864   4.888   4.899
174 B   174 A   175 B   175 A   176 B   176 A   177 B   177 A                  
  4.917   4.919   4.970   5.029   5.087   5.094   5.124   5.153
178 A   178 B   179 A   179 B   180 A   180 B   181 B   181 A                  
  5.238   5.241   5.262   5.263   5.335   5.384   5.429   5.471
182 A   182 B   183 B   183 A   184 A   184 B   185 A   186 A                  
  5.517   5.590   5.791   5.822   5.916   5.929   6.014   6.028
185 B   186 B   187 A   187 B   188 B   188 A   189 A   189 B                  
  6.107   6.152   6.376   6.405   6.591   6.600   9.304  10.872
190 B   190 A   191 A   191 B   192 B   192 A   193 A   193 B                  
 11.756  12.640  13.320  13.550  14.683  14.767
194 A   194 B   195 A   195 B   196 B   196 A                                  
 --------------------------------------------------------------
 
          Ground-State Mulliken Net Atomic Charges

     Atom                 Charge (a.u.)    Spin (a.u.)
  --------------------------------------------------------
      1 S                     0.260881      -0.019996
      2 C                    -0.121010      -0.009857
      3 C                    -0.152685       0.421811
      4 C                    -0.160133      -0.227735
      5 C                     0.003212       0.337417
      6 H                     0.205487       0.019695
      7 C                     0.003212       0.337417
      8 S                     0.260883      -0.019996
      9 C                    -0.160136      -0.227735
     10 C                    -0.121012      -0.009857
     11 C                    -0.152683       0.421810
     12 H                     0.223651      -0.032919
     13 H                     0.240596       0.011585
     14 H                     0.223653      -0.032919
     15 H                     0.240596       0.011585
     16 H                     0.205489       0.019695
  --------------------------------------------------------
  Sum of atomic charges =     1.000000
  Sum of spin   charges =     1.000000

 -----------------------------------------------------------------
                    Cartesian Multipole Moments
 -----------------------------------------------------------------
    Charge (ESU x 10^10)
                 4.8032
    Dipole Moment (Debye)
         X       0.0000      Y      -0.0000      Z       0.1991
       Tot       0.1991
    Quadrupole Moments (Debye-Ang)
        XX     -22.0532     XY       1.9938     YY     -56.9471
        XZ       0.0000     YZ      -0.0000     ZZ     -72.3017
    Octopole Moments (Debye-Ang^2)
       XXX      -0.0000    XXY      -0.0000    XYY       0.0000
       YYY       0.0000    XXZ      -3.8450    XYZ       9.2611
       YYZ       5.5457    XZZ      -0.0000    YZZ      -0.0000
       ZZZ      -3.3538
    Hexadecapole Moments (Debye-Ang^3)
      XXXX   -1267.3679   XXXY       0.5128   XXYY    -337.7816
      XYYY      23.1739   YYYY    -473.6004   XXXZ       0.0000
      XXYZ      -0.0000   XYYZ       0.0000   YYYZ      -0.0000
      XXZZ    -363.2162   XYZZ      -6.0930   YYZZ    -107.0055
      XZZZ       0.0000   YZZZ      -0.0000   ZZZZ    -119.0516
 -----------------------------------------------------------------
 DrvMan is completing analytic gradient of the MP2 energy
 MP2 relaxed dipole moment
            1
    1   0.0000000
    2  -0.0000000
    3   0.0783391
	Magnitude:	 0.078 au	 0.199 Debye
 MP2 energy read as -1103.105774
 Full Analytical Gradient of MP2 Energy (in au.)
             1             2             3             4             5
    1   -0.00031148    0.00075054   -0.00049670    0.00085087   -0.00614770
    2    0.00016909    0.00066877    0.00071966   -0.00139746   -0.00154816
    3   -0.00451978   -0.00098871   -0.00053713    0.00698563   -0.00095479
             6             7             8             9            10
    1    0.00038132    0.00614770    0.00031148   -0.00085086   -0.00075054
    2    0.00044740    0.00154815   -0.00016909    0.00139746   -0.00066877
    3   -0.00059067   -0.00095480   -0.00451978    0.00698563   -0.00098872
            11            12            13            14            15
    1    0.00049670    0.00007190   -0.00008564   -0.00007190    0.00008565
    2   -0.00071966   -0.00026051   -0.00046081    0.00026051    0.00046081
    3   -0.00053713   -0.00091946    0.00152491   -0.00091946    0.00152491
            16
    1   -0.00038132
    2   -0.00044740
    3   -0.00059067
 Gradient time:  CPU 1.48 s  wall 0.10 s
 Geometry Optimization Parameters
   NAtoms,    NIC,     NZ,  NCons,   NDum,   NFix, NCnnct, MaxDiis
       16     111       0       1       0       0       0       0


** CONSTRAINED OPTIMIZATION IN DELOCALIZED INTERNAL COORDINATES **
   Searching for a Minimum

   Optimization Cycle:   1

                       Coordinates (Angstroms)
     ATOM                X               Y               Z
      1  S         1.8082663685   -1.1689944154   -0.2970841261
      2  C         3.0991509003   -0.1492798334   -0.0852516768
      3  C         2.7463234657    1.1427621011    0.2718068036
      4  C         1.3908944911    1.2873567190    0.3705306909
      5  C         0.6884647074    0.1167151152    0.0927300620
      6  H         0.9045636191    2.2099702951    0.6360619772
      7  C        -0.6884647074   -0.1167151152    0.0927300620
      8  S        -1.8082663685    1.1689944154   -0.2970841261
      9  C        -1.3908944911   -1.2873567190    0.3705306909
     10  C        -3.0991509003    0.1492798334   -0.0852516768
     11  C        -2.7463234657   -1.1427621011    0.2718068036
     12  H        -3.4685873923   -1.9178070100    0.4445421998
     13  H         4.1003628870   -0.5144907714   -0.2261534388
     14  H         3.4685873923    1.9178070100    0.4445421998
     15  H        -4.1003628870    0.5144907714   -0.2261534388
     16  H        -0.9045636191   -2.2099702951    0.6360619772
   Point Group: c2    Number of degrees of freedom:    22


   Energy is  -1103.105773697

              Constraints and their Current Values
                                        Value     Constraint
   Dihedral:        4   5   7   9     -150.000     -150.000

 Attempting to Generate Delocalized Internal Coordinates

 21 Hessian modes will be used to form the next step
  Hessian Eigenvalues:
     0.045000    0.045000    0.045000    0.045000    0.045000    0.045000
     0.160000    0.160000    0.160000    0.221335    0.237679    0.250000
     0.299411    0.364554    0.366034    0.368031    0.392996    0.445237
     0.461927    0.467905    0.501257

 Minimum Search - Taking Simple RFO Step
 Searching for Lamda that Minimizes Along All modes
 Value Taken    Lamda =  -0.00141020
 Step Taken.  Stepsize is  0.169890

                             Maximum     Tolerance    Cnvgd?
         Gradient           0.004280      0.000300      NO
         Displacement       0.075286      0.001200      NO
         Energy change     *********      0.000001      NO


 New Cartesian Coordinates Obtained by Inverse Iteration

 Displacement from previous Coordinates is:  0.311743
 ----------------------------------------------------------------
             Standard Nuclear Orientation (Angstroms)
    I     Atom           X                Y                Z
 ----------------------------------------------------------------
    1      S       1.8171920689    -1.1787645866    -0.2631742443
    2      C       3.1037660320    -0.1552759788    -0.0519311715
    3      C       2.7449738033     1.1423939325     0.2763227534
    4      C       1.3871578895     1.2933919205     0.3284688974
    5      C       0.6908517441     0.1205248953     0.0509413671
    6      H       0.8931315615     2.2172144047     0.5744823064
    7      C      -0.6908517441    -0.1205248953     0.0509413671
    8      S      -1.8171920689     1.1787645866    -0.2631742443
    9      C      -1.3871578895    -1.2933919205     0.3284688974
   10      C      -3.1037660320     0.1552759788    -0.0519311715
   11      C      -2.7449738033    -1.1423939325     0.2763227534
   12      H      -3.4646168411    -1.9167153230     0.4627637511
   13      H       4.1075310252    -0.5218723010    -0.1706911678
   14      H       3.4646168411     1.9167153230     0.4627637511
   15      H      -4.1075310252     0.5218723010    -0.1706911678
   16      H      -0.8931315615    -2.2172144047     0.5744823064
 ----------------------------------------------------------------
 Molecular Point Group                 C2    NOp =  2
 Largest Abelian Subgroup              C2    NOp =  2
 Nuclear Repulsion Energy =   639.3717920507 hartrees
 There are       43 alpha and       42 beta electrons
 Applying Cartesian multipole field
    Component          Value
    ---------          -----
     (2,0,0)        1.00000E-11
     (0,2,0)        2.00000E-11
     (0,0,2)       -3.00000E-10
 Nucleus-field energy     =     0.0000000153 hartrees
 Requested basis set is cc-pVTZ
 There are 140 shells and 392 basis functions
 A cutoff of  1.0D-11 yielded   8067 shell pairs
 There are     62687 function pairs (     81696 Cartesian)
 Smallest overlap matrix eigenvalue = 6.87E-05
 Guess MOs from SCF MO coefficient file
 Reading MOs from coefficient file
 Reading MOs from coefficient file
 An unrestricted Hartree-Fock SCF calculation will be
 performed using Pulay DIIS extrapolation
 SCF converges when DIIS error is below 1.0E-08
 Geometry optimization detected.  Setting ReadMinima to 0
 Setting SaveMinima to 0
 using 16 threads for integral computing 
 ---------------------------------------
  Cycle       Energy         DIIS Error
 ---------------------------------------
    1   -1101.3550335084      6.71E-04
    2   -1101.3619699840      8.59E-05
    3   -1101.3623558853      3.40E-05
    4   -1101.3624279004      1.56E-05
    5   -1101.3624412330      6.05E-06
    6   -1101.3624434339      2.29E-06
    7   -1101.3624439657      9.35E-07
    8   -1101.3624440731      2.50E-07
    9   -1101.3624440932      8.99E-08
   10   -1101.3624440967      3.75E-08
   11   -1101.3624440983      2.10E-08
   12   -1101.3624440989      1.62E-08
   13   -1101.3624440991      1.15E-08
   14   -1101.3624440993      7.03E-09 Convergence criterion met
 ---------------------------------------
 <S^2> = 1.0347
 SCF time:  CPU 1043.49 s  wall 65.27 s
 SCF   energy in the final basis set = -1101.3624440993
 Total energy in the final basis set = -1101.3624440993
 
 Components of the MP2 correlation energy:
        aaaa  correlation energy =        -0.2338975254 au
        abab  correlation energy =        -1.2997721266 au
        bbbb  correlation energy =        -0.2109055784 au
        non-Brillouin singles    =        -0.0000000000 au

 Total  MP2   correlation energy =        -1.7445752304 au
        MP2         total energy =     -1103.1070193297 au

  Entering Z-vector solver.
   1         0           1      0.000533    0.000533
   2         0           1      0.000468    0.000468
   3         0           1      0.000301    0.000301
   4         0           1      0.000234    0.000234
   5         0           1      0.000099    0.000099
   6         0           1      0.000049    0.000049
   7         0           1      0.000028    0.000028
   8         0           1      0.000019    0.000019
   9         0           1      0.000007    0.000007
  10         0           1      0.000003    0.000003
  11         0           1      0.000001    0.000001
  12         1           0      0.000000    0.000000    Roots Converged
 Warning:  Cannot save MP2 spin density
 
 --------------------------------------------------------------
             Orbital Energies (a.u.) and Symmetries
 --------------------------------------------------------------
 
 Alpha MOs, Unrestricted
 -- Occupied --                  
-92.160 -92.160 -11.476 -11.475 -11.452 -11.452 -11.433 -11.433
  1 A     1 B     2 A     2 B     3 B     3 A     4 B     4 A                  
-11.405 -11.405  -9.162  -9.162  -6.843  -6.843  -6.842  -6.842
  5 B     5 A     6 A     6 B     7 B     7 A     8 A     8 B                  
 -6.840  -6.840  -1.395  -1.365  -1.231  -1.198  -1.179  -1.130
  9 B     9 A    10 A    10 B    11 A    11 B    12 A    12 B                  
 -1.000  -0.963  -0.925  -0.905  -0.890  -0.823  -0.753  -0.749
 13 A    13 B    14 A    14 B    15 A    15 B    16 A    16 B                  
 -0.748  -0.740  -0.734  -0.711  -0.696  -0.665  -0.643  -0.579
 17 A    18 A    17 B    18 B    19 A    19 B    20 A    21 A                  
 -0.540  -0.520  -0.478
 20 B    22 A    21 B                                                          
 -- Virtual --                   
 -0.123  -0.032  -0.001   0.003   0.020   0.028   0.037   0.047
 23 A    22 B    23 B    24 A    25 A    24 B    26 A    25 B                  
  0.050   0.053   0.070   0.072   0.113   0.128   0.162   0.181
 26 B    27 A    27 B    28 A    28 B    29 A    29 B    30 A                  
  0.196   0.201   0.209   0.215   0.237   0.241   0.261   0.278
 31 A    30 B    32 A    31 B    33 A    32 B    33 B    34 A                  
  0.280   0.287   0.291   0.300   0.316   0.319   0.344   0.355
 34 B    35 A    35 B    36 A    36 B    37 A    38 A    37 B                  
  0.368   0.369   0.374   0.375   0.383   0.389   0.394   0.408
 39 A    38 B    39 B    40 A    40 B    41 A    41 B    42 B                  
  0.415   0.433   0.436   0.449   0.453   0.459   0.463   0.469
 42 A    43 B    43 A    44 A    44 B    45 B    45 A    46 B                  
  0.470   0.490   0.495   0.501   0.508   0.512   0.535   0.544
 46 A    47 A    48 A    47 B    49 A    48 B    49 B    50 A                  
  0.610   0.617   0.621   0.630   0.653   0.672   0.672   0.675
 50 B    51 A    52 A    51 B    52 B    53 A    53 B    54 B                  
  0.696   0.705   0.728   0.735   0.743   0.752   0.803   0.804
 55 B    54 A    56 B    55 A    56 A    57 A    57 B    58 A                  
  0.810   0.817   0.840   0.856   0.857   0.864   0.900   0.922
 58 B    59 A    60 A    59 B    61 A    60 B    62 A    61 B                  
  0.926   0.931   0.949   0.950   0.981   0.990   0.999   1.003
 62 B    63 A    63 B    64 A    64 B    65 A    65 B    66 A                  
  1.009   1.033   1.035   1.060   1.080   1.091   1.093   1.115
 66 B    67 B    67 A    68 A    68 B    69 A    69 B    70 A                  
  1.133   1.144   1.172   1.173   1.227   1.233   1.257   1.260
 70 B    71 A    72 A    71 B    72 B    73 A    73 B    74 A                  
  1.272   1.285   1.307   1.320   1.329   1.343   1.358   1.367
 75 A    74 B    76 A    75 B    76 B    77 A    77 B    78 B                  
  1.382   1.387   1.395   1.406   1.428   1.440   1.455   1.477
 78 A    79 A    79 B    80 B    80 A    81 A    81 B    82 A                  
  1.502   1.524   1.543   1.557   1.575   1.603   1.631   1.676
 82 B    83 B    83 A    84 B    84 A    85 A    85 B    86 A                  
  1.677   1.692   1.703   1.723   1.724   1.745   1.751   1.767
 86 B    87 A    87 B    88 A    88 B    89 B    89 A    90 A                  
  1.777   1.809   1.868   1.891   1.895   1.928   1.953   2.002
 90 B    91 B    91 A    92 B    92 A    93 A    93 B    94 A                  
  2.013   2.025   2.028   2.037   2.072   2.095   2.100   2.116
 94 B    95 B    95 A    96 B    96 A    97 B    97 A    98 A                  
  2.120   2.128   2.138   2.188   2.227   2.260   2.272   2.282
 98 B    99 B    99 A   100 B   100 A   101 B   101 A   102 A                  
  2.309   2.320   2.335   2.349   2.352   2.389   2.401   2.415
102 B   103 A   104 A   103 B   104 B   105 B   105 A   106 A                  
  2.440   2.475   2.523   2.526   2.537   2.548   2.566   2.575
106 B   107 B   108 B   107 A   109 B   108 A   109 A   110 B                  
  2.590   2.593   2.611   2.614   2.634   2.655   2.698   2.722
110 A   111 B   112 B   111 A   112 A   113 A   113 B   114 A                  
  2.742   2.754   2.766   2.793   2.805   2.825   2.830   2.840
114 B   115 B   115 A   116 A   116 B   117 B   117 A   118 B                  
  2.852   2.879   2.908   2.958   2.964   2.982   2.997   3.019
118 A   119 B   119 A   120 A   121 A   120 B   122 A   121 B                  
  3.035   3.038   3.053   3.063   3.071   3.092   3.096   3.099
123 A   122 B   123 B   124 A   124 B   125 A   126 A   125 B                  
  3.107   3.127   3.138   3.150   3.160   3.161   3.202   3.212
127 A   126 B   127 B   128 A   128 B   129 A   130 A   131 A                  
  3.218   3.245   3.259   3.262   3.268   3.282   3.287   3.308
129 B   130 B   132 A   131 B   132 B   133 A   134 A   133 B                  
  3.309   3.327   3.327   3.338   3.347   3.358   3.359   3.370
135 A   136 A   134 B   135 B   137 A   138 A   136 B   137 B                  
  3.376   3.379   3.389   3.397   3.418   3.453   3.457   3.496
138 B   139 A   140 A   141 A   139 B   142 A   140 B   141 B                  
  3.524   3.525   3.539   3.571   3.573   3.590   3.617   3.617
143 A   142 B   143 B   144 A   145 A   144 B   146 A   145 B                  
  3.646   3.657   3.687   3.698   3.726   3.749   3.760   3.772
146 B   147 A   147 B   148 A   149 A   148 B   149 B   150 A                  
  3.793   3.827   3.830   3.830   3.846   3.870   3.877   3.887
151 A   150 B   151 B   152 A   152 B   153 A   153 B   154 A                  
  3.915   3.940   3.962   3.971   3.980   4.010   4.022   4.023
154 B   155 A   155 B   156 B   156 A   157 A   157 B   158 A                  
  4.043   4.046   4.064   4.099   4.115   4.118   4.136   4.141
158 B   159 A   160 A   161 A   159 B   160 B   162 A   161 B                  
  4.173   4.186   4.210   4.258   4.273   4.314   4.360   4.370
163 A   162 B   164 A   163 B   164 B   165 A   165 B   166 A                  
  4.382   4.407   4.445   4.472   4.481   4.497   4.512   4.541
166 B   167 A   167 B   168 A   168 B   169 A   170 A   169 B                  
  4.564   4.565   4.571   4.588   4.616   4.674   4.674   4.720
171 A   170 B   171 B   172 A   172 B   173 A   173 B   174 B                  
  4.726   4.789   4.835   4.853   4.861   4.886   4.901   4.912
174 A   175 B   175 A   176 B   176 A   177 B   177 A   178 A                  
  4.922   4.971   5.024   5.079   5.090   5.115   5.152   5.238
178 B   179 A   179 B   180 A   180 B   181 B   181 A   182 A                  
  5.238   5.260   5.260   5.338   5.381   5.430   5.467   5.516
182 B   183 B   183 A   184 A   184 B   185 A   186 A   185 B                  
  5.591   5.787   5.816   5.916   5.927   6.017   6.027   6.123
186 B   187 A   187 B   188 B   188 A   189 A   189 B   190 B                  
  6.159   6.382   6.404   6.591   6.596   9.285  10.844  11.766
190 A   191 A   191 B   192 B   192 A   193 A   193 B   194 A                  
 12.596  13.364  13.513  14.665  14.785
194 B   195 A   195 B   196 B   196 A                                          
 
 Beta MOs, Unrestricted
 -- Occupied --                  
-92.161 -92.161 -11.476 -11.475 -11.440 -11.440 -11.426 -11.426
  1 A     1 B     2 A     2 B     3 B     3 A     4 A     4 B                  
-11.411 -11.411  -9.164  -9.164  -6.845  -6.845  -6.844  -6.844
  5 B     5 A     6 A     6 B     7 B     7 A     8 A     8 B                  
 -6.843  -6.843  -1.383  -1.350  -1.221  -1.188  -1.174  -1.106
  9 A     9 B    10 A    10 B    11 A    11 B    12 A    12 B                  
 -0.992  -0.954  -0.913  -0.901  -0.888  -0.819  -0.747  -0.744
 13 A    13 B    14 A    14 B    15 A    15 B    16 B    16 A                  
 -0.739  -0.730  -0.721  -0.688  -0.665  -0.661  -0.643  -0.537
 17 A    17 B    18 A    19 A    18 B    19 B    20 A    20 B                  
 -0.534  -0.513
 21 A    22 A                                                                  
 -- Virtual --                   
 -0.184  -0.058  -0.006   0.005   0.009   0.022   0.029   0.051
 21 B    23 A    22 B    23 B    24 A    25 A    24 B    25 B                  
  0.055   0.060   0.062   0.075   0.076   0.118   0.129   0.164
 26 A    27 A    26 B    28 A    27 B    28 B    29 A    29 B                  
  0.183   0.200   0.205   0.210   0.217   0.240   0.244   0.266
 30 A    31 A    30 B    32 A    31 B    33 A    32 B    33 B                  
  0.282   0.288   0.294   0.297   0.310   0.317   0.319   0.351
 34 A    34 B    35 B    35 A    36 A    37 A    36 B    38 A                  
  0.364   0.377   0.378   0.378   0.386   0.395   0.398   0.406
 37 B    39 A    40 A    38 B    39 B    40 B    41 A    41 B                  
  0.420   0.424   0.437   0.439   0.459   0.461   0.464   0.466
 42 A    42 B    43 A    43 B    44 B    44 A    45 B    45 A                  
  0.472   0.475   0.496   0.499   0.502   0.511   0.514   0.541
 46 B    46 A    47 A    48 A    47 B    49 A    48 B    49 B                  
  0.548   0.612   0.620   0.624   0.632   0.655   0.674   0.675
 50 A    50 B    51 A    52 A    51 B    52 B    53 A    53 B                  
  0.680   0.701   0.711   0.731   0.742   0.748   0.755   0.804
 54 B    55 B    54 A    56 B    55 A    56 A    57 A    57 B                  
  0.810   0.813   0.819   0.842   0.858   0.859   0.868   0.905
 58 A    58 B    59 A    60 A    59 B    61 A    60 B    62 A                  
  0.925   0.930   0.937   0.955   0.960   0.981   0.993   1.000
 61 B    62 B    63 A    64 A    63 B    64 B    65 A    65 B                  
  1.005   1.014   1.036   1.042   1.061   1.080   1.092   1.099
 66 A    66 B    67 B    67 A    68 A    68 B    69 A    69 B                  
  1.117   1.134   1.150   1.176   1.178   1.238   1.239   1.262
 70 A    70 B    71 A    71 B    72 A    73 A    72 B    74 A                  
  1.263   1.278   1.291   1.311   1.324   1.332   1.352   1.363
 73 B    75 A    74 B    76 A    75 B    76 B    77 A    77 B                  
  1.368   1.382   1.391   1.397   1.408   1.429   1.445   1.459
 78 B    78 A    79 A    79 B    80 B    80 A    81 A    81 B                  
  1.481   1.505   1.527   1.548   1.560   1.578   1.603   1.634
 82 A    82 B    83 B    83 A    84 B    84 A    85 A    85 B                  
  1.675   1.678   1.692   1.707   1.722   1.723   1.748   1.750
 86 A    86 B    87 A    87 B    88 A    88 B    89 B    89 A                  
  1.771   1.777   1.810   1.867   1.891   1.896   1.928   1.955
 90 A    90 B    91 B    91 A    92 B    92 A    93 A    93 B                  
  2.002   2.013   2.024   2.029   2.037   2.077   2.102   2.105
 94 A    94 B    95 B    95 A    96 B    96 A    97 A    97 B                  
  2.125   2.126   2.131   2.143   2.192   2.230   2.257   2.273
 98 B    98 A    99 B    99 A   100 B   100 A   101 B   101 A                  
  2.284   2.311   2.323   2.346   2.355   2.365   2.400   2.406
102 A   102 B   103 A   104 A   103 B   104 B   105 B   105 A                  
  2.424   2.446   2.479   2.526   2.527   2.542   2.550   2.571
106 A   106 B   107 B   108 B   107 A   109 B   108 A   109 A                  
  2.582   2.596   2.601   2.617   2.620   2.640   2.657   2.708
110 B   110 A   111 B   112 B   111 A   112 A   113 A   113 B                  
  2.732   2.746   2.763   2.769   2.798   2.810   2.828   2.835
114 A   114 B   115 B   115 A   116 A   116 B   117 B   117 A                  
  2.847   2.858   2.882   2.914   2.964   2.967   2.992   3.001
118 B   118 A   119 B   119 A   120 A   121 A   120 B   122 A                  
  3.025   3.038   3.041   3.055   3.068   3.077   3.098   3.099
121 B   122 B   123 A   123 B   124 A   124 B   125 A   126 A                  
  3.107   3.112   3.130   3.148   3.159   3.165   3.166   3.208
125 B   127 A   126 B   127 B   128 A   128 B   129 A   130 A                  
  3.212   3.219   3.251   3.263   3.264   3.270   3.286   3.295
131 A   129 B   130 B   132 A   131 B   132 B   133 A   134 A                  
  3.316   3.317   3.332   3.336   3.346   3.354   3.359   3.368
133 B   135 A   136 A   134 B   135 B   137 A   138 A   136 B                  
  3.373   3.379   3.383   3.393   3.405   3.423   3.456   3.460
137 B   138 B   139 A   140 A   141 A   139 B   142 A   140 B                  
  3.502   3.529   3.530   3.542   3.574   3.578   3.593   3.620
141 B   142 B   143 A   143 B   144 A   145 A   144 B   146 A                  
  3.623   3.649   3.660   3.691   3.702   3.731   3.749   3.764
145 B   146 B   147 A   147 B   148 A   149 A   148 B   149 B                  
  3.772   3.797   3.830   3.833   3.835   3.849   3.873   3.879
150 A   151 A   150 B   152 A   151 B   152 B   153 A   153 B                  
  3.891   3.917   3.941   3.965   3.975   3.983   4.011   4.024
154 A   154 B   155 A   155 B   156 B   156 A   157 A   157 B                  
  4.026   4.045   4.049   4.065   4.101   4.116   4.119   4.137
158 A   158 B   159 A   160 A   161 A   159 B   160 B   162 A                  
  4.143   4.175   4.188   4.211   4.260   4.274   4.315   4.362
161 B   163 A   162 B   164 A   163 B   164 B   165 A   165 B                  
  4.371   4.383   4.408   4.449   4.474   4.481   4.501   4.514
166 A   166 B   167 A   167 B   168 A   168 B   169 A   170 A                  
  4.543   4.566   4.568   4.573   4.589   4.617   4.675   4.676
169 B   170 B   171 A   171 B   172 A   172 B   173 A   173 B                  
  4.722   4.728   4.793   4.838   4.854   4.863   4.887   4.902
174 B   174 A   175 B   175 A   176 B   176 A   177 B   177 A                  
  4.915   4.923   4.972   5.026   5.085   5.091   5.121   5.154
178 A   178 B   179 A   179 B   180 A   180 B   181 B   181 A                  
  5.239   5.240   5.261   5.261   5.339   5.383   5.432   5.469
182 A   182 B   183 B   183 A   184 A   184 B   185 A   186 A                  
  5.517   5.592   5.787   5.817   5.917   5.928   6.019   6.027
185 B   186 B   187 A   187 B   188 B   188 A   189 A   189 B                  
  6.123   6.159   6.383   6.405   6.591   6.596   9.287  10.848
190 B   190 A   191 A   191 B   192 B   192 A   193 A   193 B                  
 11.770  12.602  13.367  13.513  14.667  14.787
194 A   194 B   195 A   195 B   196 B   196 A                                  
 --------------------------------------------------------------
 
          Ground-State Mulliken Net Atomic Charges

     Atom                 Charge (a.u.)    Spin (a.u.)
  --------------------------------------------------------
      1 S                     0.257545      -0.019372
      2 C                    -0.114945      -0.006716
      3 C                    -0.160474       0.418771
      4 C                    -0.150289      -0.223816
      5 C                    -0.003236       0.333177
      6 H                     0.205336       0.019443
      7 C                    -0.003236       0.333177
      8 S                     0.257545      -0.019372
      9 C                    -0.150289      -0.223816
     10 C                    -0.114945      -0.006716
     11 C                    -0.160474       0.418771
     12 H                     0.224740      -0.032673
     13 H                     0.241322       0.011186
     14 H                     0.224740      -0.032673
     15 H                     0.241322       0.011186
     16 H                     0.205336       0.019443
  --------------------------------------------------------
  Sum of atomic charges =     1.000000
  Sum of spin   charges =     1.000000

 -----------------------------------------------------------------
                    Cartesian Multipole Moments
 -----------------------------------------------------------------
    Charge (ESU x 10^10)
                 4.8032
    Dipole Moment (Debye)
         X       0.0000      Y      -0.0000      Z       0.3443
       Tot       0.3443
    Quadrupole Moments (Debye-Ang)
        XX     -21.9320     XY       1.8175     YY     -56.8467
        XZ      -0.0000     YZ       0.0000     ZZ     -72.4950
    Octopole Moments (Debye-Ang^2)
       XXX       0.0000    XXY      -0.0000    XYY       0.0000
       YYY      -0.0000    XXZ      -1.6018    XYZ       8.8112
       YYZ       5.1607    XZZ       0.0000    YZZ      -0.0000
       ZZZ      -4.2646
    Hexadecapole Moments (Debye-Ang^3)
      XXXX   -1269.0969   XXXY       0.7394   XXYY    -339.1074
      XYYY      25.1248   YYYY    -477.5190   XXXZ      -0.0000
      XXYZ       0.0000   XYYZ       0.0000   YYYZ       0.0000
      XXZZ    -363.9696   XYZZ      -4.7384   YYZZ    -107.6365
      XZZZ      -0.0000   YZZZ       0.0000   ZZZZ    -113.2082
 -----------------------------------------------------------------
 DrvMan is completing analytic gradient of the MP2 energy
 MP2 relaxed dipole moment
            1
    1   0.0000000
    2  -0.0000000
    3   0.1354456
	Magnitude:	 0.135 au	 0.344 Debye
 MP2 energy read as -1103.107019
 Full Analytical Gradient of MP2 Energy (in au.)
             1             2             3             4             5
    1    0.00044286   -0.00001772   -0.00011812    0.00038032   -0.00034113
    2    0.00046869    0.00039019   -0.00013619   -0.00157473    0.00126838
    3   -0.00125972   -0.00182430    0.00055256    0.00530887   -0.00307946
             6             7             8             9            10
    1    0.00000649    0.00034113   -0.00044286   -0.00038032    0.00001772
    2   -0.00001103   -0.00126838   -0.00046869    0.00157473   -0.00039019
    3    0.00007295   -0.00307946   -0.00125972    0.00530887   -0.00182430
            11            12            13            14            15
    1    0.00011812   -0.00002352    0.00004269    0.00002352   -0.00004269
    2    0.00013619   -0.00007744   -0.00020640    0.00007744    0.00020640
    3    0.00055256   -0.00041622    0.00064532   -0.00041622    0.00064532
            16
    1   -0.00000649
    2    0.00001103
    3    0.00007295
 Gradient time:  CPU 1.56 s  wall 0.10 s
 Geometry Optimization Parameters
   NAtoms,    NIC,     NZ,  NCons,   NDum,   NFix, NCnnct, MaxDiis
       16     111       0       1       0       0       0       0

 Cartesian Hessian Update
 Hessian Updated using BFGS Update


** CONSTRAINED OPTIMIZATION IN DELOCALIZED INTERNAL COORDINATES **
   Searching for a Minimum

   Optimization Cycle:   2

                       Coordinates (Angstroms)
     ATOM                X               Y               Z
      1  S         1.8171920689   -1.1787645866   -0.2631742443
      2  C         3.1037660320   -0.1552759788   -0.0519311715
      3  C         2.7449738033    1.1423939325    0.2763227534
      4  C         1.3871578895    1.2933919205    0.3284688974
      5  C         0.6908517441    0.1205248953    0.0509413671
      6  H         0.8931315615    2.2172144047    0.5744823064
      7  C        -0.6908517441   -0.1205248953    0.0509413671
      8  S        -1.8171920689    1.1787645866   -0.2631742443
      9  C        -1.3871578895   -1.2933919205    0.3284688974
     10  C        -3.1037660320    0.1552759788   -0.0519311715
     11  C        -2.7449738033   -1.1423939325    0.2763227534
     12  H        -3.4646168411   -1.9167153230    0.4627637511
     13  H         4.1075310252   -0.5218723010   -0.1706911678
     14  H         3.4646168411    1.9167153230    0.4627637511
     15  H        -4.1075310252    0.5218723010   -0.1706911678
     16  H        -0.8931315615   -2.2172144047    0.5744823064
   Point Group: c2    Number of degrees of freedom:    22


   Energy is  -1103.107019330

              Constraints and their Current Values
                                        Value     Constraint
   Dihedral:        4   5   7   9     -150.000     -150.000
 Hessian Updated using BFGS Update

 17 Hessian modes will be used to form the next step
  Hessian Eigenvalues:
     0.018599    0.054035    0.159988    0.160000    0.160680    0.221373
     0.238058    0.249984    0.299144    0.364557    0.366072    0.368031
     0.393791    0.445734    0.467582    0.489109    0.502926

 Minimum Search - Taking Simple RFO Step
 Searching for Lamda that Minimizes Along All modes
 Value Taken    Lamda =  -0.00105827
 Step Taken.  Stepsize is  0.230988

                             Maximum     Tolerance    Cnvgd?
         Gradient           0.002957      0.000300      NO
         Displacement       0.121721      0.001200      NO
         Energy change     -0.001246      0.000001      NO


 New Cartesian Coordinates Obtained by Inverse Iteration

 Displacement from previous Coordinates is:  0.561176
 ----------------------------------------------------------------
             Standard Nuclear Orientation (Angstroms)
    I     Atom           X                Y                Z
 ----------------------------------------------------------------
    1      S       1.8202649583    -1.1903361983    -0.2279695198
    2      C       3.1010463388    -0.1669442996     0.0161916136
    3      C       2.7357131754     1.1433558589     0.2806036169
    4      C       1.3779085276     1.3031557473     0.2585057176
    5      C       0.6904357320     0.1254551488    -0.0190422408
    6      H       0.8763602077     2.2327424539     0.4640615994
    7      C      -0.6904357320    -0.1254551488    -0.0190422408
    8      S      -1.8202649583     1.1903361983    -0.2279695198
    9      C      -1.3779085276    -1.3031557473     0.2585057176
   10      C      -3.1010463388     0.1669442996     0.0161916136
   11      C      -2.7357131754    -1.1433558589     0.2806036169
   12      H      -3.4497768614    -1.9177192859     0.4872452322
   13      H       4.1073797680    -0.5391325744    -0.0524135273
   14      H       3.4497768614     1.9177192859     0.4872452322
   15      H      -4.1073797680     0.5391325744    -0.0524135273
   16      H      -0.8763602077    -2.2327424539     0.4640615994
 ----------------------------------------------------------------
 Molecular Point Group                 C2    NOp =  2
 Largest Abelian Subgroup              C2    NOp =  2
 Nuclear Repulsion Energy =   639.8201123529 hartrees
 There are       43 alpha and       42 beta electrons
 Applying Cartesian multipole field
    Component          Value
    ---------          -----
     (2,0,0)        1.00000E-11
     (0,2,0)        2.00000E-11
     (0,0,2)       -3.00000E-10
 Nucleus-field energy     =     0.0000000167 hartrees
 Requested basis set is cc-pVTZ
 There are 140 shells and 392 basis functions
 A cutoff of  1.0D-11 yielded   8087 shell pairs
 There are     62903 function pairs (     82038 Cartesian)
 Smallest overlap matrix eigenvalue = 6.73E-05
 Guess MOs from SCF MO coefficient file
 Reading MOs from coefficient file
 Reading MOs from coefficient file
 An unrestricted Hartree-Fock SCF calculation will be
 performed using Pulay DIIS extrapolation
 SCF converges when DIIS error is below 1.0E-08
 Geometry optimization detected.  Setting ReadMinima to 0
 Setting SaveMinima to 0
 using 16 threads for integral computing 
 ---------------------------------------
  Cycle       Energy         DIIS Error
 ---------------------------------------
    1   -1101.3401392513      1.08E-03
    2   -1101.3617953337      1.48E-04
    3   -1101.3629288572      6.11E-05
    4   -1101.3631446385      2.87E-05
    5   -1101.3631961650      9.55E-06
    6   -1101.3632028819      4.19E-06
    7   -1101.3632045622      1.68E-06
    8   -1101.3632049497      4.23E-07
    9   -1101.3632050247      1.79E-07
   10   -1101.3632050464      9.45E-08
   11   -1101.3632050562      7.00E-08
   12   -1101.3632050624      5.27E-08
   13   -1101.3632050676      2.65E-08
   14   -1101.3632050691      1.44E-08
   15   -1101.3632050694      8.83E-09 Convergence criterion met
 ---------------------------------------
 <S^2> = 1.0351
 SCF time:  CPU 1145.93 s  wall 71.68 s
 SCF   energy in the final basis set = -1101.3632050694
 Total energy in the final basis set = -1101.3632050694
 
 Components of the MP2 correlation energy:
        aaaa  correlation energy =        -0.2339403723 au
        abab  correlation energy =        -1.2996331673 au
        bbbb  correlation energy =        -0.2108563797 au
        non-Brillouin singles    =        -0.0000000000 au

 Total  MP2   correlation energy =        -1.7444299193 au
        MP2         total energy =     -1103.1076349887 au

  Entering Z-vector solver.
   1         0           1      0.000531    0.000531
   2         0           1      0.000465    0.000465
   3         0           1      0.000296    0.000296
   4         0           1      0.000230    0.000230
   5         0           1      0.000098    0.000098
   6         0           1      0.000048    0.000048
   7         0           1      0.000028    0.000028
   8         0           1      0.000019    0.000019
   9         0           1      0.000007    0.000007
  10         0           1      0.000003    0.000003
  11         0           1      0.000001    0.000001
  12         1           0      0.000000    0.000000    Roots Converged
 Warning:  Cannot save MP2 spin density
 
 --------------------------------------------------------------
             Orbital Energies (a.u.) and Symmetries
 --------------------------------------------------------------
 
 Alpha MOs, Unrestricted
 -- Occupied --                  
-92.160 -92.160 -11.476 -11.475 -11.452 -11.452 -11.434 -11.434
  1 A     1 B     2 A     2 B     3 B     3 A     4 B     4 A                  
-11.405 -11.405  -9.162  -9.162  -6.843  -6.843  -6.842  -6.842
  5 B     5 A     6 A     6 B     7 B     7 A     8 A     8 B                  
 -6.840  -6.840  -1.395  -1.365  -1.231  -1.198  -1.179  -1.130
  9 B     9 A    10 A    10 B    11 A    11 B    12 A    12 B                  
 -1.000  -0.964  -0.924  -0.905  -0.890  -0.823  -0.754  -0.749
 13 A    13 B    14 A    14 B    15 A    15 B    16 A    16 B                  
 -0.748  -0.741  -0.734  -0.711  -0.695  -0.665  -0.643  -0.582
 17 A    18 A    17 B    18 B    19 A    19 B    20 A    21 A                  
 -0.541  -0.520  -0.477
 20 B    22 A    21 B                                                          
 -- Virtual --                   
 -0.124  -0.030  -0.000   0.004   0.020   0.030   0.037   0.047
 23 A    22 B    23 B    24 A    25 A    24 B    26 A    25 B                  
  0.049   0.053   0.067   0.071   0.115   0.130   0.162   0.183
 26 B    27 A    27 B    28 A    28 B    29 A    29 B    30 A                  
  0.199   0.202   0.208   0.217   0.235   0.241   0.259   0.279
 31 A    30 B    32 A    31 B    33 A    32 B    33 B    34 B                  
  0.281   0.290   0.290   0.299   0.314   0.319   0.343   0.358
 34 A    35 A    35 B    36 A    36 B    37 A    38 A    37 B                  
  0.368   0.369   0.371   0.374   0.385   0.391   0.392   0.416
 38 B    39 A    39 B    40 A    40 B    41 A    41 B    42 B                  
  0.416   0.433   0.434   0.451   0.453   0.456   0.465   0.470
 42 A    43 B    43 A    44 A    44 B    45 B    45 A    46 B                  
  0.470   0.490   0.495   0.499   0.508   0.512   0.536   0.547
 46 A    47 A    48 A    47 B    49 A    48 B    49 B    50 A                  
  0.614   0.618   0.621   0.631   0.652   0.673   0.673   0.680
 50 B    51 A    52 A    51 B    52 B    53 A    53 B    54 B                  
  0.701   0.709   0.724   0.729   0.739   0.753   0.792   0.797
 55 B    54 A    56 B    55 A    56 A    57 A    57 B    58 A                  
  0.819   0.823   0.842   0.850   0.860   0.861   0.900   0.922
 58 B    59 A    60 A    59 B    61 A    60 B    62 A    61 B                  
  0.927   0.931   0.950   0.954   0.979   0.995   0.998   1.003
 63 A    62 B    63 B    64 A    64 B    65 A    65 B    66 A                  
  1.008   1.029   1.035   1.060   1.078   1.092   1.094   1.111
 66 B    67 B    67 A    68 A    68 B    69 A    69 B    70 A                  
  1.135   1.142   1.167   1.173   1.228   1.228   1.254   1.258
 70 B    71 A    71 B    72 A    73 A    72 B    73 B    74 A                  
  1.271   1.286   1.304   1.315   1.331   1.344   1.362   1.367
 75 A    74 B    76 A    75 B    76 B    77 A    77 B    78 B                  
  1.382   1.391   1.395   1.403   1.427   1.440   1.457   1.480
 78 A    79 A    79 B    80 B    80 A    81 A    81 B    82 A                  
  1.500   1.524   1.538   1.555   1.578   1.606   1.644   1.670
 82 B    83 B    83 A    84 B    84 A    85 A    85 B    86 B                  
  1.677   1.691   1.703   1.719   1.732   1.738   1.739   1.771
 86 A    87 A    87 B    88 A    88 B    89 A    89 B    90 A                  
  1.780   1.807   1.871   1.894   1.895   1.931   1.950   2.004
 90 B    91 B    91 A    92 A    92 B    93 A    93 B    94 A                  
  2.011   2.021   2.031   2.041   2.073   2.099   2.102   2.123
 94 B    95 B    95 A    96 B    96 A    97 B    97 A    98 A                  
  2.125   2.126   2.138   2.177   2.224   2.258   2.274   2.282
 98 B    99 B    99 A   100 B   100 A   101 B   101 A   102 A                  
  2.309   2.321   2.332   2.353   2.354   2.392   2.400   2.415
102 B   103 A   104 A   103 B   104 B   105 B   105 A   106 A                  
  2.436   2.469   2.525   2.526   2.534   2.538   2.567   2.575
106 B   107 B   108 B   107 A   109 B   108 A   109 A   110 B                  
  2.593   2.594   2.609   2.625   2.636   2.660   2.699   2.723
111 B   110 A   112 B   111 A   112 A   113 A   113 B   114 A                  
  2.745   2.754   2.765   2.798   2.798   2.826   2.839   2.841
114 B   115 B   115 A   116 A   116 B   117 B   118 B   117 A                  
  2.857   2.879   2.905   2.948   2.970   2.983   2.999   3.024
118 A   119 B   119 A   120 A   121 A   120 B   122 A   121 B                  
  3.032   3.037   3.051   3.065   3.066   3.087   3.098   3.098
123 A   122 B   123 B   124 B   124 A   125 A   126 A   125 B                  
  3.108   3.128   3.135   3.149   3.156   3.166   3.191   3.211
127 A   126 B   127 B   128 A   128 B   129 A   130 A   131 A                  
  3.223   3.244   3.260   3.263   3.284   3.286   3.287   3.307
129 B   130 B   132 A   131 B   133 A   134 A   132 B   133 B                  
  3.308   3.324   3.326   3.335   3.346   3.359   3.362   3.376
135 A   136 A   134 B   135 B   137 A   136 B   138 A   137 B                  
  3.380   3.382   3.386   3.394   3.417   3.450   3.455   3.492
139 A   138 B   140 A   141 A   139 B   140 B   142 A   141 B                  
  3.517   3.527   3.542   3.571   3.574   3.586   3.614   3.616
143 A   142 B   143 B   144 A   145 A   144 B   146 A   145 B                  
  3.642   3.650   3.692   3.695   3.724   3.751   3.759   3.774
146 B   147 A   147 B   148 A   149 A   148 B   149 B   150 A                  
  3.795   3.826   3.828   3.831   3.850   3.872   3.877   3.889
151 A   150 B   152 A   151 B   152 B   153 A   153 B   154 A                  
  3.910   3.937   3.964   3.969   3.979   4.005   4.021   4.023
154 B   155 A   155 B   156 B   156 A   157 A   158 A   157 B                  
  4.047   4.047   4.066   4.097   4.117   4.121   4.134   4.139
158 B   159 A   160 A   161 A   159 B   160 B   162 A   161 B                  
  4.176   4.178   4.212   4.262   4.271   4.317   4.354   4.371
163 A   162 B   164 A   163 B   164 B   165 A   165 B   166 A                  
  4.380   4.409   4.444   4.472   4.483   4.499   4.515   4.544
166 B   167 A   167 B   168 A   168 B   169 A   170 A   169 B                  
  4.559   4.571   4.576   4.579   4.614   4.677   4.678   4.723
171 A   170 B   171 B   172 A   172 B   173 B   173 A   174 B                  
  4.725   4.783   4.840   4.857   4.861   4.885   4.905   4.912
174 A   175 B   175 A   176 B   176 A   177 B   177 A   178 A                  
  4.931   4.979   5.022   5.079   5.088   5.113   5.155   5.237
178 B   179 A   179 B   180 A   180 B   181 B   181 A   182 B                  
  5.240   5.259   5.259   5.341   5.380   5.431   5.466   5.515
182 A   183 A   183 B   184 A   184 B   185 A   186 A   185 B                  
  5.595   5.785   5.809   5.916   5.926   6.021   6.025   6.140
186 B   187 A   187 B   188 B   188 A   189 A   189 B   190 B                  
  6.165   6.385   6.401   6.589   6.592   9.259  10.827  11.779
190 A   191 A   191 B   192 A   192 B   193 A   193 B   194 A                  
 12.592  13.408  13.518  14.653  14.803
194 B   195 A   195 B   196 B   196 A                                          
 
 Beta MOs, Unrestricted
 -- Occupied --                  
-92.161 -92.161 -11.476 -11.475 -11.440 -11.440 -11.426 -11.426
  1 A     1 B     2 A     2 B     3 B     3 A     4 A     4 B                  
-11.411 -11.411  -9.163  -9.163  -6.844  -6.844  -6.844  -6.844
  5 B     5 A     6 A     6 B     7 B     7 A     8 A     8 B                  
 -6.843  -6.843  -1.384  -1.350  -1.221  -1.189  -1.174  -1.106
  9 A     9 B    10 A    10 B    11 A    11 B    12 A    12 B                  
 -0.992  -0.955  -0.912  -0.901  -0.889  -0.819  -0.747  -0.744
 13 A    13 B    14 A    14 B    15 A    15 B    16 B    16 A                  
 -0.740  -0.730  -0.721  -0.688  -0.665  -0.661  -0.643  -0.538
 17 A    17 B    18 A    19 A    18 B    19 B    20 A    20 B                  
 -0.533  -0.515
 21 A    22 A                                                                  
 -- Virtual --                   
 -0.182  -0.059  -0.005   0.005   0.009   0.022   0.030   0.051
 21 B    23 A    22 B    23 B    24 A    25 A    24 B    25 B                  
  0.054   0.061   0.063   0.073   0.074   0.119   0.130   0.164
 26 A    27 A    26 B    27 B    28 A    28 B    29 A    29 B                  
  0.185   0.203   0.206   0.210   0.219   0.239   0.244   0.264
 30 A    31 A    30 B    32 A    31 B    33 A    32 B    33 B                  
  0.285   0.289   0.294   0.299   0.310   0.317   0.317   0.350
 34 A    34 B    35 B    35 A    36 A    36 B    37 A    38 A                  
  0.367   0.376   0.376   0.381   0.386   0.394   0.400   0.408
 37 B    38 B    39 A    40 A    39 B    40 B    41 A    41 B                  
  0.421   0.429   0.435   0.438   0.459   0.462   0.463   0.467
 42 A    42 B    43 A    43 B    44 B    44 A    45 B    45 A                  
  0.473   0.475   0.493   0.499   0.501   0.512   0.514   0.541
 46 B    46 A    47 A    48 A    47 B    49 A    48 B    49 B                  
  0.551   0.615   0.621   0.623   0.634   0.654   0.675   0.675
 50 A    50 B    51 A    52 A    51 B    52 B    53 A    53 B                  
  0.686   0.705   0.714   0.728   0.736   0.745   0.756   0.792
 54 B    55 B    54 A    56 B    55 A    56 A    57 A    57 B                  
  0.803   0.822   0.825   0.845   0.852   0.861   0.865   0.904
 58 A    58 B    59 A    60 A    59 B    61 A    60 B    62 A                  
  0.924   0.934   0.935   0.960   0.960   0.980   0.997   1.000
 61 B    63 A    62 B    64 A    63 B    64 B    65 A    65 B                  
  1.006   1.012   1.033   1.042   1.061   1.078   1.092   1.100
 66 A    66 B    67 B    67 A    68 A    68 B    69 A    69 B                  
  1.113   1.136   1.148   1.170   1.179   1.234   1.240   1.260
 70 A    70 B    71 A    71 B    72 A    73 A    72 B    74 A                  
  1.261   1.277   1.293   1.308   1.318   1.333   1.353   1.367
 73 B    75 A    74 B    76 A    75 B    76 B    77 A    77 B                  
  1.369   1.383   1.395   1.396   1.406   1.427   1.446   1.460
 78 B    78 A    79 A    79 B    80 B    80 A    81 A    81 B                  
  1.484   1.503   1.527   1.543   1.558   1.582   1.606   1.647
 82 A    82 B    83 B    83 A    84 B    84 A    85 A    85 B                  
  1.671   1.675   1.692   1.707   1.718   1.732   1.737   1.741
 86 B    86 A    87 A    87 B    88 A    88 B    89 A    89 B                  
  1.775   1.780   1.809   1.870   1.895   1.895   1.931   1.952
 90 A    90 B    91 B    91 A    92 B    92 A    93 A    93 B                  
  2.005   2.010   2.022   2.032   2.041   2.077   2.109   2.112
 94 A    94 B    95 B    95 A    96 B    96 A    97 A    97 B                  
  2.127   2.127   2.130   2.142   2.182   2.226   2.255   2.274
 98 B    99 B    98 A    99 A   100 B   100 A   101 B   101 A                  
  2.287   2.311   2.323   2.340   2.356   2.371   2.402   2.405
102 A   102 B   103 A   104 A   103 B   104 B   105 B   105 A                  
  2.424   2.441   2.473   2.527   2.528   2.538   2.540   2.572
106 A   106 B   107 B   107 A   108 B   109 B   108 A   109 A                  
  2.582   2.600   2.601   2.615   2.629   2.643   2.663   2.709
110 B   110 A   111 B   112 B   111 A   112 A   113 A   113 B                  
  2.733   2.752   2.759   2.768   2.801   2.805   2.830   2.845
114 A   114 B   115 B   115 A   116 A   116 B   117 B   118 B                  
  2.849   2.863   2.882   2.909   2.954   2.973   2.993   3.003
117 A   118 A   119 B   119 A   120 A   121 A   120 B   122 A                  
  3.030   3.037   3.039   3.056   3.071   3.071   3.093   3.101
121 B   122 B   123 A   123 B   124 B   124 A   125 A   126 A                  
  3.105   3.114   3.133   3.143   3.157   3.161   3.170   3.197
125 B   127 A   126 B   127 B   128 A   128 B   129 A   130 A                  
  3.211   3.225   3.250   3.264   3.264   3.288   3.290   3.292
131 A   129 B   130 B   132 A   131 B   133 A   132 B   134 A                  
  3.312   3.314   3.331   3.333   3.347   3.353   3.363   3.366
133 B   135 A   136 A   134 B   135 B   137 A   138 A   136 B                  
  3.380   3.384   3.384   3.389   3.402   3.421   3.452   3.458
137 B   139 A   138 B   140 A   141 A   139 B   140 B   142 A                  
  3.498   3.522   3.531   3.546   3.574   3.580   3.589   3.617
141 B   143 A   142 B   143 B   144 A   145 A   144 B   146 A                  
  3.621   3.645   3.653   3.695   3.700   3.729   3.751   3.764
145 B   146 B   147 A   147 B   148 A   149 A   148 B   149 B                  
  3.775   3.798   3.829   3.830   3.836   3.853   3.876   3.879
150 A   151 A   150 B   152 A   151 B   152 B   153 A   153 B                  
  3.893   3.912   3.939   3.967   3.972   3.981   4.007   4.023
154 A   154 B   155 A   155 B   156 B   156 A   157 A   158 A                  
  4.025   4.048   4.050   4.068   4.098   4.119   4.122   4.135
157 B   158 B   159 A   160 A   161 A   159 B   160 B   162 A                  
  4.140   4.178   4.181   4.212   4.263   4.273   4.317   4.356
161 B   163 A   162 B   164 A   163 B   164 B   165 A   165 B                  
  4.372   4.381   4.410   4.449   4.474   4.483   4.503   4.516
166 A   166 B   167 A   167 B   168 A   168 B   169 A   170 A                  
  4.546   4.563   4.573   4.577   4.580   4.615   4.678   4.679
169 B   171 A   170 B   171 B   172 A   172 B   173 A   173 B                  
  4.725   4.727   4.786   4.843   4.859   4.863   4.886   4.907
174 B   174 A   175 B   175 A   176 B   176 A   177 B   177 A                  
  4.915   4.932   4.980   5.023   5.085   5.089   5.119   5.156
178 A   178 B   179 A   179 B   180 A   180 B   181 B   181 A                  
  5.238   5.241   5.260   5.260   5.342   5.382   5.432   5.467
182 B   182 A   183 B   183 A   184 A   184 B   185 A   186 A                  
  5.516   5.595   5.786   5.810   5.917   5.927   6.023   6.026
185 B   186 B   187 A   187 B   188 B   188 A   189 A   189 B                  
  6.139   6.165   6.386   6.402   6.590   6.592   9.261  10.831
190 B   190 A   191 A   191 B   192 A   192 B   193 A   193 B                  
 11.783  12.597  13.410  13.518  14.654  14.805
194 A   194 B   195 A   195 B   196 B   196 A                                  
 --------------------------------------------------------------
 
          Ground-State Mulliken Net Atomic Charges

     Atom                 Charge (a.u.)    Spin (a.u.)
  --------------------------------------------------------
      1 S                     0.253160      -0.018604
      2 C                    -0.113359      -0.000880
      3 C                    -0.163580       0.411804
      4 C                    -0.143877      -0.216005
      5 C                    -0.002121       0.326405
      6 H                     0.203510       0.019042
      7 C                    -0.002121       0.326405
      8 S                     0.253160      -0.018604
      9 C                    -0.143877      -0.216005
     10 C                    -0.113359      -0.000880
     11 C                    -0.163580       0.411804
     12 H                     0.224846      -0.032311
     13 H                     0.241422       0.010549
     14 H                     0.224846      -0.032311
     15 H                     0.241422       0.010549
     16 H                     0.203510       0.019042
  --------------------------------------------------------
  Sum of atomic charges =     1.000000
  Sum of spin   charges =     1.000000

 -----------------------------------------------------------------
                    Cartesian Multipole Moments
 -----------------------------------------------------------------
    Charge (ESU x 10^10)
                 4.8032
    Dipole Moment (Debye)
         X       0.0000      Y      -0.0000      Z       0.5468
       Tot       0.5468
    Quadrupole Moments (Debye-Ang)
        XX     -22.1056     XY       1.5841     YY     -56.6338
        XZ      -0.0000     YZ       0.0000     ZZ     -72.7181
    Octopole Moments (Debye-Ang^2)
       XXX       0.0000    XXY      -0.0000    XYY       0.0000
       YYY       0.0000    XXZ       3.2999    XYZ       7.9785
       YYZ       4.5852    XZZ       0.0000    YZZ      -0.0000
       ZZZ      -4.6482
    Hexadecapole Moments (Debye-Ang^3)
      XXXX   -1267.6016   XXXY      -0.1850   XXYY    -338.8783
      XYYY      27.9948   YYYY    -482.4379   XXXZ       0.0000
[...]

                       Coordinates (Angstroms)
     ATOM                X               Y               Z
      1  S         1.8233761525   -1.1937072287   -0.2183732142
      2  C         3.1013744474   -0.1702271039    0.0456401263
      3  C         2.7323392545    1.1439308990    0.2833170049
      4  C         1.3758419280    1.3054019004    0.2318217301
      5  C         0.6888107695    0.1257712600   -0.0460519593
      6  H         0.8757502249    2.2423425398    0.4052322104
      7  C        -0.6888107695   -0.1257712600   -0.0460519593
      8  S        -1.8233761525    1.1937072287   -0.2183732142
      9  C        -1.3758419280   -1.3054019004    0.2318217301
     10  C        -3.1013744474    0.1702271039    0.0456401263
     11  C        -2.7323392545   -1.1439308990    0.2833170049
     12  H        -3.4428242375   -1.9208326359    0.4925762702
     13  H         4.1076824295   -0.5471838895    0.0130203234
     14  H         3.4428242375    1.9208326359    0.4925762702
     15  H        -4.1076824295    0.5471838895    0.0130203234
     16  H        -0.8757502249   -2.2423425398    0.4052322104

Z-matrix Print:
$molecule
1 2
S 
C  1 1.658461
H  2 1.075089 1 120.005317
C  2 1.385528 1 114.041502 3 -179.406739 0
H  4 1.073385 2 122.932222 1 -178.632068 0
C  4 1.367044 2 111.707330 1 0.645973 0
H  6 1.076114 4 123.911075 2 -178.835114 0
C  6 1.393109 4 113.381768 2 0.081330 0
C  8 1.400398 6 129.586307 4 -172.954174 0
C  9 1.393109 8 129.586307 6 150.000000 0
H  10 1.076114 9 122.697883 8 5.977242 0
C  10 1.367044 9 113.381768 8 -172.954174 0
H  12 1.073385 10 125.356099 9 179.338352 0
C  12 1.385528 10 111.707330 9 0.081330 0
H  14 1.075089 12 125.950180 10 -178.719394 0
S  14 1.658461 12 114.041502 10 0.645973 0
$end

 
 --------------------------------------------------------------
             Orbital Energies (a.u.) and Symmetries
 --------------------------------------------------------------
 
 Alpha MOs, Unrestricted
 -- Occupied --                  
-92.160 -92.160 -11.476 -11.475 -11.452 -11.452 -11.434 -11.434
  1 A     1 B     2 A     2 B     3 B     3 A     4 B     4 A                  
-11.405 -11.405  -9.162  -9.162  -6.843  -6.843  -6.842  -6.842
  5 B     5 A     6 A     6 B     7 B     7 A     8 A     8 B                  
 -6.840  -6.840  -1.395  -1.365  -1.232  -1.198  -1.178  -1.130
  9 B     9 A    10 A    10 B    11 A    11 B    12 A    12 B                  
 -1.000  -0.964  -0.924  -0.905  -0.890  -0.823  -0.753  -0.750
 13 A    13 B    14 A    14 B    15 A    15 B    16 A    16 B                  
 -0.748  -0.742  -0.734  -0.711  -0.695  -0.665  -0.642  -0.582
 17 A    18 A    17 B    18 B    19 A    19 B    20 A    21 A                  
 -0.541  -0.520  -0.477
 20 B    22 A    21 B                                                          
 -- Virtual --                   
 -0.126  -0.029  -0.001   0.005   0.020   0.030   0.037   0.047
 23 A    22 B    23 B    24 A    25 A    24 B    26 A    25 B                  
  0.049   0.053   0.066   0.071   0.116   0.131   0.161   0.184
 26 B    27 A    27 B    28 A    28 B    29 A    29 B    30 A                  
  0.200   0.203   0.208   0.217   0.234   0.242   0.259   0.279
 31 A    30 B    32 A    31 B    33 A    32 B    33 B    34 B                  
  0.282   0.290   0.291   0.298   0.313   0.319   0.342   0.358
 34 A    35 B    35 A    36 A    36 B    37 A    38 A    37 B                  
  0.367   0.369   0.370   0.373   0.386   0.391   0.392   0.416
 38 B    39 A    39 B    40 A    40 B    41 B    41 A    42 A                  
  0.418   0.434   0.434   0.451   0.454   0.455   0.466   0.470
 42 B    43 B    43 A    44 A    44 B    45 B    45 A    46 B                  
  0.471   0.488   0.496   0.498   0.506   0.512   0.536   0.548
 46 A    47 A    48 A    47 B    49 A    48 B    49 B    50 A                  
  0.614   0.616   0.623   0.632   0.651   0.672   0.673   0.684
 50 B    51 A    52 A    51 B    52 B    53 B    53 A    54 B                  
  0.702   0.710   0.722   0.728   0.735   0.755   0.788   0.794
 55 B    54 A    56 B    55 A    56 A    57 A    57 B    58 A                  
  0.821   0.825   0.841   0.847   0.860   0.861   0.900   0.921
 58 B    59 A    60 A    59 B    61 A    60 B    62 A    61 B                  
  0.925   0.933   0.947   0.954   0.978   0.997   0.998   1.002
 63 A    62 B    63 B    64 A    64 B    65 A    65 B    66 A                  
  1.008   1.026   1.036   1.061   1.078   1.091   1.096   1.108
 66 B    67 B    67 A    68 A    68 B    69 A    69 B    70 A                  
  1.135   1.142   1.166   1.174   1.225   1.228   1.254   1.258
 70 B    71 A    71 B    72 A    73 A    72 B    73 B    74 A                  
  1.271   1.284   1.304   1.313   1.332   1.344   1.364   1.368
 75 A    74 B    76 A    75 B    76 B    77 A    77 B    78 B                  
  1.381   1.391   1.395   1.403   1.427   1.440   1.457   1.481
 78 A    79 A    79 B    80 B    80 A    81 A    81 B    82 A                  
  1.499   1.524   1.536   1.554   1.581   1.607   1.647   1.667
 82 B    83 B    83 A    84 B    84 A    85 A    85 B    86 B                  
  1.678   1.691   1.705   1.717   1.734   1.735   1.738   1.772
 86 A    87 A    87 B    88 A    88 B    89 A    89 B    90 A                  
  1.780   1.807   1.871   1.894   1.897   1.932   1.948   2.006
 90 B    91 B    91 A    92 A    92 B    93 A    93 B    94 A                  
  2.011   2.022   2.031   2.041   2.073   2.098   2.103   2.122
 94 B    95 B    95 A    96 B    96 A    97 B    97 A    98 A                  
  2.124   2.128   2.140   2.173   2.224   2.257   2.273   2.283
 98 B    99 B    99 A   100 B   100 A   101 B   101 A   102 A                  
  2.306   2.320   2.330   2.352   2.356   2.391   2.399   2.415
102 B   103 A   104 A   103 B   104 B   105 B   105 A   106 A                  
  2.435   2.469   2.521   2.525   2.533   2.536   2.565   2.576
106 B   107 B   107 A   108 B   109 B   108 A   109 A   110 B                  
  2.593   2.594   2.609   2.625   2.640   2.664   2.698   2.724
110 A   111 B   112 B   111 A   112 A   113 A   113 B   114 A                  
  2.747   2.756   2.764   2.797   2.799   2.827   2.838   2.846
114 B   115 B   115 A   116 B   116 A   117 B   118 B   117 A                  
  2.857   2.879   2.902   2.947   2.971   2.982   2.999   3.024
118 A   119 B   119 A   120 A   121 A   120 B   122 A   121 B                  
  3.030   3.035   3.050   3.066   3.067   3.086   3.098   3.098
123 A   122 B   123 B   124 B   124 A   125 A   126 A   125 B                  
  3.108   3.122   3.137   3.148   3.159   3.166   3.188   3.210
127 A   126 B   127 B   128 A   128 B   129 A   130 A   131 A                  
  3.225   3.244   3.262   3.262   3.282   3.286   3.292   3.306
129 B   130 B   132 A   131 B   133 A   134 A   132 B   133 B                  
  3.308   3.325   3.327   3.333   3.346   3.358   3.362   3.375
135 A   136 A   134 B   135 B   137 A   136 B   138 A   137 B                  
  3.380   3.382   3.383   3.392   3.418   3.445   3.455   3.491
139 A   138 B   140 A   141 A   139 B   140 B   142 A   141 B                  
  3.515   3.526   3.541   3.570   3.575   3.584   3.612   3.612
143 A   142 B   143 B   144 A   145 A   144 B   145 B   146 A                  
  3.639   3.648   3.690   3.696   3.726   3.753   3.759   3.776
146 B   147 A   147 B   148 A   149 A   148 B   149 B   150 A                  
  3.794   3.825   3.828   3.831   3.853   3.872   3.876   3.889
151 A   150 B   152 A   151 B   152 B   153 A   153 B   154 A                  
  3.908   3.935   3.962   3.968   3.978   4.006   4.018   4.026
154 B   155 A   155 B   156 B   156 A   157 A   158 A   157 B                  
  4.047   4.047   4.068   4.097   4.117   4.122   4.134   4.137
159 A   158 B   160 A   161 A   159 B   160 B   162 A   161 B                  
  4.174   4.177   4.213   4.261   4.270   4.319   4.353   4.370
163 A   162 B   164 A   163 B   164 B   165 A   165 B   166 A                  
  4.380   4.408   4.446   4.472   4.484   4.498   4.516   4.546
166 B   167 A   167 B   168 A   168 B   169 A   170 A   169 B                  
  4.557   4.574   4.579   4.581   4.611   4.675   4.679   4.724
171 A   170 B   171 B   172 A   172 B   173 B   173 A   174 B                  
  4.726   4.780   4.838   4.860   4.861   4.885   4.904   4.914
174 A   175 B   175 A   176 B   176 A   177 B   177 A   178 A                  
  4.935   4.980   5.021   5.080   5.087   5.114   5.155   5.237
178 B   179 A   179 B   180 A   180 B   181 B   181 A   182 B                  
  5.241   5.259   5.259   5.340   5.381   5.431   5.465   5.511
182 A   183 A   183 B   184 A   184 B   185 A   186 A   185 B                  
  5.597   5.782   5.806   5.917   5.928   6.020   6.023   6.138
186 B   187 A   187 B   188 B   188 A   189 A   189 B   190 B                  
  6.163   6.383   6.398   6.588   6.590   9.238  10.824  11.776
190 A   191 A   191 B   192 A   192 B   193 A   193 B   194 A                  
 12.618  13.411  13.539  14.648  14.801
194 B   195 A   195 B   196 B   196 A                                          
 
 Beta MOs, Unrestricted
 -- Occupied --                  
-92.161 -92.161 -11.476 -11.475 -11.440 -11.440 -11.427 -11.427
  1 A     1 B     2 A     2 B     3 B     3 A     4 A     4 B                  
-11.411 -11.411  -9.163  -9.163  -6.844  -6.844  -6.844  -6.844
  5 B     5 A     6 A     6 B     7 B     7 A     8 A     8 B                  
 -6.843  -6.843  -1.384  -1.350  -1.222  -1.189  -1.174  -1.106
  9 A     9 B    10 A    10 B    11 A    11 B    12 A    12 B                  
 -0.993  -0.955  -0.912  -0.901  -0.889  -0.819  -0.747  -0.745
 13 A    13 B    14 A    14 B    15 A    15 B    16 B    16 A                  
 -0.740  -0.730  -0.721  -0.688  -0.665  -0.661  -0.642  -0.538
 17 A    17 B    18 A    19 A    18 B    19 B    20 A    20 B                  
 -0.533  -0.516
 21 A    22 A                                                                  
 -- Virtual --                   
 -0.181  -0.059  -0.004   0.005   0.010   0.022   0.030   0.051
 21 B    23 A    22 B    23 B    24 A    25 A    24 B    25 B                  
  0.054   0.061   0.063   0.073   0.073   0.119   0.131   0.163
 26 A    27 A    26 B    27 B    28 A    28 B    29 A    29 B                  
  0.186   0.203   0.207   0.211   0.219   0.238   0.244   0.263
 30 A    31 A    30 B    32 A    31 B    33 A    32 B    33 B                  
  0.285   0.289   0.293   0.299   0.309   0.315   0.318   0.349
 34 A    34 B    35 B    35 A    36 A    36 B    37 A    38 A                  
  0.368   0.375   0.375   0.381   0.384   0.395   0.400   0.408
 37 B    38 B    39 A    40 A    39 B    40 B    41 A    41 B                  
  0.422   0.431   0.435   0.439   0.459   0.462   0.462   0.468
 42 A    42 B    43 A    43 B    44 B    45 B    44 A    45 A                  
  0.474   0.475   0.491   0.500   0.500   0.512   0.514   0.542
 46 B    46 A    47 A    48 A    47 B    49 A    48 B    49 B                  
  0.552   0.616   0.620   0.624   0.635   0.653   0.675   0.676
 50 A    50 B    51 A    52 A    51 B    52 B    53 B    53 A                  
  0.690   0.706   0.715   0.726   0.735   0.743   0.758   0.789
 54 B    55 B    54 A    56 B    55 A    56 A    57 A    57 B                  
  0.800   0.823   0.828   0.844   0.849   0.862   0.865   0.905
 58 A    58 B    59 A    60 A    59 B    61 A    60 B    62 A                  
  0.924   0.932   0.936   0.957   0.960   0.979   1.000   1.000
 61 B    63 A    62 B    63 B    64 A    64 B    65 A    65 B                  
  1.005   1.012   1.030   1.042   1.062   1.078   1.092   1.102
 66 A    66 B    67 B    67 A    68 A    68 B    69 A    69 B                  
  1.109   1.137   1.148   1.169   1.180   1.231   1.240   1.260
 70 A    70 B    71 A    71 B    72 A    73 A    72 B    74 A                  
  1.260   1.277   1.292   1.309   1.317   1.334   1.353   1.368
 73 B    75 A    74 B    76 A    75 B    76 B    77 A    77 B                  
  1.369   1.382   1.395   1.396   1.405   1.427   1.446   1.460
 78 B    78 A    79 A    79 B    80 B    80 A    81 A    81 B                  
  1.485   1.503   1.527   1.541   1.557   1.585   1.607   1.649
 82 A    82 B    83 B    83 A    84 B    84 A    85 A    85 B                  
  1.668   1.676   1.691   1.708   1.716   1.734   1.734   1.740
 86 B    86 A    87 A    87 B    88 A    88 B    89 A    89 B                  
  1.776   1.780   1.808   1.870   1.895   1.897   1.933   1.949
 90 A    90 B    91 B    91 A    92 A    92 B    93 A    93 B                  
  2.007   2.009   2.022   2.032   2.041   2.078   2.108   2.111
 94 A    94 B    95 B    95 A    96 B    96 A    97 A    97 B                  
  2.126   2.129   2.129   2.144   2.179   2.226   2.255   2.273
 98 B    99 B    98 A    99 A   100 B   100 A   101 B   101 A                  
  2.288   2.309   2.324   2.337   2.356   2.373   2.400   2.404
102 A   102 B   103 A   104 A   103 B   104 B   105 B   105 A                  
  2.424   2.440   2.473   2.522   2.528   2.537   2.538   2.570
106 A   106 B   107 B   107 A   108 B   109 B   108 A   109 A                  
  2.582   2.600   2.602   2.614   2.629   2.646   2.667   2.708
110 B   110 A   111 B   112 B   111 A   112 A   113 A   113 B                  
  2.733   2.755   2.760   2.767   2.802   2.804   2.831   2.844
114 A   114 B   115 B   115 A   116 A   116 B   117 B   118 B                  
  2.854   2.863   2.881   2.906   2.953   2.975   2.992   3.003
117 A   118 A   119 B   119 A   120 A   121 A   120 B   122 A                  
  3.029   3.035   3.037   3.056   3.072   3.072   3.092   3.101
121 B   122 B   123 A   123 B   124 A   124 B   125 A   126 A                  
  3.105   3.114   3.130   3.142   3.156   3.164   3.170   3.195
125 B   127 A   126 B   127 B   128 A   128 B   129 A   130 A                  
  3.210   3.227   3.250   3.264   3.266   3.289   3.291   3.295
131 A   129 B   130 B   131 B   132 A   133 A   134 A   132 B                  
  3.311   3.313   3.333   3.334   3.346   3.353   3.364   3.365
133 B   135 A   136 A   134 B   135 B   137 A   136 B   138 A                  
  3.379   3.384   3.385   3.387   3.399   3.423   3.448   3.457
137 B   139 A   138 B   140 A   141 A   139 B   140 B   142 A                  
  3.497   3.520   3.529   3.545   3.573   3.581   3.587   3.616
141 B   143 A   142 B   143 B   144 A   145 A   144 B   146 A                  
  3.618   3.643   3.651   3.693   3.700   3.732   3.753   3.763
145 B   146 B   147 A   147 B   148 A   149 A   148 B   149 B                  
  3.777   3.797   3.828   3.831   3.835   3.856   3.876   3.878
150 A   151 A   150 B   152 A   151 B   152 B   153 A   153 B                  
  3.893   3.910   3.937   3.965   3.971   3.981   4.008   4.020
154 A   154 B   155 A   155 B   156 B   156 A   157 A   158 A                  
  4.028   4.049   4.050   4.070   4.098   4.118   4.124   4.135
157 B   158 B   159 A   160 A   161 A   159 B   160 B   162 A                  
  4.137   4.176   4.180   4.214   4.262   4.272   4.319   4.355
161 B   163 A   162 B   164 A   163 B   164 B   165 A   165 B                  
  4.372   4.381   4.409   4.451   4.474   4.484   4.501   4.517
166 A   166 B   167 A   167 B   168 A   168 B   169 A   170 A                  
  4.548   4.560   4.575   4.581   4.582   4.613   4.677   4.680
169 B   171 A   170 B   171 B   172 A   172 B   173 B   173 A                  
  4.726   4.727   4.783   4.841   4.862   4.863   4.886   4.906
174 B   174 A   175 B   175 A   176 B   176 A   177 B   177 A                  
  4.916   4.936   4.982   5.022   5.087   5.088   5.120   5.156
178 A   178 B   179 A   179 B   180 A   180 B   181 B   181 A                  
  5.238   5.242   5.260   5.261   5.341   5.382   5.432   5.467
182 B   182 A   183 B   183 A   184 A   184 B   185 A   186 A                  
  5.512   5.598   5.783   5.807   5.918   5.929   6.022   6.024
185 B   186 B   187 A   187 B   188 B   188 A   189 A   189 B                  
  6.138   6.163   6.384   6.399   6.589   6.591   9.240  10.828
190 B   190 A   191 A   191 B   192 A   192 B   193 A   193 B                  
 11.780  12.624  13.414  13.539  14.649  14.803
194 A   194 B   195 A   195 B   196 B   196 A                                  
 --------------------------------------------------------------
 
          Ground-State Mulliken Net Atomic Charges

     Atom                 Charge (a.u.)    Spin (a.u.)
  --------------------------------------------------------
      1 S                     0.250756      -0.018826
      2 C                    -0.112475       0.002101
      3 C                    -0.164609       0.406169
      4 C                    -0.141583      -0.210461
      5 C                    -0.001436       0.323924
      6 H                     0.202953       0.018810
      7 C                    -0.001436       0.323924
      8 S                     0.250756      -0.018826
      9 C                    -0.141583      -0.210461
     10 C                    -0.112475       0.002101
     11 C                    -0.164609       0.406169
     12 H                     0.224864      -0.032042
     13 H                     0.241531       0.010326
     14 H                     0.224864      -0.032042
     15 H                     0.241531       0.010326
     16 H                     0.202953       0.018810
  --------------------------------------------------------
  Sum of atomic charges =     1.000000
  Sum of spin   charges =     1.000000

 -----------------------------------------------------------------
                    Cartesian Multipole Moments
 -----------------------------------------------------------------
    Charge (ESU x 10^10)
                 4.8032
    Dipole Moment (Debye)
         X       0.0000      Y      -0.0000      Z       0.6110
       Tot       0.6110
    Quadrupole Moments (Debye-Ang)
        XX     -22.1336     XY       1.5366     YY     -56.5385
        XZ       0.0000     YZ       0.0000     ZZ     -72.8117
    Octopole Moments (Debye-Ang^2)
       XXX       0.0000    XXY      -0.0000    XYY       0.0000
       YYY      -0.0000    XXZ       5.7751    XYZ       7.4724
       YYZ       4.1573    XZZ       0.0000    YZZ       0.0000
       ZZZ      -4.6852
    Hexadecapole Moments (Debye-Ang^3)
      XXXX   -1268.1222   XXXY      -0.9897   XXYY    -338.8767
      XYYY      29.5955   YYYY    -483.5416   XXXZ      -0.0000
      XXYZ       0.0000   XYYZ       0.0000   YYYZ       0.0000
      XXZZ    -362.7788   XYZZ      -2.8162   YYZZ    -109.5234
      XZZZ       0.0000   YZZZ       0.0000   ZZZZ    -105.3648
 -----------------------------------------------------------------
Archival summary:
1\1\nid01579\OPT\MP2\BasisUnspecified\286(1+,2)\TueMar710:15:172017TueMar710:15:172017\0\\#,OPT,MP2,BasisUnspecified,\\1,2\S\C,1,1.65846\H,2,1.07509,1,120.005\C,2,1.38553,1,114.042,3,-179.407,0\H,4,1.07338,2,122.932,1,-178.632,0\C,4,1.36704,2,111.707,1,0.645973,0\H,6,1.07611,4,123.911,2,-178.835,0\C,6,1.39311,4,113.382,2,0.0813297,0\C,8,1.4004,6,129.586,4,-172.954,0\C,9,1.39311,8,129.586,6,150,0\H,10,1.07611,9,122.698,8,5.97724,0\C,10,1.36704,9,113.382,8,-172.954,0\H,12,1.07338,10,125.356,9,179.338,0\C,12,1.38553,10,111.707,9,0.0813297,0\H,14,1.07509,12,125.95,10,-178.719,0\S,14,1.65846,12,114.042,10,0.645973,0\\HF=-1101.36355\MP2=-1103.10773\\@

 Total job time:  18532.38s(wall), 90779.19s(cpu) 
 Tue Mar  7 10:15:17 2017

        *************************************************************
        *                                                           *
        *  Thank you very much for using Q-Chem.  Have a nice day.  *
        *                                                           *
        *************************************************************


0 sent ACK to 0 
now end server 0 ... 
