srun -N 1 --ntasks-per-node 1 --cpus-per-task 64 --cpu_bind=cores --nodelist nid01564 /global/project/projectdirs/jcesr/qchem/qc44/cnl_qc441/dist/exe/qcprog.cori.haswell.exe .pt_mp2_hole_-80.0.in.60852.qcin.1 /dev/shm/eg_qchem/qchem60852/
Process 0 of 1 is on nid01564 - thread support 0
initial socket setup ...start
initial socket setup ...done 
now start server 0 ... 
nid01564 10.128.6
Q-Chem Developer Version! Running on 10.128.6.*
                  Welcome to Q-Chem
     A Quantum Leap Into The Future Of Chemistry


 Q-Chem 4.4, Q-Chem, Inc., Pleasanton, CA (2016)

 Y. Shao,  Z. Gan,  E. Epifanovsky,  A. T. B. Gilbert,  M. Wormit,  
 J. Kussmann,  A. W. Lange,  A. Behn,  J. Deng,  X. Feng,  D. Ghosh,  
 M. Goldey,  P. R. Horn,  L. D. Jacobson,  I. Kaliman,  F.Rob,  
 R. Z. Khaliullin,  T. Kus,  A. Landau,  J. Liu,  E. I. Proynov,  Y. M. Rhee,  
 R. M. Richard,  M. A. Rohrdanz,  R. P. Steele,  E. J. Sundstrom,  
 H. L. Woodcock III,  P. M. Zimmerman,  D. Zuev,  B. Albrecht,  E. Alguire,  
 B. Austin,  S. A. Baeppler,  G. J. O. Beran,  Y. A. Bernard,  E. Berquist,  
 K. Brandhorst,  K. B. Bravaya,  S. T. Brown,  D. Casanova,  C.-M. Chang,  
 Y. Chen,  S. H. Chien,  K. D. Closser,  M. P. Coons,  D. L. Crittenden,  
 S. Dasgupta,  M. Diedenhofen,  R. A. DiStasio Jr.,  H. Do,  A. D. Dutoi,  
 R. G. Edgar,  P.-T. Fang,  S. Fatehi,  Q. Feng,  L. Fusti-Molnar,  
 A. Ghysels,  A. Golubeva-Zadorozhnaya,  J. Gomes,  A. Gunina,  
 M. W. D. Hanson-Heine,  P. H. P. Harbach,  A. W. Hauser,  E. G. Hohenstein,  
 Z. C. Holden,  K. Hui,  T.-C. Jagau,  H. Ji,  B. Kaduk,  K. Khistyaev,  
 Jaehoon Kim,  Jihan Kim,  R. A. King,  P. Klunzinger,  D. Kosenkov,  
 T. Kowalczyk,  C. M. Krauter,  A. Kunitsa,  K. U. Lao,  A. Laurent,  
 K. V. Lawler,  D. Lefrancois,  S. Lehtola,  S. V. Levchenko,  C. Y. Lin,  
 Y.-S. Lin,  F. Liu,  E. Livshits,  R. C. Lochan,  A. Luenser,  P. Manohar,  
 S. F. Manzer,  S.-P. Mao,  Y. Mao,  N. Mardirossian,  A. V. Marenich,  
 L. A. Martinez-Martinez,  S. A. Maurer,  N. J. Mayhall,  J.-M. Mewes,  
 A. F. Morrison,  K. Nanda,  C. M. Oana,  R. Olivares-Amaya,  D. P. O'Neill,  
 J. A. Parkhill,  T. M. Perrine,  R. Peverati,  P. A. Pieniazek,  F. Plasser,  
 A. Prociuk,  D. R. Rehn,  E. Rosta,  N. J. Russ,  N. Sergueev,  
 S. M. Sharada,  S. Sharma,  D. W. Small,  A. Sodt,  T. Stauch,  T. Stein,  
 D. Stuck,  Y.-C. Su,  A. J. W. Thom,  T. Tsuchimochi,  L. Vogt,  O. Vydrov,  
 T. Wang,  M. A. Watson,  J. Wenzel,  A. White,  C. F. Williams,  
 V. Vanovschi,  S. Yeganeh,  S. R. Yost,  Z.-Q. You,  I. Y. Zhang,  X. Zhang,  
 Y. Zhao,  B. R. Brooks,  G. K. L. Chan,  D. M. Chipman,  C. J. Cramer,  
 W. A. Goddard III,  M. S. Gordon,  W. J. Hehre,  A. Klamt,  
 H. F. Schaefer III,  M. W. Schmidt,  C. D. Sherrill,  D. G. Truhlar,  
 A. Warshel,  X. Xu,  A. Aspuru-Guzik,  R. Baer,  A. T. Bell,  N. A. Besley,  
 J.-D. Chai,  A. Dreuw,  B. D. Dunietz,  T. R. Furlani,  S. R. Gwaltney,  
 C.-P. Hsu,  Y. Jung,  J. Kong,  D. S. Lambrecht,  W. Liang,  C. Ochsenfeld,  
 V. A. Rassolov,  L. V. Slipchenko,  J. E. Subotnik,  T. Van Voorhis,  
 J. M. Herbert,  A. I. Krylov,  P. M. W. Gill,  M. Head-Gordon

 Contributors to earlier versions of Q-Chem not listed above: 
 R. D. Adamson,  J. Baker,  E. F. C. Byrd,  A. K. Chakraborty,  C.-L. Cheng,  
 H. Dachsel,  R. J. Doerksen,  G. Hawkins,  A. Heyden,  S. Hirata,  
 G. Kedziora,  F. J. Keil,  C. Kelley,  P. P. Korambath,  W. Kurlancheek,  
 A. M. Lee,  M. S. Lee,  D. Liotard,  I. Lotan,  P. E. Maslen,  N. Nair,  
 D. Neuhauser,  R. Olson,  B. Peters,  J. Ritchie,  N. E. Schultz,  
 N. Shenvi,  A. C. Simmonett,  K. S. Thanthiriwatte,  Q. Wu,  W. Zhang

 Please cite Q-Chem as follows:
 Y. Shao et al., Mol. Phys. 113, 184-215 (2015)
 DOI: 10.1080/00268976.2014.952696

 Q-Chem 4.4.1 for Intel X86 EM64T Linux

 Parts of Q-Chem use Armadillo 5.200.1 (Boston Tea Smuggler).
 http://arma.sourceforge.net/

 Q-Chem begins on Tue Mar  7 05:06:26 2017  

Host: nid01545
0

     Scratch files written to /dev/shm/eg_qchem/qchem60852//
 Parallel job on  1  processors

Checking the input file for inconsistencies... 	...done.

--------------------------------------------------------------
User input:
--------------------------------------------------------------
$molecule
 1  2
 S           1.81042700       -1.22909900       -0.13996800
 C           3.10211600       -0.18861200       -0.13982200
 C           2.74845300        1.15163900       -0.14006900
 C           1.39169900        1.31613900       -0.14029100
 C           0.68906700        0.11310500       -0.14015500
 H           0.90454800        2.27578700       -0.14040700
 C          -0.68906700       -0.11310500       -0.14015500
 S          -1.52408203       -0.51539392       -1.62335202
 C          -1.59576392       -0.07291899        0.91685415
 C          -2.97124021       -0.60871959       -0.81830717
 C          -2.87990251       -0.35081215        0.54054952
 H          -3.72923909       -0.37258723        1.19656059
 H           4.10439600       -0.57731800       -0.13934700
 H           3.47107900        1.94537000       -0.13983300
 H          -3.86979433       -0.85194039       -1.35598915
 H          -1.30365741        0.15569810        1.92712560
$end


$rem
         jobtype = opt
        exchange = hf
           basis = cc-pvtz
  max_scf_cycles = 100
      mem_static = 6200
       mem_total = 62000
          method = mp2
$end


$opt
CONSTRAINT
tors 4 5 7 9 -80.0
ENDCONSTRAINT
$end

--------------------------------------------------------------
 Atom   8: ( -1.6721866613, -0.8130068622,  0.8791054620)
         ->( -1.6721866598, -0.8130068684,  0.8791054546)
 Atom  11: ( -2.8434236164,  0.7174181596, -0.8042867843)
         ->( -2.8434236208,  0.7174181641, -0.8042867793)
 Atom   9: ( -1.5138265472,  0.8374499078, -1.0968713262)
         ->( -1.5138265452,  0.8374499157, -1.0968713158)
 Atom  16: ( -1.1274056762,  1.4629990437, -1.8827514562)
         ->( -1.1274056764,  1.4629990583, -1.8827514444)
 Atom  14: (  3.6406324849, -1.2233800085, -1.3148334773)
         ->(  3.6406324873, -1.2233800022, -1.3148334857)
 ----------------------------------------------------------------
             Standard Nuclear Orientation (Angstroms)
    I     Atom           X                Y                Z
 ----------------------------------------------------------------
    1      S       1.6721866598     0.8130068684     0.8791054546
    2      C       3.0589538170     0.1530476586     0.2526835646
    3      C       2.8434236208    -0.7174181641    -0.8042867793
    4      C       1.5138265452    -0.8374499157    -1.0968713158
    5      C       0.6951331495    -0.0663021684    -0.2746457829
    6      H       1.1274056764    -1.4629990583    -1.8827514444
    7      C      -0.6951331473     0.0663021675    -0.2746457835
    8      S      -1.6721866598    -0.8130068684     0.8791054546
    9      C      -1.5138265452     0.8374499157    -1.0968713158
   10      C      -3.0589538174    -0.1530476588     0.2526835645
   11      C      -2.8434236208     0.7174181641    -0.8042867793
   12      H      -3.6406324873     1.2233800022    -1.3148334857
   13      H       4.0142022658     0.4147492253     0.6706195280
   14      H       3.6406324873    -1.2233800022    -1.3148334857
   15      H      -4.0142022658    -0.4147492216     0.6706195279
   16      H      -1.1274056764     1.4629990583    -1.8827514444
 ----------------------------------------------------------------
 Molecular Point Group                 C2    NOp =  2
 Largest Abelian Subgroup              C2    NOp =  2
 Nuclear Repulsion Energy =   639.7252598468 hartrees
 There are       43 alpha and       42 beta electrons
 Requested basis set is cc-pVTZ
 There are 140 shells and 392 basis functions

 Total QAlloc Memory Limit  62000 MB
 Mega-Array Size      6061 MB
 MEM_STATIC part      6200 MB
 A cutoff of  1.0D-11 yielded   8070 shell pairs
 There are     62874 function pairs (     81956 Cartesian)
 
 -------------------------------------------------------
 OpenMP Integral Computing Module                       
 Release: version 1.0, May 2013, Q-Chem Inc. Pittsburgh 
 -------------------------------------------------------
 Integral Job Info:
 Integral job number is                      11
 Integral operator is                         1
 short-range coefficients                     0
 long-range coefficients              100000000
 Omega coefficients                           0
 if combine SR and LR in K                    0
 Integral screening is                        0
 Integral computing path is                   2
 max size of driver memory is            800000
 size of driver memory is                776718
 size of scratch memory is             26248924
 max col of scratch BK array              10000
 max len of scratch array in speh3          662
 max len of scratch index in speh4           32
 max int batch size is                      520
 min int batch size is                       52
 fixed nKL is                                52
 max L of basis functions is                  3
 order of int derivative is                   0
 number of shells is                        140
 number of basis is                         448
 number of cartesian basis is               448
 number of contracted shell pairs          8070
 number of primitive shell pairs          28670
 maxK2 (contraction) of shell pair          121
 max number of K2 of shell pair               1
 max number of CS2 of shell pair           1066
 max number of PS2 of shell pair           3108
 mem total for path MDJ                  225820
 -------------------------------------------------------
 Smallest overlap matrix eigenvalue = 8.05E-05

 Scale SEOQF with 1.000000e-01/1.000000e-01/1.000000e-01

 Standard Electronic Orientation quadrupole field applied
 Nucleus-field energy     =     0.0000000107 hartrees
 Guess from superposition of atomic densities
 Warning:  Energy on first SCF cycle will be non-variational
 An unrestricted Hartree-Fock SCF calculation will be
 performed using Pulay DIIS extrapolation
 SCF converges when DIIS error is below 1.0E-08
 using 16 threads for integral computing 
 ---------------------------------------
  Cycle       Energy         DIIS Error
 ---------------------------------------
    1   -1106.1276755813      3.04E-02
    2   -1081.3313619875      2.38E-02
    3   -1091.0345033776      1.45E-02
    4   -1092.4385671056      1.08E-02
    5   -1096.0545563781      7.58E-03
    6   -1101.0994260748      2.83E-03
    7   -1101.2929532134      7.54E-04
    8   -1101.3116271694      2.42E-04
    9   -1101.3153238975      1.30E-04
   10   -1101.3167479567      5.25E-05
   11   -1101.3177475407      2.47E-05
   12   -1101.3182055053      1.80E-05
   13   -1101.3185364698      1.11E-05
   14   -1101.3187066440      7.19E-06
   15   -1101.3187685248      5.66E-06
   16   -1101.3188210832      4.40E-06
   17   -1101.3188706042      2.71E-06
   18   -1101.3188982009      1.61E-06
   19   -1101.3189068232      1.07E-06
   20   -1101.3189115509      5.84E-07
   21   -1101.3189122747      2.60E-07
   22   -1101.3189124212      1.05E-07
   23   -1101.3189124404      4.02E-08
   24   -1101.3189124438      1.82E-08
   25   -1101.3189124449      7.86E-09 Convergence criterion met
 ---------------------------------------
 <S^2> = 0.9535
 SCF time:  CPU 1159.93 s  wall 72.57 s
 SCF   energy in the final basis set = -1101.3189124449
 Total energy in the final basis set = -1101.3189124449
 
 Components of the MP2 correlation energy:
        aaaa  correlation energy =        -0.2348040493 au
        abab  correlation energy =        -1.3125234796 au
        bbbb  correlation energy =        -0.2157885637 au
        non-Brillouin singles    =        -0.0000000000 au

 Total  MP2   correlation energy =        -1.7631160926 au
        MP2         total energy =     -1103.0820285375 au

  Entering Z-vector solver.
   1         0           1      0.000524    0.000524
   2         0           1      0.000474    0.000474
   3         0           1      0.000407    0.000407
   4         0           1      0.000400    0.000400
   5         0           1      0.000193    0.000193
   6         0           1      0.000105    0.000105
   7         0           1      0.000058    0.000058
   8         0           1      0.000034    0.000034
   9         0           1      0.000018    0.000018
  10         0           1      0.000009    0.000009
  11         0           1      0.000004    0.000004
  12         0           1      0.000002    0.000002
  13         1           0      0.000000    0.000000    Roots Converged
 Warning:  Cannot save MP2 spin density
 
 --------------------------------------------------------------
             Orbital Energies (a.u.) and Symmetries
 --------------------------------------------------------------
 
 Alpha MOs, Unrestricted
 -- Occupied --                  
-92.162 -92.162 -11.473 -11.472 -11.452 -11.452 -11.430 -11.430
  1 B     1 A     2 A     2 B     3 B     3 A     4 A     4 B                  
-11.404 -11.404  -9.164  -9.164  -6.845  -6.845  -6.844  -6.844
  5 A     5 B     6 B     6 A     7 A     7 B     8 A     8 B                  
 -6.842  -6.842  -1.393  -1.362  -1.233  -1.186  -1.185  -1.129
  9 B     9 A    10 A    10 B    11 A    11 B    12 A    12 B                  
 -1.000  -0.946  -0.942  -0.904  -0.886  -0.823  -0.752  -0.750
 13 A    14 A    13 B    14 B    15 A    15 B    16 A    16 B                  
 -0.747  -0.736  -0.731  -0.701  -0.700  -0.658  -0.657  -0.541
 17 A    17 B    18 A    19 A    18 B    20 A    19 B    21 A                  
 -0.540  -0.508  -0.505
 20 B    21 B    22 A                                                          
 -- Virtual --                   
 -0.091  -0.078   0.004   0.008   0.018   0.021   0.030   0.039
 22 B    23 A    24 A    23 B    25 A    26 A    24 B    25 B                  
  0.048   0.053   0.072   0.081   0.097   0.101   0.157   0.168
 27 A    26 B    28 A    27 B    29 A    28 B    30 A    29 B                  
  0.196   0.200   0.207   0.216   0.232   0.237   0.260   0.263
 30 B    31 A    32 A    31 B    33 A    32 B    33 B    34 A                  
  0.279   0.288   0.291   0.304   0.308   0.309   0.317   0.329
 35 A    36 A    34 B    35 B    37 A    36 B    38 A    37 B                  
  0.351   0.352   0.369   0.378   0.386   0.388   0.409   0.413
 39 A    38 B    39 B    40 A    40 B    41 A    42 A    41 B                  
  0.424   0.432   0.432   0.442   0.454   0.458   0.467   0.467
 43 A    42 B    44 A    43 B    45 A    44 B    46 A    47 A                  
  0.471   0.477   0.493   0.514   0.515   0.526   0.532   0.562
 45 B    46 B    47 B    48 B    48 A    49 A    50 A    49 B                  
  0.584   0.595   0.622   0.626   0.635   0.642   0.685   0.690
 50 B    51 A    52 A    51 B    52 B    53 A    53 B    54 A                  
  0.699   0.703   0.716   0.727   0.738   0.764   0.773   0.782
 54 B    55 A    55 B    56 B    56 A    57 A    57 B    58 B                  
  0.794   0.812   0.841   0.841   0.862   0.874   0.889   0.898
 58 A    59 A    59 B    60 A    61 A    60 B    61 B    62 A                  
  0.930   0.940   0.956   0.957   0.982   0.990   1.008   1.014
 62 B    63 A    64 A    63 B    65 A    64 B    65 B    66 A                  
  1.029   1.037   1.054   1.056   1.073   1.090   1.124   1.130
 67 A    66 B    68 A    67 B    69 A    68 B    70 A    69 B                  
  1.150   1.150   1.161   1.196   1.201   1.223   1.233   1.268
 71 A    70 B    71 B    72 A    72 B    73 A    73 B    74 A                  
  1.269   1.291   1.306   1.330   1.338   1.349   1.365   1.378
 74 B    75 B    75 A    76 A    76 B    77 B    77 A    78 B                  
  1.383   1.392   1.402   1.426   1.429   1.445   1.457   1.480
 79 B    78 A    79 A    80 B    80 A    81 A    81 B    82 A                  
  1.511   1.512   1.521   1.557   1.568   1.587   1.610   1.657
 83 A    82 B    83 B    84 A    84 B    85 B    85 A    86 B                  
  1.661   1.697   1.721   1.721   1.728   1.752   1.756   1.791
 86 A    87 B    88 B    87 A    88 A    89 A    89 B    90 B                  
  1.793   1.849   1.855   1.894   1.904   1.950   1.950   1.980
 90 A    91 A    91 B    92 B    92 A    93 A    93 B    94 B                  
  1.982   2.018   2.028   2.031   2.054   2.068   2.083   2.087
 94 A    95 A    95 B    96 A    96 B    97 A    97 B    98 A                  
  2.118   2.130   2.142   2.206   2.252   2.263   2.281   2.304
 98 B    99 B    99 A   100 A   101 A   100 B   102 A   101 B                  
  2.331   2.340   2.341   2.356   2.357   2.374   2.391   2.420
102 B   103 B   103 A   104 B   104 A   105 A   105 B   106 B                  
  2.422   2.460   2.483   2.506   2.535   2.543   2.556   2.577
106 A   107 B   107 A   108 A   108 B   109 B   109 A   110 A                  
  2.597   2.607   2.616   2.618   2.627   2.686   2.715   2.721
110 B   111 A   111 B   112 A   112 B   113 A   114 A   113 B                  
  2.747   2.762   2.766   2.787   2.825   2.834   2.839   2.849
114 B   115 A   115 B   116 A   116 B   117 A   118 A   117 B                  
  2.875   2.885   2.895   2.967   2.979   2.998   3.015   3.027
118 B   119 A   119 B   120 B   120 A   121 B   121 A   122 A                  
  3.044   3.046   3.049   3.063   3.064   3.079   3.105   3.111
122 B   123 B   123 A   124 A   124 B   125 A   125 B   126 A                  
  3.114   3.124   3.139   3.154   3.156   3.195   3.203   3.212
126 B   127 A   127 B   128 A   128 B   129 B   129 A   130 A                  
  3.219   3.238   3.245   3.273   3.282   3.288   3.288   3.293
130 B   131 A   131 B   132 A   133 A   134 A   132 B   135 A                  
  3.305   3.323   3.334   3.349   3.350   3.350   3.360   3.365
133 B   134 B   136 A   135 B   136 B   137 A   138 A   137 B                  
  3.386   3.406   3.426   3.427   3.433   3.447   3.485   3.486
138 B   139 A   139 B   140 A   140 B   141 A   141 B   142 A                  
  3.523   3.536   3.550   3.558   3.580   3.580   3.582   3.623
142 B   143 A   144 A   143 B   145 A   146 A   144 B   145 B                  
  3.624   3.657   3.690   3.693   3.745   3.753   3.771   3.777
147 A   146 B   148 A   147 B   148 B   149 A   149 B   150 A                  
  3.801   3.810   3.816   3.845   3.855   3.865   3.886   3.889
150 B   151 A   151 B   152 A   153 A   152 B   154 A   153 B                  
  3.905   3.949   3.951   3.991   4.009   4.014   4.027   4.030
154 B   155 A   155 B   156 A   156 B   157 A   157 B   158 A                  
  4.045   4.050   4.070   4.079   4.104   4.131   4.134   4.146
158 B   159 A   160 A   159 B   160 B   161 A   161 B   162 A                  
  4.176   4.221   4.247   4.259   4.299   4.333   4.353   4.363
162 B   163 A   163 B   164 A   164 B   165 A   166 A   165 B                  
  4.369   4.374   4.426   4.445   4.479   4.504   4.508   4.512
166 B   167 A   168 A   167 B   169 A   170 A   168 B   169 B                  
  4.553   4.572   4.588   4.608   4.619   4.676   4.690   4.714
171 A   170 B   171 B   172 B   172 A   173 A   173 B   174 A                  
  4.738   4.779   4.829   4.849   4.866   4.896   4.908   4.927
174 B   175 A   176 A   175 B   176 B   177 A   178 A   177 B                  
  4.935   4.948   5.031   5.072   5.084   5.132   5.143   5.225
179 A   178 B   179 B   180 A   180 B   181 A   181 B   182 A                  
  5.234   5.257   5.262   5.325   5.400   5.422   5.494   5.508
182 B   183 B   183 A   184 A   184 B   185 A   185 B   186 A                  
  5.686   5.711   5.825   5.898   5.932   5.956   6.034   6.059
186 B   187 A   187 B   188 A   188 B   189 A   189 B   190 A                  
  6.074   6.374   6.393   6.561   6.610   9.347  10.772  11.906
190 B   191 A   191 B   192 A   192 B   193 A   193 B   194 A                  
 12.573  13.167  13.455  14.631  14.743
194 B   195 A   195 B   196 A   196 B                                          
 
 Beta MOs, Unrestricted
 -- Occupied --                  
-92.163 -92.163 -11.471 -11.470 -11.441 -11.441 -11.425 -11.425
  1 B     1 A     2 A     2 B     3 B     3 A     4 B     4 A                  
-11.409 -11.409  -9.165  -9.165  -6.846  -6.846  -6.845  -6.845
  5 A     5 B     6 B     6 A     7 A     7 B     8 A     8 B                  
 -6.845  -6.845  -1.380  -1.348  -1.217  -1.181  -1.178  -1.105
  9 B     9 A    10 A    10 B    11 A    12 A    11 B    12 B                  
 -0.991  -0.937  -0.929  -0.900  -0.884  -0.817  -0.747  -0.739
 13 A    14 A    13 B    14 B    15 A    15 B    16 A    16 B                  
 -0.738  -0.725  -0.720  -0.676  -0.669  -0.653  -0.652  -0.537
 17 A    17 B    18 A    18 B    19 A    19 B    20 A    21 A                  
 -0.529  -0.456
 20 B    21 B                                                                  
 -- Virtual --                   
 -0.222  -0.049  -0.031   0.009   0.013   0.022   0.031   0.037
 22 A    22 B    23 A    24 A    23 B    25 A    24 B    26 A                  
  0.050   0.051   0.064   0.072   0.083   0.101   0.104   0.159
 27 A    25 B    26 B    28 A    27 B    29 A    28 B    30 A                  
  0.171   0.198   0.203   0.209   0.220   0.233   0.238   0.265
 29 B    30 B    31 A    32 A    31 B    33 A    32 B    34 A                  
  0.266   0.287   0.294   0.300   0.308   0.310   0.318   0.326
 33 B    35 A    36 A    34 B    35 B    36 B    37 A    38 A                  
  0.331   0.354   0.360   0.382   0.391   0.395   0.397   0.420
 37 B    39 A    38 B    39 B    40 A    40 B    41 A    42 A                  
  0.421   0.430   0.435   0.441   0.448   0.456   0.462   0.471
 41 B    43 A    42 B    44 A    43 B    45 A    44 B    46 A                  
  0.474   0.476   0.490   0.494   0.517   0.518   0.530   0.540
 47 A    45 B    46 B    47 B    48 A    48 B    49 A    50 A                  
  0.564   0.589   0.596   0.627   0.628   0.637   0.643   0.687
 49 B    50 B    51 A    52 A    51 B    52 B    53 A    53 B                  
  0.699   0.703   0.706   0.722   0.735   0.740   0.768   0.774
 54 A    54 B    55 A    55 B    56 B    56 A    57 A    57 B                  
  0.785   0.799   0.819   0.843   0.845   0.865   0.877   0.893
 58 B    58 A    59 A    60 A    59 B    61 A    60 B    61 B                  
  0.900   0.934   0.946   0.959   0.963   0.986   0.993   1.011
 62 A    62 B    63 A    64 A    63 B    65 A    64 B    65 B                  
  1.018   1.031   1.040   1.056   1.057   1.074   1.096   1.129
 66 A    67 A    66 B    68 A    67 B    69 A    68 B    70 A                  
  1.134   1.151   1.154   1.166   1.201   1.206   1.232   1.241
 69 B    70 B    71 A    71 B    72 A    72 B    73 A    73 B                  
  1.273   1.274   1.294   1.311   1.332   1.343   1.354   1.364
 74 B    74 A    75 B    75 A    76 A    76 B    77 B    77 A                  
  1.381   1.385   1.396   1.407   1.427   1.432   1.447   1.462
 78 B    79 B    78 A    79 A    80 B    80 A    81 A    81 B                  
  1.484   1.514   1.515   1.523   1.562   1.572   1.591   1.611
 82 A    83 A    82 B    83 B    84 A    84 B    85 B    85 A                  
  1.656   1.662   1.698   1.721   1.721   1.730   1.752   1.758
 86 B    86 A    87 B    88 B    87 A    88 A    89 A    89 B                  
  1.791   1.798   1.850   1.857   1.895   1.905   1.951   1.951
 90 B    90 A    91 A    91 B    92 B    92 A    93 A    93 B                  
  1.980   1.984   2.018   2.029   2.032   2.055   2.070   2.085
 94 B    94 A    95 A    95 B    96 A    96 B    97 A    97 B                  
  2.100   2.131   2.133   2.145   2.211   2.252   2.261   2.284
 98 A    98 B    99 B    99 A   100 A   101 A   100 B   102 A                  
  2.308   2.334   2.346   2.348   2.359   2.360   2.388   2.399
101 B   102 B   103 A   103 B   104 A   104 B   105 A   105 B                  
  2.428   2.430   2.464   2.489   2.508   2.537   2.549   2.563
106 B   106 A   107 B   107 A   108 A   108 B   109 B   109 A                  
  2.580   2.605   2.614   2.622   2.624   2.629   2.696   2.718
110 A   110 B   111 A   111 B   112 A   112 B   113 A   114 A                  
  2.728   2.752   2.770   2.770   2.792   2.827   2.837   2.847
113 B   114 B   115 B   115 A   116 A   116 B   117 A   118 A                  
  2.856   2.881   2.886   2.900   2.977   2.981   3.004   3.018
117 B   118 B   119 A   119 B   120 B   120 A   121 B   121 A                  
  3.034   3.044   3.050   3.053   3.069   3.070   3.085   3.112
122 A   122 B   123 B   123 A   124 A   124 B   125 A   125 B                  
  3.117   3.120   3.132   3.144   3.159   3.164   3.198   3.207
126 A   126 B   127 A   127 B   128 A   128 B   129 B   129 A                  
  3.216   3.221   3.243   3.248   3.277   3.287   3.291   3.293
130 A   130 B   131 A   131 B   132 A   133 A   134 A   132 B                  
  3.297   3.311   3.332   3.349   3.351   3.354   3.356   3.365
135 A   133 B   134 B   136 A   135 B   137 A   136 B   138 A                  
  3.374   3.388   3.409   3.429   3.431   3.438   3.450   3.487
137 B   138 B   139 A   139 B   140 A   140 B   141 A   141 B                  
  3.490   3.528   3.540   3.556   3.563   3.582   3.585   3.587
142 A   142 B   143 A   144 A   143 B   145 A   146 A   144 B                  
  3.626   3.628   3.661   3.695   3.696   3.747   3.755   3.772
145 B   147 A   146 B   148 A   147 B   148 B   149 A   149 B                  
  3.781   3.807   3.812   3.819   3.848   3.858   3.866   3.890
150 A   150 B   151 A   151 B   152 A   153 A   152 B   154 A                  
  3.893   3.907   3.952   3.954   3.992   4.011   4.015   4.028
153 B   154 B   155 A   155 B   156 A   156 B   157 A   157 B                  
  4.032   4.047   4.051   4.072   4.082   4.106   4.132   4.135
158 A   158 B   159 A   160 A   159 B   160 B   161 A   161 B                  
  4.147   4.178   4.222   4.247   4.261   4.301   4.334   4.355
162 A   162 B   163 A   163 B   164 A   164 B   165 A   166 A                  
  4.364   4.371   4.375   4.431   4.446   4.480   4.506   4.510
165 B   166 B   167 A   168 A   167 B   169 A   170 A   168 B                  
  4.517   4.557   4.573   4.588   4.610   4.619   4.677   4.690
169 B   171 A   170 B   171 B   172 B   172 A   173 A   173 B                  
  4.716   4.740   4.782   4.831   4.850   4.868   4.898   4.909
174 A   174 B   175 A   176 A   175 B   176 B   177 A   178 A                  
  4.930   4.936   4.949   5.033   5.076   5.087   5.135   5.145
177 B   179 A   178 B   179 B   180 A   180 B   181 A   181 B                  
  5.226   5.235   5.258   5.263   5.325   5.401   5.423   5.496
182 A   182 B   183 B   183 A   184 A   184 B   185 A   185 B                  
  5.509   5.687   5.712   5.826   5.898   5.933   5.957   6.035
186 A   186 B   187 A   187 B   188 A   188 B   189 A   189 B                  
  6.060   6.074   6.375   6.394   6.562   6.611   9.350  10.775
190 A   190 B   191 A   191 B   192 A   192 B   193 A   193 B                  
 11.910  12.577  13.171  13.456  14.632  14.744
194 A   194 B   195 A   195 B   196 A   196 B                                  
 --------------------------------------------------------------
 
          Ground-State Mulliken Net Atomic Charges

     Atom                 Charge (a.u.)    Spin (a.u.)
  --------------------------------------------------------
      1 S                     0.289937      -0.011317
      2 C                    -0.118050      -0.273053
      3 C                    -0.149878       0.674262
      4 C                    -0.133195      -0.528477
      5 C                    -0.076957       0.620349
      6 H                     0.219030       0.035995
      7 C                    -0.076961       0.620349
      8 S                     0.289937      -0.011317
      9 C                    -0.133194      -0.528477
     10 C                    -0.118048      -0.273053
     11 C                    -0.149880       0.674262
     12 H                     0.225502      -0.046279
     13 H                     0.243612       0.028521
     14 H                     0.225502      -0.046279
     15 H                     0.243613       0.028521
     16 H                     0.219030       0.035995
  --------------------------------------------------------
  Sum of atomic charges =     1.000000
  Sum of spin   charges =     1.000000

 -----------------------------------------------------------------
                    Cartesian Multipole Moments
 -----------------------------------------------------------------
    Charge (ESU x 10^10)
                 4.8032
    Dipole Moment (Debye)
         X       0.0000      Y      -0.0000      Z      -0.4671
       Tot       0.4671
    Quadrupole Moments (Debye-Ang)
        XX     -22.0785     XY      -1.4234     YY     -66.0643
        XZ       0.0000     YZ       0.0000     ZZ     -62.7357
    Octopole Moments (Debye-Ang^2)
       XXX       0.0000    XXY      -0.0000    XYY      -0.0000
       YYY      -0.0000    XXZ       5.6547    XYZ      19.3859
       YYZ      -4.6955    XZZ       0.0000    YZZ      -0.0000
       ZZZ      -0.8458
    Hexadecapole Moments (Debye-Ang^3)
      XXXX   -1257.8855   XXXY     -10.8476   XXYY    -348.1193
      XYYY       2.0773   YYYY    -281.9023   XXXZ       0.0000
      XXYZ       0.0000   XYYZ       0.0000   YYYZ       0.0000
      XXZZ    -340.7187   XYZZ     -12.4412   YYZZ     -88.6306
      XZZZ       0.0000   YZZZ       0.0000   ZZZZ    -342.5719
 -----------------------------------------------------------------
 DrvMan is completing analytic gradient of the MP2 energy
 MP2 relaxed dipole moment
            1
    1   0.0000001
    2  -0.0000000
    3  -0.1837838
	Magnitude:	 0.184 au	 0.467 Debye
 MP2 energy read as -1103.082029
 Full Analytical Gradient of MP2 Energy (in au.)
             1             2             3             4             5
    1   -0.01051398    0.00746327   -0.00467704    0.01089627   -0.04022742
    2    0.01084355   -0.00507206    0.00180346   -0.01281704    0.01539137
    3   -0.00377174   -0.00511661   -0.00439964    0.00152159    0.01054094
             6             7             8             9            10
    1    0.00138352    0.04022742    0.01051398   -0.01089627   -0.00746327
    2   -0.00047696   -0.01539137   -0.01084355    0.01281704    0.00507206
    3   -0.00067863    0.01054093   -0.00377174    0.00152159   -0.00511661
            11            12            13            14            15
    1    0.00467704    0.00028264   -0.00102838   -0.00028264    0.00102838
    2   -0.00180346   -0.00148600   -0.00412124    0.00148600    0.00412124
    3   -0.00439964   -0.00143934    0.00334345   -0.00143934    0.00334345
            16
    1   -0.00138352
    2    0.00047696
    3   -0.00067863
 Gradient time:  CPU 1.53 s  wall 0.10 s
 Geometry Optimization Parameters
   NAtoms,    NIC,     NZ,  NCons,   NDum,   NFix, NCnnct, MaxDiis
       16     111       0       1       0       0       0       0


** CONSTRAINED OPTIMIZATION IN DELOCALIZED INTERNAL COORDINATES **
   Searching for a Minimum

   Optimization Cycle:   1

                       Coordinates (Angstroms)
     ATOM                X               Y               Z
      1  S         1.6721866598    0.8130068684    0.8791054546
      2  C         3.0589538172    0.1530476587    0.2526835645
      3  C         2.8434236208   -0.7174181641   -0.8042867793
      4  C         1.5138265452   -0.8374499157   -1.0968713158
      5  C         0.6951331484   -0.0663021680   -0.2746457832
      6  H         1.1274056764   -1.4629990583   -1.8827514444
      7  C        -0.6951331484    0.0663021680   -0.2746457832
      8  S        -1.6721866598   -0.8130068684    0.8791054546
      9  C        -1.5138265452    0.8374499157   -1.0968713158
     10  C        -3.0589538172   -0.1530476587    0.2526835645
     11  C        -2.8434236208    0.7174181641   -0.8042867793
     12  H        -3.6406324873    1.2233800022   -1.3148334857
     13  H         4.0142022658    0.4147492234    0.6706195280
     14  H         3.6406324873   -1.2233800022   -1.3148334857
     15  H        -4.0142022658   -0.4147492234    0.6706195280
     16  H        -1.1274056764    1.4629990583   -1.8827514444
   Point Group: c2    Number of degrees of freedom:    22


   Energy is  -1103.082028538

              Constraints and their Current Values
                                        Value     Constraint
   Dihedral:        4   5   7   9      -80.000      -80.000

 Attempting to Generate Delocalized Internal Coordinates

 21 Hessian modes will be used to form the next step
  Hessian Eigenvalues:
     0.045000    0.045000    0.045000    0.045000    0.045000    0.045000
     0.160000    0.160000    0.160000    0.221335    0.237679    0.250000
     0.299411    0.364554    0.366034    0.368031    0.392996    0.445237
     0.461927    0.467905    0.501257

 Minimum Search - Taking Simple RFO Step
 Searching for Lamda that Minimizes Along All modes
 Value Taken    Lamda =  -0.00877776
 Step Taken.  Stepsize is  0.296571

                             Maximum     Tolerance    Cnvgd?
         Gradient           0.021764      0.000300      NO
         Displacement       0.204836      0.001200      NO
         Energy change     *********      0.000001      NO


 New Cartesian Coordinates Obtained by Inverse Iteration

 Displacement from previous Coordinates is:  0.289340
 ----------------------------------------------------------------
             Standard Nuclear Orientation (Angstroms)
    I     Atom           X                Y                Z
 ----------------------------------------------------------------
    1      S       1.6903037841     0.7485178282     0.9124429652
    2      C       3.0767039034     0.1484185229     0.2610431519
    3      C       2.8633913370    -0.7291036861    -0.7911577384
    4      C       1.5309459829    -0.8299310792    -1.1108443343
    5      C       0.7161307968    -0.0680833526    -0.2988904048
    6      H       1.1409131430    -1.4407008803    -1.9059758016
    7      C      -0.7161307968     0.0680833526    -0.2988904048
    8      S      -1.6903037841    -0.7485178282     0.9124429652
    9      C      -1.5309459829     0.8299310792    -1.1108443343
   10      C      -3.0767039034    -0.1484185229     0.2610431519
   11      C      -2.8633913370     0.7291036861    -0.7911577384
   12      H      -3.6649556981     1.2342148383    -1.2963666172
   13      H       4.0326376391     0.4408854537     0.6587685178
   14      H       3.6649556981    -1.2342148383    -1.2963666172
   15      H      -4.0326376391    -0.4408854537     0.6587685178
   16      H      -1.1409131430     1.4407008803    -1.9059758016
 ----------------------------------------------------------------
 Molecular Point Group                 C2    NOp =  2
 Largest Abelian Subgroup              C2    NOp =  2
 Nuclear Repulsion Energy =   638.2413899185 hartrees
 There are       43 alpha and       42 beta electrons
 Applying Cartesian multipole field
    Component          Value
    ---------          -----
     (2,0,0)        1.00000E-11
     (0,2,0)        2.00000E-11
     (0,0,2)       -3.00000E-11
 Nucleus-field energy     =     0.0000000105 hartrees
 Requested basis set is cc-pVTZ
 There are 140 shells and 392 basis functions
 A cutoff of  1.0D-11 yielded   8053 shell pairs
 There are     62697 function pairs (     81743 Cartesian)
 Smallest overlap matrix eigenvalue = 9.04E-05
 Guess MOs from SCF MO coefficient file
 Reading MOs from coefficient file
 Reading MOs from coefficient file
 An unrestricted Hartree-Fock SCF calculation will be
 performed using Pulay DIIS extrapolation
 SCF converges when DIIS error is below 1.0E-08
 Geometry optimization detected.  Setting ReadMinima to 0
 Setting SaveMinima to 0
 using 16 threads for integral computing 
 ---------------------------------------
  Cycle       Energy         DIIS Error
 ---------------------------------------
    1   -1101.3280602131      1.03E-03
    2   -1101.3211444350      1.09E-04
    3   -1101.3216471923      4.85E-05
    4   -1101.3217420990      2.13E-05
    5   -1101.3217821909      8.66E-06
    6   -1101.3217948282      4.83E-06
    7   -1101.3218033592      2.85E-06
    8   -1101.3218132841      2.32E-06
    9   -1101.3218209259      1.87E-06
   10   -1101.3218291153      1.48E-06
   11   -1101.3218356416      9.58E-07
   12   -1101.3218388624      5.28E-07
   13   -1101.3218395086      2.73E-07
   14   -1101.3218396239      1.51E-07
   15   -1101.3218396637      9.25E-08
   16   -1101.3218396768      3.97E-08
   17   -1101.3218396786      1.53E-08
   18   -1101.3218396793      6.41E-09 Convergence criterion met
 ---------------------------------------
 <S^2> = 0.9163
 SCF time:  CPU 1452.24 s  wall 90.82 s
 SCF   energy in the final basis set = -1101.3218396793
 Total energy in the final basis set = -1101.3218396793
 
 Components of the MP2 correlation energy:
        aaaa  correlation energy =        -0.2343409891 au
        abab  correlation energy =        -1.3139894386 au
        bbbb  correlation energy =        -0.2168028370 au
        non-Brillouin singles    =        -0.0000000000 au

 Total  MP2   correlation energy =        -1.7651332647 au
        MP2         total energy =     -1103.0869729440 au

  Entering Z-vector solver.
   1         0           1      0.000495    0.000495
   2         0           1      0.000437    0.000437
   3         0           1      0.000376    0.000376
   4         0           1      0.000384    0.000384
   5         0           1      0.000204    0.000204
   6         0           1      0.000119    0.000119
   7         0           1      0.000069    0.000069
   8         0           1      0.000039    0.000039
   9         0           1      0.000020    0.000020
  10         0           1      0.000010    0.000010
  11         0           1      0.000005    0.000005
  12         0           1      0.000002    0.000002
  13         0           1      0.000001    0.000001
  14         1           0      0.000000    0.000000    Roots Converged
 Warning:  Cannot save MP2 spin density
 
 --------------------------------------------------------------
             Orbital Energies (a.u.) and Symmetries
 --------------------------------------------------------------
 Warning : Irrep of orbital(   9) could not be determined
 Warning : Irrep of orbital(  10) could not be determined
 
 Alpha MOs, Unrestricted
 -- Occupied --                  
-92.161 -92.161 -11.476 -11.475 -11.452 -11.452 -11.429 -11.429
  1 B     1 A     2 A     2 B     3 B     3 A     4 A     4 B                  
-11.406 -11.406  -9.163  -9.163  -6.844  -6.844  -6.843  -6.843
  0 xxx   0 xxx   5 B     5 A     6 A     6 B     7 A     7 B                  
 -6.841  -6.841  -1.392  -1.365  -1.229  -1.187  -1.183  -1.130
  8 B     8 A     9 A     9 B    10 A    10 B    11 A    11 B                  
 -0.994  -0.947  -0.941  -0.905  -0.885  -0.824  -0.752  -0.749
 12 A    13 A    12 B    13 B    14 A    14 B    15 B    15 A                  
 -0.747  -0.736  -0.729  -0.706  -0.699  -0.656  -0.654  -0.547
 16 A    16 B    17 A    18 A    17 B    19 A    18 B    19 B                  
 -0.540  -0.508  -0.502
 20 A    20 B    21 A                                                          
 -- Virtual --                   
 -0.088  -0.076   0.005   0.011   0.018   0.023   0.030   0.036
 21 B    22 A    23 A    22 B    24 A    25 A    23 B    24 B                  
  0.046   0.054   0.072   0.082   0.093   0.104   0.158   0.171
 26 A    25 B    27 A    26 B    28 A    27 B    29 A    28 B                  
  0.193   0.198   0.206   0.215   0.233   0.236   0.256   0.263
 29 B    30 A    31 A    30 B    32 A    31 B    32 B    33 A                  
  0.279   0.288   0.292   0.302   0.307   0.314   0.320   0.331
 34 A    35 A    33 B    34 B    36 A    35 B    37 A    36 B                  
  0.350   0.352   0.370   0.377   0.380   0.389   0.410   0.413
 37 B    38 A    38 B    39 A    39 B    40 A    41 A    40 B                  
  0.423   0.432   0.435   0.435   0.456   0.458   0.466   0.468
 42 A    41 B    42 B    43 A    44 A    43 B    45 A    44 B                  
  0.469   0.479   0.493   0.510   0.515   0.528   0.536   0.558
 46 A    45 B    46 B    47 B    47 A    48 A    49 A    48 B                  
  0.583   0.591   0.622   0.624   0.634   0.643   0.683   0.687
 49 B    50 A    51 A    50 B    52 A    51 B    52 B    53 A                  
  0.701   0.702   0.718   0.724   0.738   0.758   0.770   0.781
 53 B    54 A    54 B    55 B    55 A    56 A    56 B    57 B                  
  0.791   0.810   0.830   0.843   0.863   0.871   0.894   0.899
 57 A    58 A    58 B    59 A    60 A    59 B    60 B    61 A                  
  0.930   0.944   0.957   0.959   0.987   0.990   1.004   1.016
 61 B    62 A    62 B    63 A    64 A    63 B    64 B    65 A                  
  1.025   1.035   1.057   1.060   1.074   1.083   1.120   1.126
 66 A    65 B    67 A    66 B    68 A    67 B    69 A    68 B                  
  1.141   1.149   1.160   1.194   1.199   1.219   1.231   1.267
 70 A    69 B    70 B    71 A    71 B    72 A    72 B    73 A                  
  1.271   1.293   1.305   1.331   1.335   1.342   1.365   1.379
 73 B    74 B    74 A    75 A    75 B    76 B    76 A    77 B                  
  1.390   1.391   1.396   1.418   1.429   1.447   1.459   1.480
 78 B    77 A    78 A    79 B    79 A    80 A    80 B    81 A                  
  1.507   1.507   1.519   1.553   1.574   1.584   1.611   1.656
 82 A    81 B    82 B    83 A    83 B    84 B    84 A    85 B                  
  1.668   1.697   1.714   1.716   1.730   1.746   1.752   1.789
 85 A    86 B    86 A    87 B    87 A    88 A    88 B    89 A                  
  1.793   1.838   1.852   1.889   1.908   1.939   1.951   1.969
 89 B    90 A    90 B    91 B    91 A    92 B    92 A    93 A                  
  1.988   2.017   2.026   2.028   2.059   2.065   2.077   2.094
 93 B    94 A    95 A    94 B    95 B    96 A    96 B    97 A                  
  2.116   2.130   2.131   2.213   2.257   2.266   2.273   2.305
 97 B    98 A    98 B    99 A   100 A    99 B   101 A   100 B                  
  2.321   2.336   2.337   2.351   2.360   2.375   2.389   2.415
101 B   102 A   102 B   103 A   103 B   104 A   104 B   105 B                  
  2.424   2.454   2.474   2.508   2.539   2.548   2.552   2.579
105 A   106 B   106 A   107 A   107 B   108 B   108 A   109 A                  
  2.598   2.609   2.615   2.628   2.631   2.688   2.715   2.723
109 B   110 A   110 B   111 B   111 A   112 A   113 A   112 B                  
  2.739   2.752   2.759   2.787   2.818   2.834   2.841   2.850
113 B   114 A   114 B   115 A   115 B   116 A   117 A   116 B                  
  2.863   2.872   2.898   2.966   2.975   2.994   3.008   3.025
117 B   118 A   118 B   119 B   119 A   120 B   120 A   121 A                  
  3.037   3.042   3.047   3.065   3.069   3.080   3.098   3.112
121 B   122 B   122 A   123 A   123 B   124 A   124 B   125 B                  
  3.116   3.141   3.144   3.152   3.163   3.186   3.188   3.200
125 A   126 B   126 A   127 B   127 A   128 B   128 A   129 A                  
  3.217   3.243   3.252   3.263   3.275   3.287   3.288   3.294
129 B   130 A   130 B   131 A   132 A   133 A   131 B   134 A                  
  3.301   3.319   3.336   3.343   3.348   3.358   3.367   3.371
132 B   133 B   135 A   134 B   136 A   135 B   137 A   136 B                  
  3.384   3.406   3.414   3.424   3.436   3.437   3.470   3.481
137 B   138 A   138 B   139 A   139 B   140 A   141 A   140 B                  
  3.523   3.524   3.553   3.554   3.569   3.586   3.587   3.619
142 A   141 B   142 B   143 A   144 A   143 B   145 A   144 B                  
  3.622   3.658   3.697   3.697   3.736   3.744   3.761   3.778
146 A   145 B   147 A   146 B   147 B   148 A   148 B   149 A                  
  3.798   3.804   3.807   3.844   3.854   3.859   3.886   3.891
149 B   150 A   150 B   151 A   152 A   151 B   153 A   152 B                  
  3.916   3.942   3.948   3.985   4.001   4.002   4.025   4.029
153 B   154 B   154 A   155 A   155 B   156 A   156 B   157 A                  
  4.043   4.046   4.062   4.067   4.099   4.127   4.136   4.148
157 B   158 A   159 A   158 B   159 B   160 A   160 B   161 A                  
  4.176   4.205   4.242   4.248   4.308   4.325   4.350   4.360
161 B   162 A   162 B   163 A   163 B   164 A   165 A   164 B                  
  4.364   4.367   4.427   4.435   4.466   4.495   4.501   4.505
165 B   166 A   167 A   166 B   168 A   167 B   169 A   168 B                  
  4.549   4.568   4.592   4.608   4.618   4.653   4.687   4.707
170 A   169 B   170 B   171 B   171 A   172 A   172 B   173 A                  
  4.733   4.775   4.807   4.820   4.866   4.893   4.897   4.924
173 B   174 A   175 A   174 B   175 B   176 A   177 A   176 B                  
  4.927   4.935   5.020   5.067   5.069   5.122   5.140   5.218
178 A   177 B   178 B   179 A   179 B   180 A   180 B   181 A                  
  5.227   5.251   5.255   5.317   5.405   5.422   5.490   5.505
181 B   182 A   182 B   183 A   183 B   184 A   184 B   185 A                  
  5.666   5.704   5.820   5.883   5.925   5.957   6.034   6.052
185 B   186 A   186 B   187 A   187 B   188 A   188 B   189 A                  
  6.088   6.383   6.400   6.544   6.609   9.326  10.570  11.900
189 B   190 A   190 B   191 A   191 B   192 A   192 B   193 A                  
 12.196  13.219  13.331  14.611  14.689
193 B   194 A   194 B   195 A   195 B                                          
 
 Beta MOs, Unrestricted
 -- Occupied --                  
-92.162 -92.162 -11.473 -11.472 -11.442 -11.442 -11.425 -11.425
  1 B     1 A     2 A     2 B     3 B     3 A     4 B     4 A                  
-11.410 -11.410  -9.164  -9.164  -6.845  -6.845  -6.844  -6.844
  5 B     5 A     6 B     6 A     7 A     7 B     8 A     8 B                  
 -6.844  -6.844  -1.378  -1.351  -1.209  -1.182  -1.179  -1.108
  9 B     9 A    10 A    10 B    11 A    12 A    11 B    12 B                  
 -0.985  -0.938  -0.928  -0.900  -0.883  -0.818  -0.744  -0.741
 13 A    14 A    13 B    14 B    15 A    15 B    16 A    16 B                  
 -0.741  -0.723  -0.718  -0.677  -0.669  -0.652  -0.650  -0.534
 17 A    17 B    18 A    18 B    19 A    20 A    19 B    21 A                  
 -0.527  -0.458
 20 B    21 B                                                                  
 -- Virtual --                   
 -0.223  -0.046  -0.032   0.011   0.015   0.023   0.032   0.038
 22 A    22 B    23 A    24 A    23 B    25 A    24 B    26 A                  
  0.048   0.049   0.063   0.072   0.083   0.098   0.107   0.159
 27 A    25 B    26 B    28 A    27 B    29 A    28 B    30 A                  
  0.174   0.195   0.201   0.208   0.219   0.234   0.238   0.262
 29 B    30 B    31 A    32 A    31 B    33 A    32 B    33 B                  
  0.265   0.286   0.295   0.302   0.308   0.314   0.318   0.327
 34 A    35 A    36 A    34 B    35 B    36 B    37 A    38 A                  
  0.333   0.355   0.358   0.378   0.391   0.391   0.397   0.421
 37 B    39 A    38 B    39 B    40 B    40 A    41 A    41 B                  
  0.421   0.430   0.434   0.441   0.441   0.457   0.461   0.471
 42 A    43 A    42 B    43 B    44 A    45 A    44 B    46 A                  
  0.475   0.475   0.489   0.496   0.514   0.518   0.533   0.545
 45 B    47 A    46 B    47 B    48 B    48 A    49 A    50 A                  
  0.560   0.589   0.592   0.626   0.626   0.636   0.645   0.685
 49 B    50 B    51 A    52 A    51 B    53 A    52 B    53 B                  
  0.695   0.703   0.706   0.726   0.731   0.740   0.761   0.770
 54 A    55 A    54 B    55 B    56 B    56 A    57 A    57 B                  
  0.784   0.797   0.817   0.835   0.845   0.866   0.874   0.898
 58 B    58 A    59 A    59 B    60 A    61 A    60 B    61 B                  
  0.902   0.934   0.950   0.962   0.963   0.992   0.993   1.008
 62 A    62 B    63 A    64 A    63 B    65 A    64 B    65 B                  
  1.020   1.029   1.038   1.059   1.061   1.076   1.088   1.124
 66 A    67 A    66 B    68 A    67 B    69 A    68 B    70 A                  
  1.130   1.146   1.150   1.166   1.198   1.203   1.227   1.238
 69 B    71 A    70 B    71 B    72 A    72 B    73 A    73 B                  
  1.274   1.274   1.295   1.309   1.334   1.338   1.349   1.365
 74 A    74 B    75 B    75 A    76 A    76 B    77 B    77 A                  
  1.380   1.394   1.396   1.400   1.420   1.432   1.449   1.464
 78 B    79 B    78 A    79 A    80 B    80 A    81 A    81 B                  
  1.484   1.510   1.510   1.522   1.558   1.577   1.588   1.613
 82 A    83 A    82 B    83 B    84 A    84 B    85 B    85 A                  
  1.656   1.669   1.699   1.715   1.716   1.731   1.746   1.755
 86 B    86 A    87 B    87 A    88 B    88 A    89 A    89 B                  
  1.794   1.794   1.840   1.853   1.891   1.908   1.940   1.952
 90 B    90 A    91 A    91 B    92 B    92 A    93 B    93 A                  
  1.971   1.989   2.017   2.027   2.029   2.060   2.068   2.078
 94 A    94 B    95 A    96 A    95 B    96 B    97 A    97 B                  
  2.107   2.126   2.134   2.138   2.218   2.257   2.265   2.277
 98 A    98 B    99 A    99 B   100 A   101 A   100 B   102 A                  
  2.310   2.324   2.340   2.343   2.352   2.364   2.389   2.399
101 B   102 B   103 A   103 B   104 A   104 B   105 A   105 B                  
  2.424   2.432   2.458   2.481   2.510   2.541   2.554   2.560
106 B   106 A   107 B   107 A   108 A   108 B   109 B   109 A                  
  2.582   2.607   2.616   2.620   2.633   2.636   2.698   2.719
110 A   110 B   111 A   111 B   112 B   112 A   113 A   114 A                  
  2.730   2.745   2.758   2.762   2.793   2.821   2.836   2.849
113 B   114 B   115 A   115 B   116 A   116 B   117 A   118 A                  
  2.857   2.869   2.874   2.901   2.976   2.977   2.999   3.012
117 B   118 B   119 A   119 B   120 B   120 A   121 B   121 A                  
  3.030   3.042   3.043   3.050   3.072   3.074   3.086   3.105
122 A   122 B   123 B   123 A   124 A   124 B   125 A   125 B                  
  3.118   3.122   3.145   3.152   3.160   3.167   3.188   3.191
126 B   126 A   127 B   127 A   128 B   128 A   129 B   129 A                  
  3.205   3.220   3.246   3.256   3.269   3.280   3.288   3.292
130 A   130 B   131 A   131 B   132 A   133 A   134 A   132 B                  
  3.298   3.305   3.329   3.345   3.348   3.352   3.363   3.373
135 A   133 B   134 B   135 B   136 A   137 A   136 B   138 A                  
  3.380   3.386   3.409   3.418   3.428   3.441   3.442   3.473
137 B   138 B   139 A   139 B   140 A   141 A   140 B   142 A                  
  3.483   3.527   3.529   3.558   3.558   3.575   3.590   3.591
141 B   143 A   142 B   143 B   144 A   145 A   146 A   144 B                  
  3.622   3.626   3.662   3.701   3.702   3.738   3.745   3.763
145 B   147 A   146 B   147 B   148 A   148 B   149 A   149 B                  
  3.781   3.804   3.806   3.810   3.847   3.857   3.861   3.890
150 A   150 B   151 A   151 B   152 A   153 A   152 B   154 A                  
  3.894   3.918   3.945   3.951   3.985   4.003   4.003   4.025
153 B   154 B   155 B   155 A   156 A   157 A   156 B   157 B                  
  4.031   4.045   4.048   4.064   4.070   4.101   4.128   4.137
158 A   158 B   159 A   160 A   159 B   160 B   161 A   161 B                  
  4.149   4.179   4.207   4.243   4.250   4.310   4.326   4.351
162 A   162 B   163 A   163 B   164 A   164 B   165 A   166 A                  
  4.361   4.365   4.368   4.432   4.436   4.468   4.498   4.502
165 B   166 B   167 A   168 A   167 B   169 A   168 B   170 A                  
  4.509   4.553   4.570   4.593   4.610   4.619   4.654   4.688
169 B   171 A   170 B   171 B   172 B   172 A   173 A   173 B                  
  4.709   4.734   4.778   4.810   4.822   4.869   4.895   4.898
174 A   174 B   175 A   176 A   175 B   176 B   177 A   178 A                  
  4.926   4.929   4.939   5.022   5.069   5.072   5.125   5.143
177 B   179 A   178 B   179 B   180 A   180 B   181 A   181 B                  
  5.220   5.229   5.252   5.255   5.317   5.406   5.423   5.492
182 A   182 B   183 A   183 B   184 A   184 B   185 A   185 B                  
  5.507   5.667   5.705   5.821   5.884   5.925   5.958   6.035
186 A   186 B   187 A   187 B   188 A   188 B   189 A   189 B                  
  6.052   6.088   6.384   6.401   6.544   6.609   9.328  10.573
190 A   190 B   191 A   191 B   192 A   192 B   193 A   193 B                  
 11.904  12.200  13.222  13.333  14.612  14.690
194 A   194 B   195 A   195 B   196 A   196 B                                  
 --------------------------------------------------------------
 
          Ground-State Mulliken Net Atomic Charges

     Atom                 Charge (a.u.)    Spin (a.u.)
  --------------------------------------------------------
      1 S                     0.289708       0.003562
      2 C                    -0.121655      -0.279215
      3 C                    -0.138683       0.703486
      4 C                    -0.144456      -0.535357
      5 C                    -0.073226       0.591298
      6 H                     0.218942       0.035317
      7 C                    -0.073238       0.591251
      8 S                     0.289704       0.003570
      9 C                    -0.144459      -0.535348
     10 C                    -0.121662      -0.279225
     11 C                    -0.138686       0.703475
     12 H                     0.225055      -0.046852
     13 H                     0.244330       0.027787
     14 H                     0.225056      -0.046853
     15 H                     0.244329       0.027788
     16 H                     0.218941       0.035317
  --------------------------------------------------------
  Sum of atomic charges =     1.000000
  Sum of spin   charges =     1.000000

 -----------------------------------------------------------------
                    Cartesian Multipole Moments
 -----------------------------------------------------------------
    Charge (ESU x 10^10)
                 4.8032
    Dipole Moment (Debye)
         X       0.0003      Y      -0.0000      Z      -0.3347
       Tot       0.3347
    Quadrupole Moments (Debye-Ang)
        XX     -21.1719     XY      -1.4603     YY     -66.5226
        XZ      -0.0000     YZ       0.0000     ZZ     -62.6368
    Octopole Moments (Debye-Ang^2)
       XXX       0.0027    XXY      -0.0001    XYY       0.0003
       YYY      -0.0000    XXZ       4.9731    XYZ      19.1506
       YYZ      -5.4424    XZZ       0.0004    YZZ      -0.0000
       ZZZ      -1.9416
    Hexadecapole Moments (Debye-Ang^3)
      XXXX   -1266.4402   XXXY       0.0616   XXYY    -348.9969
      XYYY       9.8181   YYYY    -268.7189   XXXZ      -0.0002
      XXYZ       0.0001   XYYZ      -0.0001   YYYZ       0.0002
      XXZZ    -348.0972   XYZZ      -9.0950   YYZZ     -88.8169
      XZZZ      -0.0001   YZZZ       0.0002   ZZZZ    -352.3509
 -----------------------------------------------------------------
 DrvMan is completing analytic gradient of the MP2 energy
 MP2 relaxed dipole moment
            1
    1   0.0001131
    2  -0.0000061
    3  -0.1316732
	Magnitude:	 0.132 au	 0.335 Debye
 MP2 energy read as -1103.086973
 Full Analytical Gradient of MP2 Energy (in au.)
             1             2             3             4             5
    1   -0.00153266    0.00307134   -0.00185184    0.00320567   -0.00313296
    2   -0.00078471   -0.00005469    0.00063272   -0.00541066    0.01235427
    3   -0.00358391   -0.00671125    0.00454648    0.00487026   -0.00021887
             6             7             8             9            10
    1   -0.00017973    0.00313437    0.00153273   -0.00320899   -0.00307129
    2   -0.00002443   -0.01235541    0.00078422    0.00541194    0.00005357
    3   -0.00000576   -0.00021767   -0.00358315    0.00486916   -0.00670997
            11            12            13            14            15
    1    0.00185374   -0.00007219   -0.00018976    0.00007214    0.00018958
    2   -0.00063129   -0.00110560   -0.00164441    0.00110568    0.00164436
    3    0.00454446   -0.00064648    0.00174947   -0.00064646    0.00174943
            16
    1    0.00017985
    2    0.00002444
    3   -0.00000574
 Gradient time:  CPU 1.67 s  wall 0.11 s
 Geometry Optimization Parameters
   NAtoms,    NIC,     NZ,  NCons,   NDum,   NFix, NCnnct, MaxDiis
       16     111       0       1       0       0       0       0

 Cartesian Hessian Update
 Hessian Updated using BFGS Update


** CONSTRAINED OPTIMIZATION IN DELOCALIZED INTERNAL COORDINATES **
   Searching for a Minimum

   Optimization Cycle:   2

                       Coordinates (Angstroms)
     ATOM                X               Y               Z
      1  S         1.6903037841    0.7485178282    0.9124429652
      2  C         3.0767039034    0.1484185229    0.2610431519
      3  C         2.8633913370   -0.7291036861   -0.7911577384
      4  C         1.5309459829   -0.8299310792   -1.1108443343
      5  C         0.7161307968   -0.0680833526   -0.2988904048
      6  H         1.1409131430   -1.4407008803   -1.9059758016
      7  C        -0.7161307968    0.0680833526   -0.2988904048
      8  S        -1.6903037841   -0.7485178282    0.9124429652
      9  C        -1.5309459829    0.8299310792   -1.1108443343
     10  C        -3.0767039034   -0.1484185229    0.2610431519
     11  C        -2.8633913370    0.7291036861   -0.7911577384
     12  H        -3.6649556981    1.2342148383   -1.2963666172
     13  H         4.0326376391    0.4408854537    0.6587685178
     14  H         3.6649556981   -1.2342148383   -1.2963666172
     15  H        -4.0326376391   -0.4408854537    0.6587685178
     16  H        -1.1409131430    1.4407008803   -1.9059758016
   Point Group: c2    Number of degrees of freedom:    22


   Energy is  -1103.086972944

              Constraints and their Current Values
                                        Value     Constraint
   Dihedral:        4   5   7   9      -80.000      -80.000
 Hessian Updated using BFGS Update

 16 Hessian modes will be used to form the next step
  Hessian Eigenvalues:
     0.038031    0.050630    0.159844    0.160498    0.221552    0.242223
     0.248770    0.296194    0.364540    0.366052    0.367996    0.391933
     0.411187    0.461778    0.495329    0.511498

 Minimum Search - Taking Simple RFO Step
 Searching for Lamda that Minimizes Along All modes
 Value Taken    Lamda =  -0.00117249
 Step Taken.  Stepsize is  0.144468

                             Maximum     Tolerance    Cnvgd?
         Gradient           0.005537      0.000300      NO
         Displacement       0.069389      0.001200      NO
         Energy change     -0.004944      0.000001      NO


 New Cartesian Coordinates Obtained by Inverse Iteration

 Displacement from previous Coordinates is:  0.240506
 ----------------------------------------------------------------
             Standard Nuclear Orientation (Angstroms)
    I     Atom           X                Y                Z
 ----------------------------------------------------------------
    1      S       1.6678247599     0.7241776240     0.9283696674
    2      C       3.0581348084     0.1313725009     0.2893378675
    3      C       2.8659057316    -0.7285624223    -0.7891093456
    4      C       1.5371411241    -0.8229113846    -1.1351447128
    5      C       0.7192226499    -0.0666265254    -0.3275955963
    6      H       1.1573220057    -1.4228164756    -1.9431467832
    7      C      -0.7192226499     0.0666265254    -0.3275955963
    8      S      -1.6678247599    -0.7241776240     0.9283696674
    9      C      -1.5371411241     0.8229113846    -1.1351447128
   10      C      -3.0581348084    -0.1313725009     0.2893378675
   11      C      -2.8659057316     0.7285624223    -0.7891093456
   12      H      -3.6758037783     1.2318618342    -1.2833544364
   13      H       4.0094618739     0.4352329081     0.6896630782
   14      H       3.6758037783    -1.2318618342    -1.2833544364
   15      H      -4.0094618739    -0.4352329081     0.6896630782
   16      H      -1.1573220057     1.4228164756    -1.9431467832
 ----------------------------------------------------------------
 Molecular Point Group                 C2    NOp =  2
 Largest Abelian Subgroup              C2    NOp =  2
 Nuclear Repulsion Energy =   638.6613829267 hartrees
 There are       43 alpha and       42 beta electrons
 Applying Cartesian multipole field
    Component          Value
    ---------          -----
     (2,0,0)        1.00000E-11
     (0,2,0)        2.00000E-11
     (0,0,2)       -3.00000E-11
 Nucleus-field energy     =     0.0000000100 hartrees
 Requested basis set is cc-pVTZ
 There are 140 shells and 392 basis functions
 A cutoff of  1.0D-11 yielded   8059 shell pairs
 There are     62763 function pairs (     81827 Cartesian)
 Smallest overlap matrix eigenvalue = 9.43E-05
 Guess MOs from SCF MO coefficient file
 Reading MOs from coefficient file
 Reading MOs from coefficient file
 An unrestricted Hartree-Fock SCF calculation will be
 performed using Pulay DIIS extrapolation
 SCF converges when DIIS error is below 1.0E-08
 Geometry optimization detected.  Setting ReadMinima to 0
 Setting SaveMinima to 0
 using 16 threads for integral computing 
 ---------------------------------------
  Cycle       Energy         DIIS Error
 ---------------------------------------
    1   -1101.3144351170      5.22E-04
    2   -1101.3221412223      6.94E-05
    3   -1101.3223506590      2.95E-05
    4   -1101.3223882821      1.42E-05
    5   -1101.3224007988      5.43E-06
    6   -1101.3224033446      2.71E-06
    7   -1101.3224046594      1.19E-06
    8   -1101.3224053822      7.75E-07
    9   -1101.3224058012      4.75E-07
   10   -1101.3224059902      2.34E-07
   11   -1101.3224060570      1.12E-07
   12   -1101.3224060726      7.30E-08
   13   -1101.3224060793      6.12E-08
   14   -1101.3224060853      5.14E-08
   15   -1101.3224060930      3.61E-08
   16   -1101.3224060983      2.08E-08
   17   -1101.3224060992      9.75E-09 Convergence criterion met
 ---------------------------------------
 <S^2> = 0.9177
 SCF time:  CPU 1308.99 s  wall 81.87 s
 SCF   energy in the final basis set = -1101.3224060992
 Total energy in the final basis set = -1101.3224060992
 
 Components of the MP2 correlation energy:
        aaaa  correlation energy =        -0.2342913675 au
        abab  correlation energy =        -1.3140606728 au
        bbbb  correlation energy =        -0.2168947425 au
        non-Brillouin singles    =        -0.0000000000 au

 Total  MP2   correlation energy =        -1.7652467828 au
        MP2         total energy =     -1103.0876528820 au

  Entering Z-vector solver.
   1         0           1      0.000498    0.000498
   2         0           1      0.000441    0.000441
   3         0           1      0.000377    0.000377
   4         0           1      0.000384    0.000384
   5         0           1      0.000206    0.000206
   6         0           1      0.000121    0.000121
   7         0           1      0.000069    0.000069
   8         0           1      0.000040    0.000040
   9         0           1      0.000021    0.000021
  10         0           1      0.000010    0.000010
  11         0           1      0.000005    0.000005
  12         0           1      0.000002    0.000002
  13         0           1      0.000001    0.000001
  14         1           0      0.000000    0.000000    Roots Converged
 Warning:  Cannot save MP2 spin density
 
 --------------------------------------------------------------
             Orbital Energies (a.u.) and Symmetries
 --------------------------------------------------------------
 Warning : Irrep of orbital(   1) could not be determined
 Warning : Irrep of orbital(   2) could not be determined
 Warning : Irrep of orbital(   5) could not be determined
 Warning : Irrep of orbital(   6) could not be determined
 Warning : Irrep of orbital(   7) could not be determined
 Warning : Irrep of orbital(   8) could not be determined
 Warning : Irrep of orbital(   9) could not be determined
 Warning : Irrep of orbital(  10) could not be determined
 Warning : Irrep of orbital(  11) could not be determined
 Warning : Irrep of orbital(  12) could not be determined
 Warning : Irrep of orbital(  13) could not be determined
 Warning : Irrep of orbital(  14) could not be determined
 Warning : Irrep of orbital(  15) could not be determined
 Warning : Irrep of orbital(  16) could not be determined
 Warning : Irrep of orbital(  17) could not be determined
 Warning : Irrep of orbital(  18) could not be determined
 
 Alpha MOs, Unrestricted
 -- Occupied --                  
-92.161 -92.161 -11.476 -11.475 -11.452 -11.452 -11.429 -11.429
  0 xxx   0 xxx   1 A     1 B     0 xxx   0 xxx   0 xxx   0 xxx                
-11.407 -11.407  -9.163  -9.163  -6.844  -6.844  -6.843  -6.843
  0 xxx   0 xxx   0 xxx   0 xxx   0 xxx   0 xxx   0 xxx   0 xxx                
 -6.841  -6.841  -1.391  -1.364  -1.227  -1.188  -1.183  -1.128
  0 xxx   0 xxx   2 A     2 B     3 A     3 B     4 A     4 B                  
 -0.991  -0.948  -0.940  -0.905  -0.885  -0.822  -0.753  -0.748
  5 A     6 A     5 B     6 B     7 A     7 B     8 B     8 A                  
 -0.745  -0.736  -0.727  -0.706  -0.697  -0.657  -0.655  -0.550
  9 A     9 B    10 A    11 A    10 B    12 A    11 B    12 B                  
 -0.540  -0.507  -0.499
 13 A    13 B    14 A                                                          
 -- Virtual --                   
 -0.088  -0.075   0.003   0.011   0.019   0.023   0.030   0.035
 14 B    15 A    16 A    15 B    17 A    18 A    16 B    17 B                  
  0.046   0.054   0.071   0.082   0.092   0.105   0.157   0.172
 19 A    18 B    20 A    19 B    21 A    20 B    22 A    21 B                  
  0.193   0.198   0.206   0.215   0.233   0.237   0.257   0.261
 22 B    23 A    24 A    23 B    25 A    24 B    25 B    26 A                  
  0.279   0.289   0.291   0.301   0.310   0.315   0.321   0.329
 27 A    28 A    26 B    27 B    29 A    28 B    30 A    29 B                  
  0.351   0.352   0.368   0.376   0.378   0.389   0.408   0.411
 31 A    30 B    31 B    32 A    32 B    33 A    34 A    33 B                  
  0.423   0.433   0.434   0.435   0.456   0.457   0.467   0.467
 35 A    34 B    36 A    35 B    37 A    36 B    37 B    38 A                  
  0.468   0.482   0.494   0.510   0.516   0.529   0.535   0.555
 39 A    38 B    39 B    40 B    40 A    41 A    42 A    41 B                  
  0.584   0.591   0.621   0.621   0.633   0.644   0.680   0.685
 42 B    43 A    43 B    44 A    45 A    44 B    45 B    46 A                  
  0.700   0.700   0.720   0.728   0.738   0.755   0.766   0.779
 47 A    46 B    47 B    48 B    48 A    49 A    49 B    50 B                  
  0.796   0.810   0.830   0.842   0.869   0.874   0.893   0.898
 50 A    51 A    51 B    52 A    53 A    52 B    53 B    54 A                  
  0.927   0.942   0.956   0.961   0.990   0.990   1.002   1.016
 54 B    55 A    55 B    56 A    57 A    56 B    57 B    58 A                  
  1.024   1.036   1.057   1.058   1.075   1.079   1.115   1.122
 59 A    58 B    60 A    59 B    61 A    60 B    62 A    61 B                  
  1.141   1.148   1.164   1.192   1.200   1.220   1.227   1.266
 63 A    62 B    63 B    64 A    64 B    65 A    65 B    66 A                  
  1.272   1.292   1.301   1.331   1.333   1.342   1.365   1.379
 66 B    67 B    67 A    68 A    68 B    69 B    69 A    70 B                  
  1.388   1.390   1.391   1.419   1.429   1.446   1.460   1.485
 70 A    71 B    71 A    72 B    72 A    73 A    73 B    74 A                  
  1.504   1.508   1.519   1.546   1.575   1.583   1.611   1.654
 74 B    75 A    75 B    76 A    76 B    77 B    77 A    78 B                  
  1.669   1.697   1.711   1.715   1.728   1.743   1.753   1.790
 78 A    79 B    79 A    80 B    80 A    81 A    81 B    82 A                  
  1.795   1.834   1.857   1.887   1.906   1.936   1.949   1.965
 82 B    83 A    83 B    84 B    84 A    85 B    85 A    86 A                  
  1.989   2.015   2.025   2.028   2.061   2.068   2.074   2.094
 86 B    87 A    88 A    87 B    88 B    89 A    89 B    90 A                  
  2.119   2.125   2.131   2.216   2.261   2.264   2.273   2.299
 90 B    91 B    91 A    92 A    93 A    92 B    94 A    93 B                  
  2.320   2.337   2.339   2.341   2.359   2.377   2.386   2.412
 94 B    95 A    95 B    96 A    96 B    97 A    97 B    98 B                  
  2.424   2.454   2.469   2.502   2.540   2.549   2.556   2.576
 98 A    99 B    99 A   100 A   100 B   101 A   101 B   102 A                  
  2.598   2.610   2.614   2.627   2.635   2.691   2.716   2.721
102 B   103 A   103 B   104 B   104 A   105 A   106 A   105 B                  
  2.732   2.749   2.763   2.787   2.814   2.827   2.846   2.849
106 B   107 A   107 B   108 A   108 B   109 A   109 B   110 A                  
  2.867   2.867   2.900   2.967   2.972   2.994   3.005   3.027
110 B   111 A   111 B   112 B   112 A   113 B   113 A   114 A                  
  3.033   3.039   3.046   3.062   3.067   3.080   3.098   3.110
114 B   115 B   115 A   116 A   116 B   117 A   117 B   118 B                  
  3.121   3.145   3.149   3.150   3.163   3.181   3.184   3.199
118 A   119 B   119 A   120 B   120 A   121 A   121 B   122 A                  
  3.218   3.241   3.252   3.261   3.273   3.286   3.289   3.299
122 B   123 A   123 B   124 A   125 A   126 A   124 B   127 A                  
  3.300   3.320   3.334   3.341   3.345   3.357   3.369   3.369
125 B   126 B   128 A   127 B   129 A   128 B   129 B   130 A                  
  3.388   3.412   3.416   3.426   3.438   3.438   3.465   3.477
130 B   131 A   131 B   132 A   132 B   133 A   134 A   133 B                  
  3.517   3.523   3.551   3.556   3.572   3.587   3.589   3.614
135 A   134 B   135 B   136 A   137 A   138 A   136 B   137 B                  
  3.623   3.656   3.695   3.700   3.730   3.740   3.758   3.780
139 A   138 B   140 A   139 B   140 B   141 A   141 B   142 A                  
  3.794   3.805   3.807   3.840   3.853   3.858   3.888   3.892
142 B   143 A   143 B   144 A   145 A   144 B   146 A   145 B                  
  3.919   3.935   3.947   3.982   3.997   3.998   4.022   4.027
146 B   147 B   147 A   148 A   148 B   149 A   150 A   149 B                  
  4.044   4.044   4.054   4.065   4.094   4.123   4.140   4.151
151 A   150 B   152 A   151 B   152 B   153 A   153 B   154 A                  
  4.172   4.197   4.238   4.245   4.308   4.322   4.348   4.358
154 B   155 A   155 B   156 A   156 B   157 A   158 A   157 B                  
  4.362   4.365   4.422   4.436   4.460   4.487   4.494   4.495
158 B   159 A   160 A   159 B   161 A   160 B   162 A   161 B                  
  4.543   4.564   4.586   4.609   4.615   4.649   4.683   4.701
163 A   162 B   163 B   164 B   164 A   165 A   165 B   166 A                  
  4.728   4.769   4.809   4.815   4.860   4.893   4.899   4.922
166 B   167 A   168 A   167 B   168 B   169 A   170 A   169 B                  
  4.928   4.939   5.018   5.064   5.064   5.118   5.144   5.213
171 A   170 B   171 B   172 A   172 B   173 A   173 B   174 A                  
  5.222   5.248   5.252   5.317   5.402   5.416   5.486   5.502
174 B   175 A   175 B   176 A   176 B   177 A   177 B   178 A                  
  5.666   5.707   5.823   5.875   5.914   5.951   6.030   6.048
178 B   179 A   179 B   180 A   180 B   181 A   181 B   182 A                  
  6.087   6.375   6.393   6.545   6.606   9.320  10.532  11.883
182 B   183 A   183 B   184 A   184 B   185 A   185 B   186 A                  
 12.124  13.178  13.286  14.583  14.665
186 B   187 A   187 B   188 A   188 B                                          
 Warning : Irrep of orbital(   1) could not be determined
 Warning : Irrep of orbital(   2) could not be determined
 Warning : Irrep of orbital(   5) could not be determined
 Warning : Irrep of orbital(   6) could not be determined
 Warning : Irrep of orbital(   7) could not be determined
 Warning : Irrep of orbital(   8) could not be determined
 Warning : Irrep of orbital(   9) could not be determined
 Warning : Irrep of orbital(  10) could not be determined
 Warning : Irrep of orbital(  11) could not be determined
 Warning : Irrep of orbital(  12) could not be determined
 Warning : Irrep of orbital(  13) could not be determined
 Warning : Irrep of orbital(  14) could not be determined
 Warning : Irrep of orbital(  15) could not be determined
 Warning : Irrep of orbital(  16) could not be determined
 Warning : Irrep of orbital(  17) could not be determined
 Warning : Irrep of orbital(  18) could not be determined
 
 Beta MOs, Unrestricted
 -- Occupied --                  
-92.162 -92.162 -11.473 -11.472 -11.442 -11.442 -11.425 -11.425
  0 xxx   0 xxx   1 A     1 B     0 xxx   0 xxx   0 xxx   0 xxx                
-11.412 -11.412  -9.164  -9.164  -6.845  -6.845  -6.844  -6.844
  0 xxx   0 xxx   0 xxx   0 xxx   0 xxx   0 xxx   0 xxx   0 xxx                
 -6.844  -6.844  -1.377  -1.350  -1.207  -1.183  -1.180  -1.106
  0 xxx   0 xxx   2 A     2 B     3 A     4 A     3 B     4 B                  
 -0.983  -0.939  -0.928  -0.900  -0.883  -0.816  -0.743  -0.741
  5 A     6 A     5 B     6 B     7 A     7 B     8 A     8 B                  
 -0.740  -0.723  -0.717  -0.676  -0.668  -0.654  -0.651  -0.534
  9 A     9 B    10 A    10 B    11 A    12 A    11 B    13 A                  
 -0.528  -0.459
 12 B    13 B                                                                  
 -- Virtual --                   
 -0.220  -0.046  -0.034   0.010   0.015   0.024   0.032   0.039
 14 A    14 B    15 A    16 A    15 B    17 A    16 B    18 A                  
  0.048   0.049   0.062   0.072   0.083   0.097   0.107   0.158
 19 A    17 B    18 B    20 A    19 B    21 A    20 B    22 A                  
  0.176   0.196   0.201   0.209   0.219   0.233   0.239   0.264
 21 B    22 B    23 A    24 A    23 B    25 A    24 B    25 B                  
  0.264   0.286   0.295   0.299   0.309   0.314   0.321   0.327
 26 A    27 A    28 A    26 B    27 B    28 B    29 A    30 A                  
  0.332   0.355   0.359   0.377   0.389   0.391   0.397   0.419
 29 B    31 A    30 B    31 B    32 B    32 A    33 A    34 A                  
  0.420   0.431   0.436   0.440   0.440   0.457   0.461   0.472
 33 B    35 A    34 B    36 A    35 B    37 A    36 B    38 A                  
  0.474   0.475   0.490   0.498   0.514   0.519   0.534   0.544
 39 A    37 B    38 B    39 B    40 B    40 A    41 A    42 A                  
  0.558   0.590   0.592   0.623   0.625   0.634   0.645   0.682
 41 B    42 B    43 A    43 B    44 A    45 A    44 B    45 B                  
  0.694   0.702   0.705   0.728   0.733   0.740   0.759   0.766
 46 A    47 A    46 B    47 B    48 B    48 A    49 A    49 B                  
  0.782   0.801   0.817   0.835   0.844   0.873   0.876   0.897
 50 B    50 A    51 A    51 B    52 A    53 A    52 B    53 B                  
  0.901   0.931   0.948   0.962   0.964   0.994   0.994   1.005
 54 A    54 B    55 A    55 B    56 A    57 A    56 B    57 B                  
  1.019   1.027   1.040   1.059   1.060   1.078   1.085   1.118
 58 A    59 A    58 B    59 B    60 A    61 A    60 B    62 A                  
  1.126   1.145   1.150   1.170   1.196   1.205   1.227   1.234
 61 B    63 A    62 B    63 B    64 A    64 B    65 A    65 B                  
  1.273   1.275   1.295   1.305   1.334   1.336   1.349   1.365
 66 A    66 B    67 B    67 A    68 A    68 B    69 B    69 A                  
  1.380   1.392   1.394   1.396   1.421   1.432   1.448   1.464
 70 B    70 A    71 B    71 A    72 B    72 A    73 A    73 B                  
  1.489   1.506   1.510   1.522   1.551   1.579   1.587   1.613
 74 A    74 B    75 A    75 B    76 A    76 B    77 B    77 A                  
  1.654   1.670   1.700   1.712   1.715   1.729   1.743   1.755
 78 B    78 A    79 B    79 A    80 B    80 A    81 A    81 B                  
  1.795   1.796   1.835   1.857   1.889   1.907   1.937   1.950
 82 A    82 B    83 A    83 B    84 B    84 A    85 B    85 A                  
  1.968   1.990   2.015   2.026   2.029   2.062   2.070   2.076
 86 A    86 B    87 A    88 A    87 B    88 B    89 A    89 B                  
  2.106   2.127   2.134   2.135   2.221   2.260   2.264   2.277
 90 A    90 B    91 B    91 A    92 A    93 A    92 B    94 A                  
  2.303   2.326   2.341   2.342   2.342   2.362   2.391   2.396
 93 B    94 B    95 A    95 B    96 A    96 B    97 A    97 B                  
  2.421   2.432   2.459   2.476   2.504   2.542   2.556   2.562
 98 B    98 A    99 B    99 A   100 A   100 B   101 A   101 B                  
  2.579   2.605   2.616   2.619   2.633   2.641   2.700   2.720
102 A   102 B   103 A   103 B   104 B   104 A   105 A   106 A                  
  2.726   2.740   2.754   2.766   2.794   2.817   2.831   2.852
105 B   106 B   107 A   107 B   108 A   108 B   109 A   109 B                  
  2.856   2.868   2.873   2.903   2.975   2.976   3.000   3.010
110 A   111 A   110 B   111 B   112 A   112 B   113 B   113 A                  
  3.032   3.038   3.041   3.049   3.069   3.073   3.085   3.104
114 A   114 B   115 B   115 A   116 A   116 B   117 A   117 B                  
  3.117   3.127   3.148   3.158   3.158   3.167   3.186   3.187
118 B   118 A   119 B   119 A   120 B   120 A   121 A   121 B                  
  3.203   3.220   3.244   3.255   3.268   3.278   3.287   3.292
122 A   122 B   123 A   123 B   124 A   125 A   126 A   124 B                  
  3.302   3.306   3.331   3.344   3.345   3.351   3.363   3.375
127 A   125 B   126 B   127 B   128 A   129 A   128 B   130 A                  
  3.378   3.390   3.415   3.419   3.431   3.441   3.443   3.469
129 B   130 B   131 A   131 B   132 A   133 A   132 B   134 A                  
  3.480   3.521   3.528   3.556   3.560   3.578   3.590   3.594
133 B   135 A   134 B   135 B   136 A   137 A   138 A   136 B                  
  3.616   3.627   3.660   3.700   3.703   3.732   3.742   3.760
137 B   139 A   138 B   140 A   139 B   140 B   141 A   141 B                  
  3.784   3.801   3.807   3.811   3.843   3.856   3.860   3.892
142 A   142 B   143 A   143 B   144 A   145 A   144 B   146 A                  
  3.895   3.921   3.938   3.950   3.983   4.000   4.000   4.025
145 B   146 B   147 B   147 A   148 A   149 A   148 B   150 A                  
  4.028   4.046   4.046   4.056   4.068   4.095   4.124   4.141
149 B   151 A   150 B   152 A   151 B   152 B   153 A   153 B                  
  4.152   4.174   4.198   4.239   4.247   4.310   4.323   4.349
154 A   154 B   155 A   155 B   156 A   156 B   157 A   158 A                  
  4.359   4.363   4.367   4.427   4.437   4.462   4.490   4.496
157 B   158 B   159 A   160 A   159 B   161 A   160 B   162 A                  
  4.499   4.547   4.566   4.586   4.611   4.616   4.650   4.684
161 B   163 A   162 B   163 B   164 B   164 A   165 A   165 B                  
  4.702   4.729   4.772   4.811   4.817   4.863   4.894   4.900
166 A   166 B   167 A   168 A   167 B   168 B   169 A   170 A                  
  4.924   4.929   4.943   5.020   5.067   5.068   5.121   5.146
[...]
 Warning : Irrep of orbital(   5) could not be determined
 Warning : Irrep of orbital(   6) could not be determined
 Warning : Irrep of orbital(   7) could not be determined
 Warning : Irrep of orbital(   8) could not be determined
 Warning : Irrep of orbital(   9) could not be determined
 Warning : Irrep of orbital(  10) could not be determined
 Warning : Irrep of orbital(  11) could not be determined
 Warning : Irrep of orbital(  12) could not be determined
 Warning : Irrep of orbital(  13) could not be determined
 Warning : Irrep of orbital(  14) could not be determined
 Warning : Irrep of orbital(  15) could not be determined
 Warning : Irrep of orbital(  16) could not be determined
 Warning : Irrep of orbital(  17) could not be determined
 Warning : Irrep of orbital(  18) could not be determined
 Warning : Irrep of orbital(  72) could not be determined
 Warning : Irrep of orbital(  73) could not be determined
 Warning : Irrep of orbital( 310) could not be determined
 Warning : Irrep of orbital( 311) could not be determined
 
 Alpha MOs, Unrestricted
 -- Occupied --                  
-92.160 -92.160 -11.478 -11.477 -11.451 -11.451 -11.434 -11.434
  0 xxx   0 xxx   1 A     1 B     0 xxx   0 xxx   0 xxx   0 xxx                
-11.402 -11.402  -9.162  -9.162  -6.843  -6.843  -6.842  -6.842
  0 xxx   0 xxx   0 xxx   0 xxx   0 xxx   0 xxx   0 xxx   0 xxx                
 -6.840  -6.840  -1.394  -1.364  -1.229  -1.187  -1.185  -1.129
  0 xxx   0 xxx   2 A     2 B     3 A     4 A     3 B     4 B                  
 -0.996  -0.952  -0.935  -0.905  -0.887  -0.824  -0.753  -0.752
  5 A     6 A     5 B     6 B     7 A     7 B     8 B     8 A                  
 -0.745  -0.736  -0.727  -0.709  -0.693  -0.662  -0.650  -0.564
  9 A     9 B    10 A    11 A    10 B    12 A    11 B    12 B                  
 -0.539  -0.510  -0.494
 13 A    13 B    14 A                                                          
 -- Virtual --                   
 -0.104  -0.065   0.002   0.016   0.019   0.024   0.030   0.038
 14 B    15 A    16 A    15 B    17 A    18 A    16 B    17 B                  
  0.043   0.058   0.072   0.085   0.088   0.109   0.146   0.178
 19 A    18 B    20 A    21 A    19 B    20 B    22 A    21 B                  
  0.188   0.198   0.208   0.213   0.226   0.241   0.260   0.262
 23 A    22 B    24 A    23 B    25 A    24 B    25 B    26 A                  
  0.278   0.285   0.288   0.296   0.320   0.320   0.327   0.347
 27 A    26 B    28 A    27 B     0 xxx   0 xxx  28 B    29 A                  
  0.354   0.363   0.365   0.367   0.379   0.382   0.396   0.410
 30 A    29 B    31 A    30 B    31 B    32 A    33 A    32 B                  
  0.427   0.428   0.433   0.441   0.456   0.457   0.458   0.469
 33 B    34 A    34 B    35 A    36 A    35 B    37 A    36 B                  
  0.472   0.480   0.505   0.514   0.522   0.523   0.539   0.542
 38 A    37 B    38 B    39 A    39 B    40 A    41 A    40 B                  
  0.588   0.589   0.620   0.621   0.632   0.642   0.670   0.683
 42 A    41 B    42 B    43 A    44 A    43 B    44 B    45 A                  
  0.695   0.703   0.715   0.735   0.748   0.749   0.764   0.775
 46 A    45 B    46 B    47 A    48 A    47 B    48 B    49 B                  
  0.808   0.811   0.817   0.832   0.868   0.880   0.907   0.910
 49 A    50 B    50 A    51 A    52 A    51 B    52 B    53 A                  
  0.923   0.942   0.943   0.958   0.962   0.990   0.995   1.012
 53 B    54 A    55 A    54 B    55 B    56 B    56 A    57 A                  
  1.020   1.026   1.054   1.058   1.063   1.083   1.100   1.125
 58 A    57 B    58 B    59 A    59 B    60 A    60 B    61 A                  
  1.136   1.141   1.171   1.180   1.213   1.229   1.236   1.248
 61 B    62 A    62 B    63 A    63 B    64 A    64 B    65 A                  
  1.268   1.293   1.295   1.332   1.339   1.353   1.362   1.369
 65 B    66 B    66 A    67 A    67 B    68 B    68 A    69 A                  
  1.380   1.384   1.404   1.410   1.423   1.424   1.455   1.485
 69 B    70 A    70 B    71 A    72 A    71 B    72 B    73 B                  
  1.489   1.509   1.522   1.534   1.582   1.603   1.611   1.650
 73 A    74 A    74 B    75 A    75 B    76 A    76 B    77 B                  
  1.672   1.684   1.703   1.724   1.735   1.753   1.760   1.786
 77 A    78 A    78 B    79 B    79 A    80 B    80 A    81 A                  
  1.793   1.822   1.877   1.904   1.908   1.935   1.940   1.966
 81 B    82 A    82 B    83 A    83 B    84 B    84 A    85 A                  
  1.995   2.007   2.014   2.033   2.064   2.065   2.071   2.110
 85 B    86 A    86 B    87 A    88 A    87 B    88 B    89 A                  
  2.111   2.131   2.140   2.219   2.241   2.255   2.275   2.284
 89 B    90 B    90 A    91 B    91 A    92 A    92 B    93 A                  
  2.301   2.323   2.329   2.343   2.373   2.382   2.400   2.404
 93 B    94 A    94 B    95 A    95 B    96 A    96 B    97 B                  
  2.424   2.465   2.480   2.499   2.547   2.548   2.575   2.577
 97 A    98 B    98 A    99 A    99 B   100 A   101 A   100 B                  
  2.597   2.603   2.626   2.641   2.655   2.696   2.718   2.735
101 B   102 A   102 B   103 B   103 A   104 A   104 B   105 B                  
  2.738   2.747   2.760   2.788   2.810   2.822   2.832   2.849
105 A   106 A   106 B   107 A   108 A   107 B   109 A   108 B                  
  2.856   2.864   2.895   2.977   2.981   3.000   3.012   3.018
110 A   109 B   110 B   111 A   111 B   112 B   112 A   113 B                  
  3.020   3.044   3.049   3.058   3.061   3.068   3.088   3.104
113 A   114 B   114 A   115 A   115 B   116 A   116 B   117 B                  
  3.129   3.146   3.156   3.164   3.174   3.182   3.195   3.199
117 A   118 B   118 A   119 A   120 A   119 B   120 B   121 A                  
  3.222   3.226   3.246   3.249   3.264   3.281   3.284   3.308
121 B   122 A   123 A   122 B   124 A   125 A   123 B   124 B                  
  3.312   3.325   3.326   3.335   3.337   3.337   3.370   3.381
126 A   127 A   125 B   126 B   128 A   127 B   129 A   128 B                  
  3.388   3.401   3.411   3.435   3.441   3.448   3.449   3.483
129 B   130 B   130 A   131 A   131 B   132 B   132 A   133 B                  
  3.484   3.526   3.542   3.565   3.569   3.603   3.604   3.613
133 A   134 B   134 A   135 A   136 A   135 B   137 A   138 A                  
  3.619   3.656   3.690   3.695   3.716   3.755   3.767   3.771
136 B   137 B   138 B   139 A   139 B   140 A   140 B   141 A                  
  3.777   3.807   3.815   3.840   3.871   3.878   3.886   3.895
141 B   142 A   142 B   143 A   144 A   143 B   144 B   145 A                  
  3.906   3.926   3.955   3.955   3.988   3.997   4.024   4.029
145 B   146 A     0 xxx   0 xxx 147 A   146 B   148 A   147 B                  
  4.044   4.051   4.055   4.071   4.101   4.131   4.144   4.156
149 A   150 A   148 B   149 B   150 B   151 A   151 B   152 A                  
  4.172   4.199   4.240   4.249   4.304   4.305   4.352   4.358
152 B   153 A   153 B   154 A   154 B   155 A   156 A   155 B                  
  4.359   4.365   4.426   4.443   4.471   4.486   4.500   4.517
157 A   156 B   158 A   157 B   159 A   158 B   160 A   159 B                  
  4.552   4.566   4.578   4.599   4.626   4.639   4.666   4.703
161 A   160 B   161 B   162 A   162 B   163 A   163 B   164 A                  
  4.734   4.767   4.771   4.820   4.847   4.894   4.912   4.916
164 B   165 A   165 B   166 A   166 B   167 A   167 B   168 A                  
  4.942   4.960   5.000   5.053   5.080   5.111   5.161   5.225
169 A   168 B   169 B   170 A   170 B   171 A   171 B   172 A                  
  5.230   5.254   5.265   5.322   5.406   5.423   5.483   5.491
172 B   173 B   173 A   174 A   174 B   175 A   175 B   176 A                  
  5.640   5.695   5.803   5.860   5.931   5.959   6.026   6.031
176 B   177 A   177 B   178 A   178 B   179 A   180 A   179 B                  
  6.111   6.371   6.394   6.546   6.563   9.291  10.542  11.853
180 B   181 A   181 B   182 B   182 A   183 A   183 B   184 A                  
 12.304  13.168  13.280  14.620  14.657
184 B   185 A   185 B   186 A   186 B                                          
 Warning : Irrep of orbital(   1) could not be determined
 Warning : Irrep of orbital(   2) could not be determined
 Warning : Irrep of orbital(   5) could not be determined
 Warning : Irrep of orbital(   6) could not be determined
 Warning : Irrep of orbital(   7) could not be determined
 Warning : Irrep of orbital(   8) could not be determined
 Warning : Irrep of orbital(   9) could not be determined
 Warning : Irrep of orbital(  10) could not be determined
 Warning : Irrep of orbital(  11) could not be determined
 Warning : Irrep of orbital(  12) could not be determined
 Warning : Irrep of orbital(  13) could not be determined
 Warning : Irrep of orbital(  14) could not be determined
 Warning : Irrep of orbital(  15) could not be determined
 Warning : Irrep of orbital(  16) could not be determined
 Warning : Irrep of orbital(  17) could not be determined
 Warning : Irrep of orbital(  18) could not be determined
 
 Beta MOs, Unrestricted
 -- Occupied --                  
-92.161 -92.161 -11.477 -11.476 -11.439 -11.439 -11.427 -11.427
  0 xxx   0 xxx   1 A     1 B     0 xxx   0 xxx   0 xxx   0 xxx                
-11.409 -11.409  -9.164  -9.164  -6.845  -6.845  -6.844  -6.844
  0 xxx   0 xxx   0 xxx   0 xxx   0 xxx   0 xxx   0 xxx   0 xxx                
 -6.843  -6.843  -1.381  -1.349  -1.216  -1.183  -1.175  -1.107
  0 xxx   0 xxx   2 A     2 B     3 A     4 A     3 B     4 B                  
 -0.987  -0.944  -0.923  -0.900  -0.884  -0.819  -0.748  -0.740
  5 A     6 A     5 B     6 B     7 A     7 B     8 A     9 A                  
 -0.738  -0.723  -0.722  -0.675  -0.664  -0.663  -0.647  -0.537
  8 B     9 B    10 A    10 B    11 A    12 A    11 B    13 A                  
 -0.530  -0.488
 12 B    13 B                                                                  
 -- Virtual --                   
 -0.201  -0.049  -0.031   0.009   0.020   0.024   0.038   0.041
 14 A    14 B    15 A    16 A    15 B    17 A    16 B    18 A                  
  0.045   0.047   0.063   0.073   0.088   0.092   0.110   0.147
 19 A    17 B    18 B    20 A    21 A    19 B    20 B    22 A                  
  0.183   0.193   0.199   0.210   0.215   0.226   0.243   0.264
 21 B    23 A    22 B    24 A    23 B    25 A    24 B    26 A                  
  0.266   0.288   0.290   0.292   0.312   0.316   0.321   0.327
 25 B    27 A    26 B    28 A    27 B    28 B    29 A    29 B                  
  0.356   0.359   0.372   0.381   0.384   0.387   0.394   0.406
 30 A    31 A    30 B    31 B    32 B    32 A    33 A    34 A                  
  0.419   0.431   0.435   0.438   0.447   0.460   0.462   0.462
 33 B    34 B    35 A    35 B    36 A    37 A    36 B    38 A                  
  0.477   0.478   0.483   0.510   0.516   0.526   0.527   0.544
 39 A    37 B    38 B    39 B    40 A    40 B    41 A    42 A                  
  0.546   0.589   0.594   0.620   0.624   0.634   0.645   0.672
 41 B    43 A    42 B    43 B    44 A    45 A    44 B    45 B                  
  0.692   0.696   0.711   0.719   0.736   0.751   0.752   0.768
 46 A    47 A    46 B    47 B    48 A    48 B    49 A    49 B                  
  0.777   0.813   0.817   0.821   0.834   0.872   0.883   0.913
 50 B    50 A    51 B    51 A    52 A    53 A    52 B    53 B                  
  0.915   0.925   0.946   0.953   0.959   0.969   0.992   0.996
 54 A    54 B    55 A    56 A    55 B    56 B    57 B    57 A                  
  1.017   1.022   1.031   1.056   1.061   1.065   1.088   1.102
 58 A    59 A    58 B    59 B    60 A    60 B    61 A    61 B                  
  1.126   1.139   1.148   1.177   1.184   1.219   1.238   1.241
 62 A    62 B    63 A    63 B    64 A    64 B    65 A    65 B                  
  1.258   1.271   1.297   1.297   1.334   1.342   1.363   1.366
 66 A    66 B    67 B    67 A    68 A    68 B    69 B    69 A                  
  1.370   1.381   1.388   1.407   1.412   1.427   1.427   1.461
 70 A    70 B    71 A    71 B    72 A    72 B    73 A    73 B                  
  1.488   1.494   1.511   1.524   1.538   1.586   1.603   1.615
 74 B    74 A    75 A    75 B    76 A    76 B    77 A    77 B                  
  1.649   1.674   1.685   1.706   1.723   1.734   1.754   1.761
 78 B    78 A    79 A    79 B    80 B    80 A    81 B    81 A                  
  1.788   1.792   1.824   1.878   1.904   1.910   1.936   1.942
 82 A    82 B    83 A    83 B    84 A    84 B    85 B    85 A                  
  1.968   1.994   2.006   2.015   2.036   2.064   2.065   2.073
 86 A    86 B    87 A    87 B    88 A    89 A    88 B    89 B                  
  2.123   2.125   2.136   2.143   2.222   2.241   2.257   2.272
 90 B    90 A    91 B    91 A    92 B    92 A    93 A    93 B                  
  2.290   2.309   2.326   2.331   2.346   2.382   2.396   2.404
 94 A    94 B    95 A    95 B    96 A    96 B    97 A    97 B                  
  2.414   2.430   2.471   2.486   2.501   2.549   2.553   2.579
 98 B    98 A    99 B    99 A   100 A   100 B   101 A   102 A                  
  2.582   2.603   2.611   2.633   2.646   2.662   2.704   2.720
101 B   102 B   103 A   103 B   104 B   104 A   105 A   105 B                  
  2.741   2.745   2.753   2.766   2.798   2.813   2.826   2.835
106 A   106 B   107 A   107 B   108 A   109 A   108 B   110 A                  
  2.854   2.863   2.868   2.899   2.980   2.990   3.009   3.019
109 B   111 A   110 B   111 B   112 A   112 B   113 B   113 A                  
  3.022   3.024   3.046   3.055   3.063   3.065   3.075   3.095
114 B   114 A   115 B   115 A   116 A   116 B   117 A   117 B                  
  3.113   3.137   3.153   3.164   3.169   3.178   3.186   3.199
118 B   118 A   119 B   119 A   120 A   121 A   120 B   121 B                  
  3.203   3.224   3.232   3.248   3.252   3.269   3.284   3.290
122 A   122 B   123 A   124 A   123 B   125 A   126 A   124 B                  
  3.312   3.314   3.334   3.335   3.339   3.347   3.349   3.374
125 B   127 A   128 A   126 B   127 B   128 B   129 A   130 A                  
  3.385   3.393   3.405   3.414   3.438   3.446   3.453   3.453
129 B   130 B   131 B   131 A   132 A   132 B   133 A   133 B                  
  3.487   3.487   3.531   3.547   3.571   3.572   3.607   3.608
134 B   134 A   135 B   135 A   136 A   137 A   136 B   138 A                  
  3.617   3.622   3.660   3.694   3.699   3.719   3.756   3.768
139 A   137 B   138 B   139 B   140 A   140 B   141 A   141 B                  
  3.774   3.782   3.810   3.820   3.843   3.875   3.880   3.890
142 A   142 B   143 A   143 B   144 A   145 A   144 B   145 B                  
  3.899   3.908   3.928   3.958   3.958   3.990   3.999   4.025
146 A   146 B   147 A   148 A   147 B   149 A   148 B   150 A                  
  4.030   4.046   4.052   4.057   4.074   4.103   4.132   4.145
149 B   151 A   152 A   150 B   151 B   152 B   153 A   153 B                  
  4.157   4.174   4.200   4.241   4.251   4.305   4.307   4.353
154 A   154 B   155 A   155 B   156 A   156 B   157 A   158 A                  
  4.359   4.361   4.366   4.430   4.445   4.473   4.488   4.502
157 B   159 A   158 B   160 A   159 B   161 A   160 B   162 A                  
  4.520   4.555   4.567   4.579   4.600   4.628   4.640   4.668
161 B   163 A   162 B   163 B   164 A   164 B   165 A   165 B                  
  4.705   4.736   4.770   4.773   4.823   4.849   4.895   4.913
166 A   166 B   167 A   167 B   168 A   168 B   169 A   169 B                  
  4.917   4.944   4.964   5.002   5.055   5.085   5.116   5.162
170 A   171 A   170 B   171 B   172 A   172 B   173 A   173 B                  
  5.227   5.232   5.255   5.267   5.323   5.407   5.424   5.484
174 A   174 B   175 B   175 A   176 A   176 B   177 A   177 B                  
  5.492   5.641   5.695   5.805   5.860   5.932   5.960   6.026
178 A   178 B   179 A   179 B   180 A   180 B   181 A   182 A                  
  6.032   6.111   6.372   6.395   6.547   6.563   9.294  10.545
181 B   182 B   183 A   183 B   184 B   184 A   185 A   185 B                  
 11.857  12.308  13.172  13.283  14.621  14.659
186 A   186 B   187 A   187 B   188 A   188 B                                  
 --------------------------------------------------------------
 
          Ground-State Mulliken Net Atomic Charges

     Atom                 Charge (a.u.)    Spin (a.u.)
  --------------------------------------------------------
      1 S                     0.262904      -0.039792
      2 C                    -0.109928      -0.096287
      3 C                    -0.157617       0.478995
      4 C                    -0.126415      -0.302428
      5 C                    -0.055881       0.455851
      6 H                     0.220694       0.023724
      7 C                    -0.056495       0.451984
      8 S                     0.262507      -0.039235
      9 C                    -0.126678      -0.301278
     10 C                    -0.110254      -0.096085
     11 C                    -0.157686       0.478012
     12 H                     0.226112      -0.035367
     13 H                     0.241032       0.016861
     14 H                     0.226181      -0.035440
     15 H                     0.240956       0.016839
     16 H                     0.220570       0.023645
  --------------------------------------------------------
  Sum of atomic charges =     1.000000
  Sum of spin   charges =     1.000000

 -----------------------------------------------------------------
                    Cartesian Multipole Moments
 -----------------------------------------------------------------
    Charge (ESU x 10^10)
                 4.8032
    Dipole Moment (Debye)
         X       0.0151      Y      -0.0004      Z      -0.3128
       Tot       0.3132
    Quadrupole Moments (Debye-Ang)
        XX     -23.3203     XY      -3.9606     YY     -68.8197
        XZ      -0.0002     YZ       0.0027     ZZ     -59.6267
    Octopole Moments (Debye-Ang^2)
       XXX       0.1302    XXY      -0.0058    XYY       0.0172
       YYY      -0.0005    XXZ      10.1707    XYZ      17.1774
       YYZ      -4.6959    XZZ       0.0234    YZZ      -0.0025
       ZZZ      -9.5152
    Hexadecapole Moments (Debye-Ang^3)
      XXXX   -1256.9640   XXXY      -8.9142   XXYY    -340.5083
      XYYY      42.2125   YYYY    -206.2147   XXXZ       0.0132
      XXYZ       0.0092   XYYZ      -0.0018   YYYZ       0.0108
      XXZZ    -328.9703   XYZZ      -1.5179   YYZZ     -94.2033
      XZZZ      -0.0057   YZZZ       0.0138   ZZZZ    -404.0221
 -----------------------------------------------------------------
Archival summary:
1\1\nid01564\OPT\MP2\BasisUnspecified\286(1+,2)\TueMar715:47:152017TueMar715:47:152017\0\\#,OPT,MP2,BasisUnspecified,\\1,2\S\C,1,1.65615\H,2,1.07556,1,120.13\C,2,1.38252,1,114.044,3,178.144,0\H,4,1.07337,2,123.075,1,176.943,0\C,4,1.36999,2,111.508,1,-2.37518,0\H,6,1.07605,4,124.218,2,178.482,0\C,6,1.3905,4,113.722,2,-0.609888,0\C,8,1.42699,6,128.57,4,164.939,0\C,9,1.3905,8,128.57,6,80,0\H,10,1.07605,9,122.054,8,-14.1746,0\C,10,1.36999,9,113.722,8,164.939,0\H,12,1.07337,10,125.413,9,-179.909,0\C,12,1.38252,10,111.508,9,-0.609888,0\H,14,1.07556,12,125.796,10,175.645,0\S,14,1.65615,12,114.044,10,-2.37518,0\\HF=-1101.33691\MP2=-1103.08943\\@

 Total job time:  38448.19s(wall), 186851.38s(cpu) 
 Tue Mar  7 15:47:15 2017

        *************************************************************
        *                                                           *
        *  Thank you very much for using Q-Chem.  Have a nice day.  *
        *                                                           *
        *************************************************************


0 sent ACK to 0 
now end server 0 ... 
