srun -N 1 --ntasks-per-node 1 --cpus-per-task 64 --cpu_bind=cores --nodelist nid01562 /global/project/projectdirs/jcesr/qchem/qc44/cnl_qc441/dist/exe/qcprog.cori.haswell.exe .pt_mp2_hole_40.0.in.59541.qcin.1 /dev/shm/eg_qchem/qchem59541/
Process 0 of 1 is on nid01562 - thread support 0
initial socket setup ...start
initial socket setup ...done 
now start server 0 ... 
nid01562 10.128.6
Q-Chem Developer Version! Running on 10.128.6.*
                  Welcome to Q-Chem
     A Quantum Leap Into The Future Of Chemistry


 Q-Chem 4.4, Q-Chem, Inc., Pleasanton, CA (2016)

 Y. Shao,  Z. Gan,  E. Epifanovsky,  A. T. B. Gilbert,  M. Wormit,  
 J. Kussmann,  A. W. Lange,  A. Behn,  J. Deng,  X. Feng,  D. Ghosh,  
 M. Goldey,  P. R. Horn,  L. D. Jacobson,  I. Kaliman,  F.Rob,  
 R. Z. Khaliullin,  T. Kus,  A. Landau,  J. Liu,  E. I. Proynov,  Y. M. Rhee,  
 R. M. Richard,  M. A. Rohrdanz,  R. P. Steele,  E. J. Sundstrom,  
 H. L. Woodcock III,  P. M. Zimmerman,  D. Zuev,  B. Albrecht,  E. Alguire,  
 B. Austin,  S. A. Baeppler,  G. J. O. Beran,  Y. A. Bernard,  E. Berquist,  
 K. Brandhorst,  K. B. Bravaya,  S. T. Brown,  D. Casanova,  C.-M. Chang,  
 Y. Chen,  S. H. Chien,  K. D. Closser,  M. P. Coons,  D. L. Crittenden,  
 S. Dasgupta,  M. Diedenhofen,  R. A. DiStasio Jr.,  H. Do,  A. D. Dutoi,  
 R. G. Edgar,  P.-T. Fang,  S. Fatehi,  Q. Feng,  L. Fusti-Molnar,  
 A. Ghysels,  A. Golubeva-Zadorozhnaya,  J. Gomes,  A. Gunina,  
 M. W. D. Hanson-Heine,  P. H. P. Harbach,  A. W. Hauser,  E. G. Hohenstein,  
 Z. C. Holden,  K. Hui,  T.-C. Jagau,  H. Ji,  B. Kaduk,  K. Khistyaev,  
 Jaehoon Kim,  Jihan Kim,  R. A. King,  P. Klunzinger,  D. Kosenkov,  
 T. Kowalczyk,  C. M. Krauter,  A. Kunitsa,  K. U. Lao,  A. Laurent,  
 K. V. Lawler,  D. Lefrancois,  S. Lehtola,  S. V. Levchenko,  C. Y. Lin,  
 Y.-S. Lin,  F. Liu,  E. Livshits,  R. C. Lochan,  A. Luenser,  P. Manohar,  
 S. F. Manzer,  S.-P. Mao,  Y. Mao,  N. Mardirossian,  A. V. Marenich,  
 L. A. Martinez-Martinez,  S. A. Maurer,  N. J. Mayhall,  J.-M. Mewes,  
 A. F. Morrison,  K. Nanda,  C. M. Oana,  R. Olivares-Amaya,  D. P. O'Neill,  
 J. A. Parkhill,  T. M. Perrine,  R. Peverati,  P. A. Pieniazek,  F. Plasser,  
 A. Prociuk,  D. R. Rehn,  E. Rosta,  N. J. Russ,  N. Sergueev,  
 S. M. Sharada,  S. Sharma,  D. W. Small,  A. Sodt,  T. Stauch,  T. Stein,  
 D. Stuck,  Y.-C. Su,  A. J. W. Thom,  T. Tsuchimochi,  L. Vogt,  O. Vydrov,  
 T. Wang,  M. A. Watson,  J. Wenzel,  A. White,  C. F. Williams,  
 V. Vanovschi,  S. Yeganeh,  S. R. Yost,  Z.-Q. You,  I. Y. Zhang,  X. Zhang,  
 Y. Zhao,  B. R. Brooks,  G. K. L. Chan,  D. M. Chipman,  C. J. Cramer,  
 W. A. Goddard III,  M. S. Gordon,  W. J. Hehre,  A. Klamt,  
 H. F. Schaefer III,  M. W. Schmidt,  C. D. Sherrill,  D. G. Truhlar,  
 A. Warshel,  X. Xu,  A. Aspuru-Guzik,  R. Baer,  A. T. Bell,  N. A. Besley,  
 J.-D. Chai,  A. Dreuw,  B. D. Dunietz,  T. R. Furlani,  S. R. Gwaltney,  
 C.-P. Hsu,  Y. Jung,  J. Kong,  D. S. Lambrecht,  W. Liang,  C. Ochsenfeld,  
 V. A. Rassolov,  L. V. Slipchenko,  J. E. Subotnik,  T. Van Voorhis,  
 J. M. Herbert,  A. I. Krylov,  P. M. W. Gill,  M. Head-Gordon

 Contributors to earlier versions of Q-Chem not listed above: 
 R. D. Adamson,  J. Baker,  E. F. C. Byrd,  A. K. Chakraborty,  C.-L. Cheng,  
 H. Dachsel,  R. J. Doerksen,  G. Hawkins,  A. Heyden,  S. Hirata,  
 G. Kedziora,  F. J. Keil,  C. Kelley,  P. P. Korambath,  W. Kurlancheek,  
 A. M. Lee,  M. S. Lee,  D. Liotard,  I. Lotan,  P. E. Maslen,  N. Nair,  
 D. Neuhauser,  R. Olson,  B. Peters,  J. Ritchie,  N. E. Schultz,  
 N. Shenvi,  A. C. Simmonett,  K. S. Thanthiriwatte,  Q. Wu,  W. Zhang

 Please cite Q-Chem as follows:
 Y. Shao et al., Mol. Phys. 113, 184-215 (2015)
 DOI: 10.1080/00268976.2014.952696

 Q-Chem 4.4.1 for Intel X86 EM64T Linux

 Parts of Q-Chem use Armadillo 5.200.1 (Boston Tea Smuggler).
 http://arma.sourceforge.net/

 Q-Chem begins on Tue Mar  7 05:06:17 2017  

Host: nid01545
0

     Scratch files written to /dev/shm/eg_qchem/qchem59541//
 Parallel job on  1  processors

Checking the input file for inconsistencies... 	...done.

--------------------------------------------------------------
User input:
--------------------------------------------------------------
$molecule
 1  2
 S           1.81042700       -1.22909900       -0.13996800
 C           3.10211600       -0.18861200       -0.13982200
 C           2.74845300        1.15163900       -0.14006900
 C           1.39169900        1.31613900       -0.14029100
 C           0.68906700        0.11310500       -0.14015500
 H           0.90454800        2.27578700       -0.14040700
 C          -0.68906700       -0.11310500       -0.14015500
 S          -1.37961704       -1.39551463        0.82810429
 C          -1.69871842        0.55430835       -0.83018832
 C          -2.90512639       -1.01150326        0.30233801
 C          -2.94616147        0.05285579       -0.58468299
 H          -3.85931560        0.41987491       -1.01321981
 H           4.10439600       -0.57731800       -0.13934700
 H           3.47107900        1.94537000       -0.13983300
 H          -3.75120924       -1.57439358        0.65298895
 H          -1.50501063        1.38239771       -1.48972279
$end


$rem
         jobtype = opt
        exchange = hf
           basis = cc-pvtz
  max_scf_cycles = 100
      mem_static = 6200
       mem_total = 62000
          method = mp2
$end


$opt
CONSTRAINT
tors 4 5 7 9 40.0
ENDCONSTRAINT
$end

--------------------------------------------------------------
 Atom  16: ( -1.2265359797, -0.7757590290, -2.3096157714)
         ->( -1.2265359785, -0.7757590290, -2.3096157646)
 Atom  14: (  3.7147395833,  0.6378604887, -1.6124185824)
         ->(  3.7147395882,  0.6378604926, -1.6124185837)
 ----------------------------------------------------------------
             Standard Nuclear Orientation (Angstroms)
    I     Atom           X                Y                Z
 ----------------------------------------------------------------
    1      S       1.6096372691    -0.4408827946     1.0782831274
    2      C       3.0382564440    -0.0943501294     0.3101450824
    3      C       2.8845894034     0.3708827359    -0.9865025734
    4      C       1.5677522822     0.4403507630    -1.3456068833
    5      C       0.6975352636     0.0324133746    -0.3369979507
    6      H       1.2265359785     0.7757590290    -2.3096157646
    7      C      -0.6975352646    -0.0324133745    -0.3369979513
    8      S      -1.6096372682     0.4408827928     1.0782831312
    9      C      -1.5677522867    -0.4403507641    -1.3456068810
   10      C      -3.0382564412     0.0943501323     0.3101450809
   11      C      -2.8845894025    -0.3708827327    -0.9865025744
   12      H      -3.7147395882    -0.6378604926    -1.6124185837
   13      H       3.9719917430    -0.2374952956     0.8232782340
   14      H       3.7147395882     0.6378604926    -1.6124185837
   15      H      -3.9719917409     0.2374952986     0.8232782357
   16      H      -1.2265359785    -0.7757590290    -2.3096157646
 ----------------------------------------------------------------
 Molecular Point Group                 C2    NOp =  2
 Largest Abelian Subgroup              C2    NOp =  2
 Nuclear Repulsion Energy =   642.4593073490 hartrees
 There are       43 alpha and       42 beta electrons
 Requested basis set is cc-pVTZ
 There are 140 shells and 392 basis functions

 Total QAlloc Memory Limit  62000 MB
 Mega-Array Size      6061 MB
 MEM_STATIC part      6200 MB
 A cutoff of  1.0D-11 yielded   8066 shell pairs
 There are     62698 function pairs (     81706 Cartesian)
 
 -------------------------------------------------------
 OpenMP Integral Computing Module                       
 Release: version 1.0, May 2013, Q-Chem Inc. Pittsburgh 
 -------------------------------------------------------
 Integral Job Info:
 Integral job number is                      11
 Integral operator is                         1
 short-range coefficients                     0
 long-range coefficients              100000000
 Omega coefficients                           0
 if combine SR and LR in K                    0
 Integral screening is                        0
 Integral computing path is                   2
 max size of driver memory is            800000
 size of driver memory is                776718
 size of scratch memory is             26248924
 max col of scratch BK array              10000
 max len of scratch array in speh3          662
 max len of scratch index in speh4           32
 max int batch size is                      520
 min int batch size is                       52
 fixed nKL is                                52
 max L of basis functions is                  3
 order of int derivative is                   0
 number of shells is                        140
 number of basis is                         448
 number of cartesian basis is               448
 number of contracted shell pairs          8066
 number of primitive shell pairs          28654
 maxK2 (contraction) of shell pair          121
 max number of K2 of shell pair               1
 max number of CS2 of shell pair           1060
 max number of PS2 of shell pair           3150
 mem total for path MDJ                  223748
 -------------------------------------------------------
 Smallest overlap matrix eigenvalue = 6.67E-05

 Scale SEOQF with 1.000000e-01/1.000000e+00/1.000000e-01

 Standard Electronic Orientation quadrupole field applied
 Nucleus-field energy     =     0.0000000132 hartrees
 Guess from superposition of atomic densities
 Warning:  Energy on first SCF cycle will be non-variational
 An unrestricted Hartree-Fock SCF calculation will be
 performed using Pulay DIIS extrapolation
 SCF converges when DIIS error is below 1.0E-08
 using 16 threads for integral computing 
 ---------------------------------------
  Cycle       Energy         DIIS Error
 ---------------------------------------
    1   -1106.2691931216      3.04E-02
    2   -1091.8543017156      1.71E-02
    3   -1100.6154338297      5.51E-03
    4   -1101.1077985742      3.26E-03
    5   -1101.3260318152      7.25E-04
    6   -1101.3413232430      2.20E-04
    7   -1101.3455677830      6.73E-05
    8   -1101.3476587757      4.69E-05
    9   -1101.3493690850      3.43E-05
   10   -1101.3516493073      2.79E-05
   11   -1101.3529548207      2.33E-05
   12   -1101.3537890831      2.03E-05
   13   -1101.3548469378      1.25E-05
   14   -1101.3550059975      4.55E-06
   15   -1101.3550219365      2.05E-06
   16   -1101.3550249995      1.10E-06
   17   -1101.3550261515      4.79E-07
   18   -1101.3550264516      1.91E-07
   19   -1101.3550264989      7.20E-08
   20   -1101.3550265086      4.85E-08
   21   -1101.3550265121      3.37E-08
   22   -1101.3550265135      2.08E-08
   23   -1101.3550265142      7.97E-09 Convergence criterion met
 ---------------------------------------
 <S^2> = 1.0352
 SCF time:  CPU 1056.94 s  wall 66.14 s
 SCF   energy in the final basis set = -1101.3550265142
 Total energy in the final basis set = -1101.3550265142
 
 Components of the MP2 correlation energy:
        aaaa  correlation energy =        -0.2340752794 au
        abab  correlation energy =        -1.3009417821 au
        bbbb  correlation energy =        -0.2113021971 au
        non-Brillouin singles    =        -0.0000000000 au

 Total  MP2   correlation energy =        -1.7463192586 au
        MP2         total energy =     -1103.1013457728 au

  Entering Z-vector solver.
   1         0           1      0.000542    0.000542
   2         0           1      0.000486    0.000486
   3         0           1      0.000319    0.000319
   4         0           1      0.000242    0.000242
   5         0           1      0.000110    0.000110
   6         0           1      0.000057    0.000057
   7         0           1      0.000033    0.000033
   8         0           1      0.000019    0.000019
   9         0           1      0.000009    0.000009
  10         0           1      0.000004    0.000004
  11         0           1      0.000002    0.000002
  12         1           0      0.000000    0.000000    Roots Converged
 Warning:  Cannot save MP2 spin density
 
 --------------------------------------------------------------
             Orbital Energies (a.u.) and Symmetries
 --------------------------------------------------------------
 Warning : Irrep of orbital(   1) could not be determined
 Warning : Irrep of orbital(   2) could not be determined
 
 Alpha MOs, Unrestricted
 -- Occupied --                  
-92.160 -92.160 -11.475 -11.474 -11.451 -11.451 -11.433 -11.433
  0 xxx   0 xxx   1 A     1 B     2 B     2 A     3 B     3 A                  
-11.404 -11.404  -9.162  -9.162  -6.843  -6.843  -6.843  -6.843
  4 A     4 B     5 B     5 A     6 B     6 A     7 A     7 B                  
 -6.840  -6.840  -1.394  -1.364  -1.232  -1.191  -1.184  -1.128
  8 A     8 B     9 A     9 B    10 A    11 A    10 B    11 B                  
 -1.001  -0.958  -0.929  -0.905  -0.890  -0.821  -0.753  -0.751
 12 A    13 A    12 B    13 B    14 A    14 B    15 A    15 B                  
 -0.748  -0.737  -0.732  -0.708  -0.694  -0.665  -0.648  -0.571
 16 A    16 B    17 A    18 A    17 B    19 A    18 B    19 B                  
 -0.538  -0.521  -0.482
 20 A    20 B    21 A                                                          
 -- Virtual --                   
 -0.117  -0.043  -0.005   0.014   0.016   0.022   0.036   0.044
 21 B    22 A    23 A    24 A    22 B    23 B    25 A    24 B                  
  0.046   0.062   0.071   0.083   0.102   0.122   0.151   0.192
 26 A    25 B    27 A    28 A    26 B    27 B    29 A    28 B                  
  0.197   0.197   0.203   0.224   0.230   0.236   0.260   0.267
 30 A    29 B    31 A    32 A    30 B    31 B    32 B    33 A                  
  0.283   0.286   0.295   0.304   0.314   0.321   0.335   0.349
 34 A    33 B    35 A    34 B    35 B    36 A    36 B    37 A                  
  0.364   0.365   0.366   0.379   0.387   0.392   0.394   0.402
 38 A    37 B    39 A    38 B    40 A    39 B    41 A    40 B                  
  0.425   0.428   0.432   0.441   0.450   0.456   0.461   0.464
 42 A    41 B    43 A    42 B    44 A    43 B    45 A    44 B                  
  0.468   0.478   0.509   0.512   0.515   0.527   0.559   0.569
 46 A    45 B    47 A    46 B    48 A    47 B    49 A    48 B                  
  0.575   0.577   0.618   0.624   0.632   0.646   0.678   0.691
 50 A    49 B    51 A    50 B    51 B    52 A    53 A    52 B                  
  0.692   0.709   0.721   0.732   0.743   0.759   0.784   0.793
 54 A    53 B    54 B    55 A    55 B    56 A    56 B    57 A                  
  0.804   0.830   0.841   0.852   0.871   0.887   0.889   0.911
 57 B    58 B    58 A    59 A    59 B    60 A    60 B    61 B                  
  0.912   0.929   0.937   0.949   0.981   0.997   1.003   1.011
 61 A    62 A    63 A    62 B    63 B    64 A    64 B    65 A                  
  1.029   1.029   1.056   1.056   1.066   1.086   1.106   1.112
 65 B    66 A    67 A    66 B    67 B    68 A    68 B    69 B                  
  1.136   1.146   1.152   1.198   1.223   1.237   1.248   1.250
 69 A    70 A    70 B    71 A    71 B    72 A    72 B    73 A                  
  1.281   1.297   1.305   1.331   1.337   1.347   1.358   1.358
 73 B    74 B    74 A    75 B    75 A    76 A    76 B    77 A                  
  1.372   1.383   1.406   1.406   1.421   1.432   1.468   1.482
 78 A    77 B    79 A    78 B    79 B    80 A    80 B    81 A                  
  1.503   1.504   1.530   1.552   1.569   1.597   1.598   1.659
 82 A    81 B    82 B    83 A    83 B    84 A    84 B    85 B                  
  1.667   1.697   1.702   1.719   1.721   1.766   1.768   1.777
 85 A    86 B    86 A    87 A    87 B    88 A    88 B    89 A                  
  1.785   1.799   1.882   1.915   1.919   1.932   1.939   1.999
 89 B    90 A    90 B    91 B    91 A    92 A    92 B    93 A                  
  2.009   2.016   2.032   2.037   2.056   2.074   2.078   2.104
 93 B    94 B    94 A    95 A    95 B    96 B    96 A    97 B                  
  2.107   2.136   2.145   2.215   2.258   2.269   2.272   2.292
 97 A    98 A    98 B    99 A    99 B   100 A   100 B   101 A                  
  2.316   2.316   2.329   2.356   2.371   2.377   2.382   2.424
102 A   101 B   102 B   103 A   104 A   103 B   104 B   105 A                  
  2.435   2.462   2.482   2.500   2.542   2.547   2.570   2.576
105 B   106 B   106 A   107 A   107 B   108 A   108 B   109 A                  
  2.591   2.596   2.618   2.627   2.633   2.694   2.712   2.719
109 B   110 A   110 B   111 A   111 B   112 A   112 B   113 A                  
  2.742   2.751   2.786   2.792   2.821   2.824   2.826   2.836
113 B   114 A   114 B   115 A   115 B   116 A   116 B   117 A                  
  2.846   2.854   2.902   2.948   2.969   2.999   3.007   3.020
118 A   117 B   118 B   119 A   119 B   120 A   120 B   121 A                  
  3.025   3.040   3.048   3.053   3.078   3.082   3.090   3.113
121 B   122 B   123 B   122 A   124 B   123 A   124 A   125 B                  
  3.115   3.126   3.141   3.148   3.176   3.182   3.209   3.214
125 A   126 A   126 B   127 A   128 A   127 B   128 B   129 A                  
  3.231   3.233   3.243   3.271   3.275   3.281   3.286   3.288
130 A   131 A   129 B   130 B   132 A   133 A   131 B   134 A                  
  3.311   3.322   3.326   3.338   3.340   3.348   3.356   3.367
132 B   133 B   135 A   134 B   136 A   135 B   137 A   136 B                  
  3.384   3.394   3.413   3.426   3.441   3.453   3.470   3.478
137 B   138 A   138 B   139 A   139 B   140 A   140 B   141 A                  
  3.501   3.524   3.534   3.566   3.568   3.572   3.611   3.612
141 B   142 B   142 A   143 A   143 B   144 A   144 B   145 A                  
  3.629   3.661   3.709   3.717   3.748   3.761   3.765   3.766
146 A   145 B   146 B   147 A   147 B   148 B   149 B   148 A                  
  3.777   3.817   3.831   3.834   3.854   3.869   3.879   3.881
149 A   150 A   151 A   150 B   151 B   152 A   152 B   153 A                  
  3.928   3.953   3.964   3.972   4.006   4.006   4.025   4.029
153 B   154 A   155 A   154 B   155 B   156 A   156 B   157 A                  
  4.039   4.043   4.049   4.066   4.109   4.119   4.124   4.162
157 B   158 A   158 B   159 A   159 B   160 A   160 B   161 A                  
  4.177   4.206   4.248   4.284   4.313   4.327   4.333   4.353
161 B   162 A   162 B   163 A   164 A   163 B   165 A   166 A                  
  4.355   4.395   4.442   4.445   4.476   4.496   4.510   4.523
164 B   165 B   167 A   166 B   168 A   167 B   169 A   168 B                  
  4.545   4.565   4.579   4.620   4.621   4.653   4.693   4.700
170 A   169 B   170 B   171 A   171 B   172 A   172 B   173 A                  
  4.743   4.783   4.828   4.863   4.869   4.887   4.905   4.915
174 A   173 B   174 B   175 A   176 A   175 B   177 A   176 B                  
  4.915   4.976   5.043   5.049   5.083   5.117   5.171   5.214
178 A   177 B   178 B   179 A   179 B   180 A   180 B   181 A                  
  5.235   5.251   5.259   5.300   5.414   5.417   5.473   5.523
182 A   181 B   182 B   183 A   184 A   183 B   184 B   185 A                  
  5.665   5.722   5.876   5.891   5.944   5.962   6.038   6.041
186 A   185 B   187 A   186 B   188 A   187 B   189 A   188 B                  
  6.197   6.371   6.405   6.538   6.661   9.304  10.905  11.742
189 B   190 A   190 B   191 A   191 B   192 A   192 B   193 A                  
 12.657  13.067  13.610  14.556  14.952
193 B   194 A   194 B   195 A   195 B                                          
 Warning : Irrep of orbital(   1) could not be determined
 Warning : Irrep of orbital(   2) could not be determined
 
 Beta MOs, Unrestricted
 -- Occupied --                  
-92.162 -92.162 -11.475 -11.474 -11.439 -11.439 -11.426 -11.426
  0 xxx   0 xxx   1 A     1 B     2 B     2 A     3 B     3 A                  
-11.410 -11.410  -9.164  -9.164  -6.845  -6.845  -6.844  -6.844
  4 B     4 A     5 B     5 A     6 B     6 A     7 B     7 A                  
 -6.844  -6.844  -1.383  -1.349  -1.221  -1.186  -1.175  -1.104
  8 B     8 A     9 A     9 B    10 A    11 A    10 B    11 B                  
 -0.992  -0.950  -0.918  -0.900  -0.887  -0.817  -0.752  -0.741
 12 A    13 A    12 B    13 B    14 A    14 B    15 A    16 A                  
 -0.735  -0.727  -0.723  -0.682  -0.666  -0.661  -0.646  -0.536
 15 B    17 A    16 B    17 B    18 A    19 A    18 B    19 B                  
 -0.535  -0.504
 20 A    20 B                                                                  
 -- Virtual --                   
 -0.189  -0.054  -0.021   0.008   0.018   0.023   0.031   0.043
 21 A    21 B    22 A    23 A    24 A    22 B    23 B    25 A                  
  0.048   0.058   0.066   0.072   0.092   0.107   0.125   0.153
 24 B    26 A    25 B    27 A    28 A    26 B    27 B    29 A                  
  0.197   0.200   0.201   0.207   0.224   0.231   0.237   0.269
 28 B    30 A    29 B    31 A    32 A    30 B    31 B    32 B                  
  0.273   0.287   0.295   0.299   0.313   0.316   0.320   0.329
 33 A    34 A    33 B    35 A    34 B    35 B    36 A    36 B                  
  0.356   0.367   0.379   0.390   0.391   0.400   0.401   0.406
 37 A    38 A    37 B    38 B    39 A    40 A    39 B    41 A                  
  0.413   0.430   0.430   0.437   0.443   0.455   0.462   0.466
 40 B    41 B    42 A    43 A    42 B    44 A    43 B    45 A                  
  0.468   0.473   0.484   0.513   0.517   0.519   0.532   0.564
 44 B    46 A    45 B    47 A    46 B    48 A    47 B    49 A                  
  0.573   0.576   0.581   0.620   0.626   0.634   0.648   0.683
 48 B    50 A    49 B    51 A    50 B    51 B    52 A    53 A                  
  0.693   0.696   0.714   0.728   0.736   0.746   0.763   0.789
 52 B    54 A    53 B    54 B    55 A    55 B    56 A    56 B                  
  0.797   0.807   0.834   0.845   0.854   0.874   0.888   0.892
 57 A    57 B    58 B    58 A    59 A    59 B    60 A    60 B                  
  0.914   0.915   0.934   0.949   0.956   0.983   0.998   1.006
 61 B    61 A    62 A    63 A    62 B    63 B    64 A    64 B                  
  1.015   1.033   1.034   1.058   1.059   1.067   1.091   1.109
 65 A    66 A    65 B    67 A    66 B    67 B    68 A    68 B                  
  1.116   1.138   1.152   1.158   1.202   1.231   1.245   1.251
 69 B    69 A    70 A    70 B    71 A    71 B    72 A    72 B                  
  1.259   1.286   1.300   1.310   1.336   1.338   1.351   1.360
 73 A    73 B    74 B    74 A    75 B    75 A    76 A    77 A                  
  1.364   1.376   1.384   1.407   1.408   1.423   1.436   1.474
 76 B    78 A    77 B    79 A    78 B    79 B    80 A    80 B                  
  1.486   1.507   1.507   1.532   1.556   1.572   1.598   1.602
 81 A    81 B    82 A    82 B    83 A    83 B    84 A    84 B                  
  1.659   1.670   1.696   1.703   1.718   1.725   1.768   1.770
 85 B    85 A    86 B    86 A    87 A    87 B    88 B    88 A                  
  1.779   1.785   1.800   1.882   1.917   1.919   1.934   1.939
 89 A    89 B    90 A    90 B    91 B    91 A    92 A    92 B                  
  1.998   2.008   2.017   2.033   2.038   2.056   2.076   2.079
 93 A    93 B    94 B    94 A    95 A    95 B    96 B    96 A                  
  2.119   2.122   2.140   2.147   2.217   2.261   2.267   2.279
 97 B    97 A    98 A    98 B    99 A    99 B   100 A   100 B                  
  2.297   2.317   2.318   2.332   2.359   2.380   2.390   2.393
101 A   101 B   102 A   102 B   103 A   103 B   104 A   104 B                  
  2.430   2.442   2.466   2.487   2.502   2.544   2.547   2.576
105 A   105 B   106 B   106 A   107 A   107 B   108 A   108 B                  
  2.585   2.599   2.602   2.624   2.633   2.637   2.700   2.719
109 A   109 B   110 A   110 B   111 A   111 B   112 A   112 B                  
  2.726   2.748   2.755   2.794   2.798   2.825   2.827   2.830
113 A   113 B   114 A   114 B   115 A   115 B   116 A   116 B                  
  2.841   2.854   2.860   2.905   2.952   2.978   2.999   3.016
117 A   118 A   117 B   118 B   119 A   119 B   120 A   120 B                  
  3.026   3.028   3.041   3.051   3.060   3.085   3.087   3.096
121 A   121 B   122 B   123 B   122 A   123 A   124 B   124 A                  
  3.118   3.124   3.131   3.148   3.156   3.182   3.187   3.210
125 B   125 A   126 A   126 B   127 A   128 A   127 B   128 B                  
  3.216   3.234   3.239   3.245   3.275   3.275   3.287   3.293
129 A   130 A   131 A   129 B   132 A   130 B   133 A   134 A                  
  3.294   3.312   3.336   3.336   3.346   3.350   3.350   3.361
131 B   132 B   135 A   133 B   134 B   136 A   135 B   137 A                  
  3.374   3.385   3.398   3.421   3.429   3.444   3.456   3.474
136 B   137 B   138 A   138 B   139 A   139 B   140 A   140 B                  
  3.481   3.504   3.528   3.539   3.569   3.572   3.574   3.617
141 A   141 B   142 B   142 A   143 A   143 B   144 A   145 A                  
  3.617   3.634   3.662   3.712   3.723   3.751   3.764   3.767
144 B   146 A   145 B   146 B   147 A   147 B   148 B   148 A                  
  3.768   3.780   3.819   3.833   3.839   3.858   3.873   3.881
149 B   149 A   150 A   151 A   150 B   151 B   152 A   152 B                  
  3.884   3.930   3.954   3.967   3.975   4.008   4.008   4.027
153 A   153 B   154 A   155 A   154 B   156 A   155 B   156 B                  
  4.032   4.040   4.044   4.052   4.067   4.111   4.119   4.124
157 A   157 B   158 A   158 B   159 A   159 B   160 A   160 B                  
  4.163   4.178   4.208   4.248   4.285   4.314   4.329   4.334
161 A   161 B   162 A   162 B   163 A   164 A   163 B   165 A                  
  4.354   4.356   4.396   4.446   4.449   4.478   4.498   4.511
166 A   164 B   165 B   167 A   166 B   168 A   167 B   169 A                  
  4.523   4.549   4.569   4.579   4.621   4.622   4.654   4.694
168 B   170 A   169 B   170 B   171 A   171 B   172 A   172 B                  
  4.702   4.745   4.785   4.832   4.867   4.871   4.888   4.906
173 A   174 A   173 B   174 B   175 A   176 A   175 B   177 A                  
  4.916   4.918   4.977   5.045   5.050   5.090   5.123   5.172
178 A   176 B   177 B   178 B   179 A   179 B   180 A   180 B                  
  5.216   5.237   5.252   5.261   5.301   5.415   5.418   5.474
181 A   182 A   181 B   182 B   183 A   184 A   183 B   184 B                  
  5.525   5.666   5.723   5.877   5.892   5.945   5.962   6.038
185 A   186 A   185 B   187 A   186 B   188 A   187 B   189 A                  
  6.042   6.197   6.372   6.406   6.538   6.661   9.306  10.909
188 B   189 B   190 A   190 B   191 A   191 B   192 A   192 B                  
 11.746  12.661  13.072  13.609  14.557  14.954
193 A   193 B   194 A   194 B   195 A   195 B                                  
 --------------------------------------------------------------
 
          Ground-State Mulliken Net Atomic Charges

     Atom                 Charge (a.u.)    Spin (a.u.)
  --------------------------------------------------------
      1 S                     0.258905      -0.024883
      2 C                    -0.111884      -0.025537
      3 C                    -0.164953       0.432489
      4 C                    -0.127250      -0.240767
      5 C                    -0.034129       0.358066
      6 H                     0.214193       0.021417
      7 C                    -0.034131       0.358066
      8 S                     0.258904      -0.024883
      9 C                    -0.127247      -0.240767
     10 C                    -0.111879      -0.025537
     11 C                    -0.164957       0.432489
     12 H                     0.224117      -0.033777
     13 H                     0.241002       0.012993
     14 H                     0.224117      -0.033777
     15 H                     0.241001       0.012993
     16 H                     0.214192       0.021417
  --------------------------------------------------------
  Sum of atomic charges =     1.000000
  Sum of spin   charges =     1.000000

 -----------------------------------------------------------------
                    Cartesian Multipole Moments
 -----------------------------------------------------------------
    Charge (ESU x 10^10)
                 4.8032
    Dipole Moment (Debye)
         X       0.0000      Y       0.0000      Z      -0.8790
       Tot       0.8790
    Quadrupole Moments (Debye-Ang)
        XX     -22.3489     XY       0.8714     YY     -71.3730
        XZ      -0.0000     YZ       0.0000     ZZ     -57.4515
    Octopole Moments (Debye-Ang^2)
       XXX      -0.0000    XXY       0.0000    XYY       0.0000
       YYY       0.0000    XXZ       3.4324    XYZ     -13.1928
       YYZ       1.7098    XZZ       0.0000    YZZ       0.0000
       ZZZ      -9.7698
    Hexadecapole Moments (Debye-Ang^3)
      XXXX   -1255.2385   XXXY       7.6809   XXYY    -356.5021
      XYYY      -6.4751   YYYY    -144.7774   XXXZ      -0.0000
      XXYZ      -0.0000   XYYZ      -0.0000   YYYZ       0.0000
      XXZZ    -325.3507   XYZZ      12.3643   YYZZ    -101.9537
      XZZZ      -0.0000   YZZZ      -0.0000   ZZZZ    -446.1964
 -----------------------------------------------------------------
 DrvMan is completing analytic gradient of the MP2 energy
 MP2 relaxed dipole moment
            1
    1   0.0000000
    2   0.0000001
    3  -0.3458170
	Magnitude:	 0.346 au	 0.879 Debye
 MP2 energy read as -1103.101346
 Full Analytical Gradient of MP2 Energy (in au.)
             1             2             3             4             5
    1   -0.00153632    0.00075611   -0.00084863    0.00186038   -0.01099600
    2   -0.00552731   -0.00138705   -0.00017637    0.00865929   -0.00282826
    3   -0.00047756   -0.00058768   -0.00216955    0.00312230    0.00063068
             6             7             8             9            10
    1    0.00096510    0.01099600    0.00153632   -0.00186038   -0.00075611
    2   -0.00058205    0.00282826    0.00552731   -0.00865929    0.00138705
    3   -0.00091803    0.00063067   -0.00047755    0.00312230   -0.00058769
            11            12            13            14            15
    1    0.00084863   -0.00001035   -0.00034046    0.00001035    0.00034046
    2    0.00017637    0.00108296    0.00209333   -0.00108296   -0.00209333
    3   -0.00216955   -0.00043492    0.00083477   -0.00043492    0.00083477
            16
    1   -0.00096510
    2    0.00058205
    3   -0.00091803
 Gradient time:  CPU 1.67 s  wall 0.11 s
 Geometry Optimization Parameters
   NAtoms,    NIC,     NZ,  NCons,   NDum,   NFix, NCnnct, MaxDiis
       16     111       0       1       0       0       0       0


** CONSTRAINED OPTIMIZATION IN DELOCALIZED INTERNAL COORDINATES **
   Searching for a Minimum

   Optimization Cycle:   1

                       Coordinates (Angstroms)
     ATOM                X               Y               Z
      1  S         1.6096372687   -0.4408827937    1.0782831293
      2  C         3.0382564426   -0.0943501308    0.3101450816
      3  C         2.8845894029    0.3708827343   -0.9865025739
      4  C         1.5677522844    0.4403507635   -1.3456068821
      5  C         0.6975352641    0.0324133746   -0.3369979510
      6  H         1.2265359785    0.7757590290   -2.3096157646
      7  C        -0.6975352641   -0.0324133746   -0.3369979510
      8  S        -1.6096372687    0.4408827937    1.0782831293
      9  C        -1.5677522844   -0.4403507635   -1.3456068821
     10  C        -3.0382564426    0.0943501308    0.3101450816
     11  C        -2.8845894029   -0.3708827343   -0.9865025739
     12  H        -3.7147395882   -0.6378604926   -1.6124185837
     13  H         3.9719917419   -0.2374952971    0.8232782348
     14  H         3.7147395882    0.6378604926   -1.6124185837
     15  H        -3.9719917419    0.2374952971    0.8232782348
     16  H        -1.2265359785   -0.7757590290   -2.3096157646
   Point Group: c2    Number of degrees of freedom:    22


   Energy is  -1103.101345773

              Constraints and their Current Values
                                        Value     Constraint
   Dihedral:        4   5   7   9       40.000       40.000

 Attempting to Generate Delocalized Internal Coordinates

 21 Hessian modes will be used to form the next step
  Hessian Eigenvalues:
     0.045000    0.045000    0.045000    0.045000    0.045000    0.045000
     0.160000    0.160000    0.160000    0.221335    0.237679    0.250000
     0.299411    0.364554    0.366034    0.368031    0.392996    0.445237
     0.461927    0.467905    0.501257

 Minimum Search - Taking Simple RFO Step
 Searching for Lamda that Minimizes Along All modes
 Value Taken    Lamda =  -0.00212366
 Step Taken.  Stepsize is  0.193680

                             Maximum     Tolerance    Cnvgd?
         Gradient           0.005601      0.000300      NO
         Displacement       0.102417      0.001200      NO
         Energy change     *********      0.000001      NO


 New Cartesian Coordinates Obtained by Inverse Iteration

 Displacement from previous Coordinates is:  0.226240
 ----------------------------------------------------------------
             Standard Nuclear Orientation (Angstroms)
    I     Atom           X                Y                Z
 ----------------------------------------------------------------
    1      S       1.6189248217    -0.3922271469     1.0960558866
    2      C       3.0463156758    -0.0790715722     0.3147922955
    3      C       2.8882328619     0.3611662260    -0.9888460356
    4      C       1.5700388609     0.4083541516    -1.3523655206
    5      C       0.7038641950     0.0174090609    -0.3374239016
    6      H       1.2197017335     0.7305590608    -2.3170660407
    7      C      -0.7038641950    -0.0174090609    -0.3374239016
    8      S      -1.6189248217     0.3922271469     1.0960558866
    9      C      -1.5700388609    -0.4083541516    -1.3523655206
   10      C      -3.0463156758     0.0790715722     0.3147922955
   11      C      -2.8882328619    -0.3611662260    -0.9888460356
   12      H      -3.7164060531    -0.6259422093    -1.6183245484
   13      H       3.9824004011    -0.2236997341     0.8237425551
   14      H       3.7164060531     0.6259422093    -1.6183245484
   15      H      -3.9824004011     0.2236997341     0.8237425551
   16      H      -1.2197017335    -0.7305590608    -2.3170660407
 ----------------------------------------------------------------
 Molecular Point Group                 C2    NOp =  2
 Largest Abelian Subgroup              C2    NOp =  2
 Nuclear Repulsion Energy =   641.9991904704 hartrees
 There are       43 alpha and       42 beta electrons
 Applying Cartesian multipole field
    Component          Value
    ---------          -----
     (2,0,0)        1.00000E-11
     (0,2,0)        2.00000E-10
     (0,0,2)       -3.00000E-11
 Nucleus-field energy     =     0.0000000117 hartrees
 Requested basis set is cc-pVTZ
 There are 140 shells and 392 basis functions
 A cutoff of  1.0D-11 yielded   8060 shell pairs
 There are     62648 function pairs (     81646 Cartesian)
 Smallest overlap matrix eigenvalue = 7.16E-05
 Guess MOs from SCF MO coefficient file
 Reading MOs from coefficient file
 Reading MOs from coefficient file
 An unrestricted Hartree-Fock SCF calculation will be
 performed using Pulay DIIS extrapolation
 SCF converges when DIIS error is below 1.0E-08
 Geometry optimization detected.  Setting ReadMinima to 0
 Setting SaveMinima to 0
 using 16 threads for integral computing 
 ---------------------------------------
  Cycle       Energy         DIIS Error
 ---------------------------------------
    1   -1101.3534864201      6.26E-04
    2   -1101.3570044906      7.23E-05
    3   -1101.3572639612      2.86E-05
    4   -1101.3573067112      1.47E-05
    5   -1101.3573158061      5.09E-06
    6   -1101.3573172646      1.75E-06
    7   -1101.3573176415      8.36E-07
    8   -1101.3573177376      2.66E-07
    9   -1101.3573177630      1.38E-07
   10   -1101.3573177708      7.24E-08
   11   -1101.3573177753      4.68E-08
   12   -1101.3573177773      3.02E-08
   13   -1101.3573177788      1.69E-08
   14   -1101.3573177794      1.06E-08
   15   -1101.3573177796      6.77E-09 Convergence criterion met
 ---------------------------------------
 <S^2> = 1.0333
 SCF time:  CPU 1100.92 s  wall 68.86 s
 SCF   energy in the final basis set = -1101.3573177796
 Total energy in the final basis set = -1101.3573177796
 
 Components of the MP2 correlation energy:
        aaaa  correlation energy =        -0.2338555106 au
        abab  correlation energy =        -1.3005334658 au
        bbbb  correlation energy =        -0.2112948233 au
        non-Brillouin singles    =        -0.0000000000 au

 Total  MP2   correlation energy =        -1.7456837997 au
        MP2         total energy =     -1103.1030015793 au

  Entering Z-vector solver.
   1         0           1      0.000541    0.000541
   2         0           1      0.000484    0.000484
   3         0           1      0.000316    0.000316
   4         0           1      0.000237    0.000237
   5         0           1      0.000107    0.000107
   6         0           1      0.000056    0.000056
   7         0           1      0.000033    0.000033
   8         0           1      0.000019    0.000019
   9         0           1      0.000008    0.000008
  10         0           1      0.000004    0.000004
  11         0           1      0.000002    0.000002
  12         1           0      0.000000    0.000000    Roots Converged
 Warning:  Cannot save MP2 spin density
 
 --------------------------------------------------------------
             Orbital Energies (a.u.) and Symmetries
 --------------------------------------------------------------
 
 Alpha MOs, Unrestricted
 -- Occupied --                  
-92.160 -92.160 -11.476 -11.475 -11.451 -11.451 -11.433 -11.433
  1 A     1 B     2 A     2 B     3 B     3 A     4 B     4 A                  
-11.404 -11.404  -9.162  -9.162  -6.843  -6.843  -6.842  -6.842
  5 A     5 B     6 B     6 A     7 B     7 A     8 A     8 B                  
 -6.840  -6.840  -1.394  -1.365  -1.231  -1.191  -1.184  -1.129
  9 A     9 B    10 A    10 B    11 A    12 A    11 B    12 B                  
 -0.999  -0.959  -0.929  -0.905  -0.890  -0.822  -0.752  -0.752
 13 A    14 A    13 B    14 B    15 A    15 B    16 A    16 B                  
 -0.749  -0.737  -0.731  -0.710  -0.694  -0.665  -0.646  -0.575
 17 A    17 B    18 A    19 A    18 B    20 A    19 B    20 B                  
 -0.537  -0.521  -0.481
 21 A    21 B    22 A                                                          
 -- Virtual --                   
 -0.117  -0.041  -0.005   0.014   0.017   0.022   0.038   0.044
 22 B    23 A    24 A    25 A    23 B    24 B    26 A    25 B                  
  0.045   0.063   0.071   0.080   0.104   0.126   0.150   0.193
 27 A    26 B    28 A    29 A    27 B    28 B    30 A    29 B                  
  0.196   0.200   0.201   0.223   0.227   0.237   0.260   0.266
 31 A    30 B    32 A    33 A    31 B    32 B    33 B    34 A                  
  0.284   0.286   0.297   0.303   0.314   0.322   0.337   0.350
 35 A    34 B    36 A    35 B    36 B    37 A    37 B    38 A                  
  0.364   0.365   0.371   0.379   0.386   0.392   0.394   0.402
 39 A    38 B    40 A    39 B    41 A    40 B    42 A    41 B                  
  0.424   0.426   0.435   0.441   0.451   0.455   0.462   0.464
 43 A    42 B    44 A    43 B    45 A    44 B    46 A    45 B                  
  0.469   0.477   0.508   0.512   0.514   0.528   0.561   0.565
 47 A    46 B    48 A    47 B    49 A    48 B    50 A    49 B                  
  0.574   0.579   0.618   0.625   0.640   0.644   0.679   0.690
 51 A    50 B    52 A    51 B    52 B    53 A    54 A    53 B                  
  0.690   0.711   0.724   0.730   0.747   0.755   0.781   0.789
 55 A    54 B    55 B    56 A    56 B    57 A    57 B    58 A                  
  0.809   0.823   0.843   0.851   0.874   0.889   0.897   0.913
 58 B    59 B    59 A    60 A    60 B    61 A    61 B    62 A                  
  0.914   0.923   0.938   0.947   0.977   0.995   0.998   1.009
 62 B    63 A    64 A    63 B    64 B    65 A    65 B    66 A                  
  1.029   1.031   1.053   1.056   1.069   1.090   1.103   1.110
 66 B    67 A    67 B    68 A    68 B    69 A    69 B    70 B                  
  1.137   1.144   1.151   1.191   1.222   1.229   1.247   1.252
 70 A    71 A    71 B    72 A    72 B    73 A    74 A    73 B                  
  1.282   1.302   1.303   1.331   1.336   1.344   1.357   1.358
 74 B    75 A    75 B    76 A    76 B    77 A    78 A    77 B                  
  1.376   1.384   1.404   1.404   1.423   1.431   1.469   1.480
 79 A    78 B    79 B    80 A    80 B    81 A    81 B    82 A                  
  1.499   1.500   1.528   1.552   1.573   1.596   1.618   1.659
 83 A    82 B    83 B    84 A    84 B    85 A    85 B    86 A                  
  1.662   1.699   1.704   1.715   1.717   1.760   1.764   1.785
 86 B    87 B    87 A    88 B    88 A    89 B    89 A    90 B                  
  1.786   1.797   1.884   1.914   1.917   1.936   1.937   1.997
 90 A    91 A    91 B    92 B    92 A    93 B    93 A    94 A                  
  2.008   2.022   2.029   2.037   2.058   2.071   2.079   2.104
 94 B    95 B    95 A    96 A    96 B    97 B    97 A    98 B                  
  2.106   2.132   2.142   2.223   2.248   2.267   2.273   2.297
 98 A    99 A    99 B   100 A   100 B   101 A   101 B   102 A                  
  2.315   2.316   2.326   2.355   2.372   2.374   2.389   2.421
102 B   103 A   103 B   104 A   105 A   104 B   105 B   106 A                  
  2.434   2.469   2.481   2.501   2.542   2.547   2.569   2.576
106 B   107 B   107 A   108 A   109 A   108 B   109 B   110 A                  
  2.593   2.595   2.621   2.627   2.633   2.697   2.714   2.718
110 B   111 A   111 B   112 A   112 B   113 A   113 B   114 A                  
  2.736   2.749   2.779   2.790   2.819   2.824   2.832   2.837
114 B   115 A   115 B   116 A   116 B   117 A   118 A   117 B                  
  2.845   2.856   2.907   2.942   2.973   2.999   3.005   3.007
119 A   118 B   119 B   120 A   120 B   121 A   121 B   122 A                  
  3.031   3.043   3.049   3.052   3.076   3.076   3.082   3.110
122 B   123 B   124 B   123 A   125 B   124 A   125 A   126 B                  
  3.122   3.123   3.137   3.142   3.178   3.178   3.214   3.214
126 A   127 A   127 B   128 A   129 A   128 B   129 B   130 A                  
  3.229   3.234   3.249   3.274   3.276   3.279   3.282   3.287
131 A   132 A   130 B   133 A   131 B   134 A   132 B   135 A                  
  3.310   3.321   3.326   3.334   3.342   3.346   3.356   3.370
133 B   134 B   136 A   135 B   137 A   136 B   138 A   137 B                  
  3.381   3.392   3.416   3.425   3.442   3.450   3.457   3.482
138 B   139 A   139 B   140 A   140 B   141 A   141 B   142 A                  
  3.498   3.521   3.535   3.563   3.564   3.574   3.613   3.614
142 B   143 B   143 A   144 B   144 A   145 A   146 A   145 B                  
  3.626   3.656   3.710   3.718   3.741   3.758   3.764   3.764
147 A   146 B   147 B   148 A   148 B   149 B   149 A   150 B                  
  3.780   3.815   3.830   3.834   3.855   3.872   3.878   3.879
150 A   151 A   152 A   151 B   152 B   153 A   154 A   153 B                  
  3.931   3.948   3.966   3.974   4.002   4.013   4.024   4.029
154 B   155 A   156 A   155 B   157 A   156 B   157 B   158 A                  
  4.037   4.040   4.050   4.057   4.114   4.116   4.125   4.159
158 B   159 A   159 B   160 A   160 B   161 A   161 B   162 A                  
  4.179   4.206   4.249   4.281   4.313   4.328   4.332   4.349
162 B   163 A   163 B   164 A   165 A   166 A   164 B   167 A                  
  4.354   4.400   4.438   4.443   4.474   4.498   4.507   4.521
165 B   166 B   168 A   167 B   169 A   168 B   170 A   169 B                  
  4.544   4.562   4.583   4.612   4.632   4.649   4.694   4.697
171 A   170 B   171 B   172 A   172 B   173 A   173 B   174 A                  
  4.739   4.790   4.824   4.856   4.860   4.884   4.904   4.912
175 A   174 B   175 B   176 A   177 A   176 B   178 A   179 A                  
  4.916   4.974   5.036   5.047   5.081   5.112   5.172   5.206
177 B   178 B   179 B   180 A   180 B   181 A   181 B   182 A                  
  5.233   5.252   5.257   5.300   5.413   5.421   5.471   5.521
183 A   182 B   183 B   184 A   185 A   184 B   185 B   186 A                  
  5.664   5.719   5.868   5.888   5.943   5.961   6.030   6.048
187 A   186 B   188 A   187 B   189 A   188 B   190 A   189 B                  
  6.222   6.373   6.415   6.534   6.651   9.281  10.868  11.751
190 B   191 A   191 B   192 A   192 B   193 A   193 B   194 A                  
 12.553  13.078  13.583  14.546  14.943
194 B   195 A   195 B   196 A   196 B                                          
 
 Beta MOs, Unrestricted
 -- Occupied --                  
-92.161 -92.161 -11.476 -11.475 -11.439 -11.439 -11.426 -11.426
  1 A     1 B     2 A     2 B     3 B     3 A     4 B     4 A                  
-11.410 -11.410  -9.164  -9.164  -6.845  -6.845  -6.844  -6.844
  5 B     5 A     6 B     6 A     7 B     7 A     8 B     8 A                  
 -6.843  -6.843  -1.382  -1.350  -1.219  -1.187  -1.175  -1.106
  9 B     9 A    10 A    10 B    11 A    12 A    11 B    12 B                  
 -0.991  -0.951  -0.918  -0.900  -0.888  -0.818  -0.751  -0.742
 13 A    14 A    13 B    14 B    15 A    15 B    16 A    17 A                  
 -0.736  -0.727  -0.721  -0.683  -0.666  -0.662  -0.645  -0.536
 16 B    18 A    17 B    18 B    19 A    20 A    19 B    20 B                  
 -0.533  -0.506
 21 A    21 B                                                                  
 -- Virtual --                   
 -0.188  -0.055  -0.021   0.008   0.019   0.024   0.032   0.043
 22 A    22 B    23 A    24 A    25 A    23 B    24 B    26 A                  
  0.046   0.059   0.066   0.072   0.090   0.108   0.129   0.152
 25 B    27 A    26 B    28 A    29 A    27 B    28 B    30 A                  
  0.197   0.200   0.204   0.204   0.223   0.228   0.239   0.269
 29 B    31 A    30 B    32 A    33 A    31 B    32 B    33 B                  
  0.272   0.288   0.295   0.300   0.313   0.316   0.321   0.331
 34 A    35 A    34 B    36 A    35 B    36 B    37 A    37 B                  
  0.356   0.369   0.378   0.390   0.391   0.398   0.401   0.409
 38 A    39 A    38 B    39 B    40 A    41 A    40 B    42 A                  
  0.413   0.428   0.429   0.440   0.443   0.457   0.461   0.467
 41 B    42 B    43 A    44 A    43 B    45 A    44 B    46 A                  
  0.468   0.473   0.484   0.513   0.517   0.518   0.533   0.565
 45 B    47 A    46 B    48 A    47 B    49 A    48 B    50 A                  
  0.569   0.575   0.584   0.620   0.627   0.642   0.646   0.682
 49 B    51 A    50 B    52 A    51 B    52 B    53 A    54 A                  
  0.692   0.695   0.716   0.730   0.735   0.751   0.759   0.787
 53 B    55 A    54 B    55 B    56 A    56 B    57 A    57 B                  
  0.793   0.813   0.826   0.847   0.854   0.877   0.890   0.900
 58 A    58 B    59 B    59 A    60 A    60 B    61 A    61 B                  
  0.916   0.917   0.928   0.949   0.954   0.979   0.997   1.001
 62 A    62 B    63 A    64 A    63 B    64 B    65 A    65 B                  
  1.013   1.034   1.035   1.055   1.058   1.070   1.095   1.106
 66 A    66 B    67 A    67 B    68 A    68 B    69 A    69 B                  
  1.113   1.138   1.152   1.157   1.194   1.230   1.236   1.254
 70 B    70 A    71 A    71 B    72 A    72 B    73 A    73 B                  
  1.257   1.288   1.307   1.307   1.333   1.341   1.348   1.359
 74 A    74 B    75 B    75 A    76 A    76 B    77 A    78 A                  
  1.364   1.380   1.384   1.405   1.407   1.426   1.435   1.475
 77 B    79 A    78 B    80 A    79 B    80 B    81 A    81 B                  
  1.483   1.503   1.503   1.529   1.555   1.577   1.597   1.621
 82 A    83 A    82 B    83 B    84 A    84 B    85 A    85 B                  
  1.662   1.662   1.698   1.704   1.715   1.719   1.761   1.767
 86 A    86 B    87 B    87 A    88 A    88 B    89 B    89 A                  
  1.784   1.787   1.798   1.884   1.916   1.917   1.936   1.940
 90 B    90 A    91 A    91 B    92 B    92 A    93 B    93 A                  
  1.996   2.007   2.022   2.030   2.038   2.057   2.073   2.079
 94 A    94 B    95 B    95 A    96 A    96 B    97 B    97 A                  
  2.119   2.121   2.137   2.144   2.225   2.258   2.266   2.272
 98 B    98 A    99 A    99 B   100 A   100 B   101 A   101 B                  
  2.302   2.317   2.317   2.330   2.358   2.383   2.390   2.396
102 A   103 A   102 B   103 B   104 A   104 B   105 A   105 B                  
  2.427   2.442   2.473   2.486   2.503   2.543   2.549   2.575
106 A   106 B   107 B   107 A   108 A   109 A   108 B   109 B                  
  2.585   2.599   2.601   2.626   2.633   2.637   2.703   2.720
110 A   110 B   111 A   111 B   112 A   112 B   113 A   113 B                  
  2.725   2.742   2.754   2.788   2.795   2.822   2.827   2.839
114 A   114 B   115 A   115 B   116 A   116 B   117 A   118 A                  
  2.843   2.853   2.862   2.909   2.947   2.980   2.998   3.014
117 B   119 A   118 B   119 B   120 A   120 B   121 A   122 A                  
  3.015   3.034   3.044   3.054   3.058   3.078   3.085   3.089
121 B   122 B   123 B   124 B   123 A   124 A   125 B   125 A                  
  3.116   3.128   3.131   3.144   3.151   3.183   3.184   3.215
126 B   126 A   127 A   127 B   128 A   128 B   129 A   129 B                  
  3.217   3.230   3.241   3.251   3.274   3.281   3.287   3.289
130 A   131 A   132 A   130 B   133 A   131 B   134 A   132 B                  
  3.290   3.311   3.333   3.336   3.344   3.349   3.351   3.361
135 A   133 B   134 B   136 A   135 B   136 B   137 A   138 A                  
  3.377   3.382   3.396   3.424   3.429   3.445   3.453   3.460
137 B   138 B   139 A   139 B   140 A   140 B   141 A   141 B                  
  3.485   3.502   3.526   3.540   3.567   3.568   3.576   3.617
142 A   142 B   143 B   143 A   144 B   144 A   145 A   146 A                  
  3.620   3.631   3.658   3.713   3.724   3.745   3.761   3.764
145 B   147 A   146 B   147 B   148 A   148 B   149 B   149 A                  
  3.766   3.784   3.818   3.833   3.838   3.858   3.876   3.881
150 B   150 A   151 A   152 A   151 B   152 B   153 A   153 B                  
  3.882   3.933   3.949   3.968   3.977   4.004   4.015   4.026
154 A   154 B   155 A   156 A   155 B   157 A   156 B   157 B                  
  4.031   4.038   4.041   4.053   4.058   4.116   4.117   4.126
158 A   158 B   159 A   159 B   160 A   160 B   161 A   161 B                  
  4.160   4.181   4.207   4.249   4.282   4.314   4.329   4.334
162 A   162 B   163 A   163 B   164 A   165 A   166 A   164 B                  
  4.350   4.355   4.401   4.442   4.447   4.476   4.500   4.509
167 A   165 B   166 B   168 A   167 B   169 A   168 B   170 A                  
  4.522   4.548   4.565   4.584   4.613   4.633   4.650   4.695
169 B   171 A   170 B   171 B   172 A   172 B   173 A   173 B                  
  4.699   4.742   4.792   4.828   4.860   4.862   4.885   4.905
174 A   175 A   174 B   175 B   176 A   177 A   176 B   178 A                  
  4.914   4.919   4.975   5.038   5.048   5.087   5.118   5.173
179 A   177 B   178 B   179 B   180 A   180 B   181 A   181 B                  
  5.208   5.235   5.253   5.259   5.301   5.415   5.422   5.472
182 A   183 A   182 B   183 B   184 A   185 A   184 B   185 B                  
  5.523   5.665   5.720   5.869   5.889   5.944   5.961   6.030
186 A   187 A   186 B   188 A   187 B   189 A   188 B   190 A                  
  6.049   6.222   6.374   6.416   6.534   6.651   9.283  10.872
189 B   190 B   191 A   191 B   192 A   192 B   193 A   193 B                  
 11.755  12.557  13.083  13.584  14.547  14.946
194 A   194 B   195 A   195 B   196 A   196 B                                  
 --------------------------------------------------------------
 
          Ground-State Mulliken Net Atomic Charges

     Atom                 Charge (a.u.)    Spin (a.u.)
  --------------------------------------------------------
      1 S                     0.254778      -0.026617
      2 C                    -0.112929      -0.020682
      3 C                    -0.163591       0.426843
      4 C                    -0.125644      -0.232136
      5 C                    -0.033906       0.352699
      6 H                     0.214973       0.020819
      7 C                    -0.033906       0.352699
      8 S                     0.254778      -0.026617
      9 C                    -0.125644      -0.232136
     10 C                    -0.112929      -0.020682
     11 C                    -0.163591       0.426843
     12 H                     0.224669      -0.033372
     13 H                     0.241650       0.012446
     14 H                     0.224669      -0.033372
     15 H                     0.241650       0.012446
     16 H                     0.214973       0.020819
  --------------------------------------------------------
  Sum of atomic charges =     1.000000
  Sum of spin   charges =     1.000000

 -----------------------------------------------------------------
                    Cartesian Multipole Moments
 -----------------------------------------------------------------
    Charge (ESU x 10^10)
                 4.8032
    Dipole Moment (Debye)
         X       0.0000      Y       0.0000      Z      -0.8472
       Tot       0.8472
    Quadrupole Moments (Debye-Ang)
        XX     -22.1352     XY       1.0378     YY     -71.6564
        XZ      -0.0000     YZ      -0.0000     ZZ     -57.3148
    Octopole Moments (Debye-Ang^2)
       XXX       0.0000    XXY       0.0000    XYY       0.0000
       YYY      -0.0000    XXZ       3.5168    XYZ     -12.6102
       YYZ       1.4113    XZZ       0.0000    YZZ       0.0000
       ZZZ     -10.7460
    Hexadecapole Moments (Debye-Ang^3)
      XXXX   -1258.7062   XXXY       4.7103   XXYY    -357.7061
      XYYY     -10.2527   YYYY    -135.9007   XXXZ       0.0000
      XXYZ      -0.0000   XYYZ       0.0000   YYYZ      -0.0000
      XXZZ    -327.6532   XYZZ      11.0588   YYZZ    -102.8680
      XZZZ      -0.0000   YZZZ      -0.0000   ZZZZ    -452.7771
 -----------------------------------------------------------------
 DrvMan is completing analytic gradient of the MP2 energy
 MP2 relaxed dipole moment
            1
    1   0.0000000
    2   0.0000000
    3  -0.3333101
	Magnitude:	 0.333 au	 0.847 Debye
 MP2 energy read as -1103.103002
 Full Analytical Gradient of MP2 Energy (in au.)
             1             2             3             4             5
    1    0.00088360    0.00032646   -0.00019739   -0.00022391   -0.00009985
    2   -0.00152093   -0.00257740    0.00080268    0.00622007   -0.00566322
    3   -0.00062351   -0.00005360    0.00016356    0.00337951   -0.00307064
             6             7             8             9            10
    1    0.00010974    0.00009985   -0.00088360    0.00022391   -0.00032646
    2   -0.00008915    0.00566322    0.00152093   -0.00622007    0.00257740
    3   -0.00007712   -0.00307064   -0.00062351    0.00337951   -0.00005360
            11            12            13            14            15
    1    0.00019739   -0.00006352    0.00003833    0.00006352   -0.00003833
    2   -0.00080268    0.00049765    0.00093532   -0.00049765   -0.00093532
    3    0.00016356   -0.00009050    0.00037231   -0.00009050    0.00037231
            16
    1   -0.00010974
    2    0.00008915
    3   -0.00007712
 Gradient time:  CPU 1.47 s  wall 0.10 s
 Geometry Optimization Parameters
   NAtoms,    NIC,     NZ,  NCons,   NDum,   NFix, NCnnct, MaxDiis
       16     111       0       1       0       0       0       0

 Cartesian Hessian Update
 Hessian Updated using BFGS Update


** CONSTRAINED OPTIMIZATION IN DELOCALIZED INTERNAL COORDINATES **
   Searching for a Minimum

   Optimization Cycle:   2

                       Coordinates (Angstroms)
     ATOM                X               Y               Z
      1  S         1.6189248217   -0.3922271469    1.0960558866
      2  C         3.0463156758   -0.0790715722    0.3147922955
      3  C         2.8882328619    0.3611662260   -0.9888460356
      4  C         1.5700388609    0.4083541516   -1.3523655206
      5  C         0.7038641950    0.0174090609   -0.3374239016
      6  H         1.2197017335    0.7305590608   -2.3170660407
      7  C        -0.7038641950   -0.0174090609   -0.3374239016
      8  S        -1.6189248217    0.3922271469    1.0960558866
      9  C        -1.5700388609   -0.4083541516   -1.3523655206
     10  C        -3.0463156758    0.0790715722    0.3147922955
     11  C        -2.8882328619   -0.3611662260   -0.9888460356
     12  H        -3.7164060531   -0.6259422093   -1.6183245484
     13  H         3.9824004011   -0.2236997341    0.8237425551
     14  H         3.7164060531    0.6259422093   -1.6183245484
     15  H        -3.9824004011    0.2236997341    0.8237425551
     16  H        -1.2197017335   -0.7305590608   -2.3170660407
   Point Group: c2    Number of degrees of freedom:    22


   Energy is  -1103.103001579

              Constraints and their Current Values
                                        Value     Constraint
   Dihedral:        4   5   7   9       40.000       40.000
 Hessian Updated using BFGS Update

 16 Hessian modes will be used to form the next step
  Hessian Eigenvalues:
     0.020513    0.051700    0.159945    0.160780    0.222379    0.239519
     0.246743    0.300283    0.364595    0.366082    0.368031    0.393878
     0.446521    0.467549    0.494331    0.536555

 Minimum Search - Taking Simple RFO Step
 Searching for Lamda that Minimizes Along All modes
 Value Taken    Lamda =  -0.00136001
 Step Taken.  Stepsize is  0.244779

                             Maximum     Tolerance    Cnvgd?
         Gradient           0.004173      0.000300      NO
         Displacement       0.176965      0.001200      NO
         Energy change     -0.001656      0.000001      NO


 New Cartesian Coordinates Obtained by Inverse Iteration

 Displacement from previous Coordinates is:  0.363398
 ----------------------------------------------------------------
             Standard Nuclear Orientation (Angstroms)
    I     Atom           X                Y                Z
 ----------------------------------------------------------------
    1      S       1.6161744169    -0.3397069519     1.1185752814
    2      C       3.0415886411    -0.0450904633     0.3252656435
    3      C       2.8849129196     0.3378349693    -0.9956731186
    4      C       1.5673825221     0.3564389656    -1.3633901688
    5      C       0.7052883203    -0.0080417140    -0.3350479238
    6      H       1.2104688379     0.6525182061    -2.3338255006
    7      C      -0.7052883203     0.0080417140    -0.3350479238
    8      S      -1.6161744169     0.3397069519     1.1185752814
    9      C      -1.5673825221    -0.3564389656    -1.3633901688
   10      C      -3.0415886411     0.0450904633     0.3252656435
   11      C      -2.8849129196    -0.3378349693    -0.9956731186
   12      H      -3.7113344144    -0.5944990714    -1.6308773969
   13      H       3.9785286859    -0.1782413728     0.8355378742
   14      H       3.7113344144     0.5944990714    -1.6308773969
   15      H      -3.9785286859     0.1782413728     0.8355378742
   16      H      -1.2104688379    -0.6525182061    -2.3338255006
 ----------------------------------------------------------------
 Molecular Point Group                 C2    NOp =  2
 Largest Abelian Subgroup              C2    NOp =  2
 Nuclear Repulsion Energy =   642.4770018203 hartrees
 There are       43 alpha and       42 beta electrons
 Applying Cartesian multipole field
    Component          Value
    ---------          -----
     (2,0,0)        1.00000E-11
     (0,2,0)        2.00000E-10
     (0,0,2)       -3.00000E-11
 Nucleus-field energy     =     0.0000000098 hartrees
 Requested basis set is cc-pVTZ
 There are 140 shells and 392 basis functions
 A cutoff of  1.0D-11 yielded   8066 shell pairs
 There are     62690 function pairs (     81694 Cartesian)
 Smallest overlap matrix eigenvalue = 8.08E-05
 Guess MOs from SCF MO coefficient file
 Reading MOs from coefficient file
 Reading MOs from coefficient file
 An unrestricted Hartree-Fock SCF calculation will be
 performed using Pulay DIIS extrapolation
 SCF converges when DIIS error is below 1.0E-08
 Geometry optimization detected.  Setting ReadMinima to 0
 Setting SaveMinima to 0
 using 16 threads for integral computing 
 ---------------------------------------
  Cycle       Energy         DIIS Error
 ---------------------------------------
    1   -1101.3503103001      8.29E-04
    2   -1101.3587365833      1.03E-04
    3   -1101.3592851727      3.91E-05
    4   -1101.3593866892      1.52E-05
    5   -1101.3594012235      6.34E-06
    6   -1101.3594043186      2.64E-06
    7   -1101.3594055492      1.42E-06
    8   -1101.3594060229      6.19E-07
    9   -1101.3594063852      4.81E-07
   10   -1101.3594066384      3.56E-07
   11   -1101.3594068977      1.88E-07
   12   -1101.3594069690      9.04E-08
   13   -1101.3594069810      4.00E-08
   14   -1101.3594069830      2.32E-08
   15   -1101.3594069835      1.25E-08
   16   -1101.3594069852      7.04E-09 Convergence criterion met
 ---------------------------------------
 <S^2> = 1.0395
 SCF time:  CPU 1296.94 s  wall 81.11 s
 SCF   energy in the final basis set = -1101.3594069852
 Total energy in the final basis set = -1101.3594069852
 
 Components of the MP2 correlation energy:
        aaaa  correlation energy =        -0.2337894245 au
        abab  correlation energy =        -1.2996639277 au
        bbbb  correlation energy =        -0.2110247889 au
        non-Brillouin singles    =        -0.0000000000 au

 Total  MP2   correlation energy =        -1.7444781411 au
        MP2         total energy =     -1103.1038851264 au

  Entering Z-vector solver.
   1         0           1      0.000540    0.000540
   2         0           1      0.000481    0.000481
   3         0           1      0.000307    0.000307
   4         0           1      0.000226    0.000226
   5         0           1      0.000101    0.000101
   6         0           1      0.000052    0.000052
   7         0           1      0.000030    0.000030
   8         0           1      0.000018    0.000018
   9         0           1      0.000008    0.000008
  10         0           1      0.000003    0.000003
  11         0           1      0.000001    0.000001
  12         1           0      0.000000    0.000000    Roots Converged
 Warning:  Cannot save MP2 spin density
 
 --------------------------------------------------------------
             Orbital Energies (a.u.) and Symmetries
 --------------------------------------------------------------
 
 Alpha MOs, Unrestricted
 -- Occupied --                  
-92.160 -92.160 -11.476 -11.475 -11.451 -11.451 -11.433 -11.433
  1 A     1 B     2 A     2 B     3 B     3 A     4 B     4 A                  
-11.403 -11.403  -9.162  -9.162  -6.843  -6.843  -6.843  -6.843
  5 A     5 B     6 B     6 A     7 B     7 A     8 A     8 B                  
 -6.841  -6.841  -1.395  -1.365  -1.231  -1.191  -1.184  -1.129
  9 A     9 B    10 A    10 B    11 A    12 A    11 B    12 B                  
 -0.999  -0.960  -0.928  -0.905  -0.890  -0.822  -0.753  -0.752
 13 A    14 A    13 B    14 B    15 A    15 B    16 B    16 A                  
 -0.749  -0.736  -0.730  -0.711  -0.693  -0.667  -0.646  -0.578
 17 A    17 B    18 A    19 A    18 B    20 A    19 B    20 B                  
 -0.536  -0.523  -0.480
 21 A    21 B    22 A                                                          
 -- Virtual --                   
 -0.120  -0.037  -0.007   0.014   0.016   0.022   0.040   0.044
 22 B    23 A    24 A    25 A    23 B    24 B    26 A    25 B                  
  0.046   0.065   0.070   0.078   0.107   0.129   0.146   0.193
 27 A    26 B    28 A    29 A    27 B    28 B    30 A    31 A                  
  0.193   0.201   0.204   0.222   0.223   0.240   0.261   0.265
 29 B    32 A    30 B    33 A    31 B    32 B    33 B    34 A                  
  0.283   0.285   0.299   0.304   0.312   0.322   0.337   0.350
 35 A    34 B    36 A    35 B    36 B    37 A    37 B    38 A                  
  0.363   0.367   0.376   0.381   0.384   0.393   0.394   0.401
 38 B    39 A    40 A    39 B    41 A    42 A    40 B    41 B                  
  0.422   0.425   0.437   0.441   0.453   0.455   0.463   0.466
 43 A    42 B    44 A    43 B    45 A    44 B    46 A    45 B                  
  0.471   0.478   0.505   0.513   0.513   0.530   0.563   0.563
 47 A    46 B    48 A    47 B    49 A    48 B    49 B    50 A                  
  0.574   0.581   0.617   0.623   0.645   0.645   0.679   0.690
 51 A    50 B    52 A    51 B    52 B    53 A    54 A    53 B                  
  0.691   0.712   0.726   0.729   0.751   0.755   0.780   0.787
 55 A    54 B    56 A    55 B    56 B    57 A    57 B    58 A                  
  0.812   0.819   0.840   0.849   0.878   0.892   0.904   0.911
 58 B    59 B    59 A    60 A    60 B    61 A    61 B    62 A                  
  0.915   0.917   0.941   0.945   0.973   0.985   0.995   1.005
 63 A    62 B    64 A    63 B    64 B    65 B    65 A    66 A                  
  1.030   1.034   1.050   1.055   1.071   1.095   1.101   1.106
 66 B    67 A    67 B    68 A    68 B    69 A    69 B    70 B                  
  1.136   1.144   1.151   1.181   1.217   1.219   1.246   1.256
 70 A    71 A    71 B    72 A    72 B    73 A    74 A    73 B                  
  1.284   1.298   1.310   1.318   1.344   1.345   1.357   1.362
 74 B    75 A    75 B    76 A    77 A    76 B    78 A    77 B                  
  1.379   1.385   1.402   1.402   1.425   1.428   1.469   1.478
 79 A    78 B    80 A    79 B    80 B    81 A    81 B    82 A                  
  1.495   1.497   1.525   1.554   1.579   1.594   1.633   1.651
 83 A    82 B    83 B    84 A    84 B    85 A    85 B    86 A                  
  1.664   1.703   1.705   1.715   1.716   1.749   1.761   1.785
 86 B    87 B    87 A    88 B    88 A    89 B    89 A    90 B                  
  1.795   1.798   1.888   1.912   1.912   1.940   1.944   1.995
 90 A    91 A    91 B    92 B    92 A    93 A    93 B    94 A                  
  2.003   2.025   2.027   2.038   2.059   2.073   2.077   2.103
 94 B    95 B    95 A    96 A    96 B    97 B    97 A    98 B                  
  2.108   2.125   2.136   2.232   2.235   2.265   2.274   2.301
 98 A    99 A    99 B   100 B   100 A   101 A   101 B   102 A                  
  2.311   2.317   2.326   2.357   2.372   2.373   2.397   2.418
102 B   103 A   103 B   104 A   104 B   105 A   105 B   106 A                  
  2.432   2.483   2.485   2.500   2.537   2.554   2.568   2.574
106 B   107 A   107 B   108 A   109 A   108 B   109 B   110 A                  
  2.593   2.594   2.628   2.628   2.636   2.699   2.719   2.719
111 A   110 B   111 B   112 A   112 B   113 A   114 A   113 B                  
  2.728   2.747   2.769   2.786   2.820   2.820   2.836   2.847
114 B   115 A   115 B   116 A   116 B   117 A   118 A   119 A                  
  2.848   2.866   2.914   2.935   2.973   2.991   3.001   3.007
117 B   118 B   119 B   120 A   120 B   121 A   122 A   121 B                  
  3.037   3.047   3.050   3.058   3.069   3.078   3.078   3.106
122 B   123 B   123 A   124 B   124 A   125 A   125 B   126 B                  
  3.122   3.131   3.133   3.135   3.175   3.178   3.214   3.221
126 A   127 A   127 B   128 A   128 B   129 A   130 A   129 B                  
  3.227   3.236   3.252   3.272   3.275   3.280   3.287   3.287
131 A   132 A   130 B   131 B   133 A   134 A   132 B   135 A                  
  3.316   3.322   3.328   3.330   3.343   3.345   3.357   3.371
133 B   134 B   136 A   135 B   137 A   136 B   138 A   137 B                  
  3.380   3.390   3.422   3.426   3.435   3.447   3.449   3.488
138 B   139 A   139 B   140 A   140 B   141 B   141 A   142 A                  
  3.491   3.519   3.541   3.560   3.564   3.578   3.614   3.618
142 B   143 B   143 A   144 B   144 A   145 A   145 B   146 A                  
  3.622   3.651   3.713   3.720   3.732   3.758   3.760   3.767
147 A   146 B   147 B   148 A   148 B   149 B   149 A   150 B                  
  3.787   3.816   3.829   3.835   3.854   3.875   3.877   3.883
150 A   151 A   152 A   151 B   152 B   153 A   154 A   153 B                  
  3.930   3.945   3.967   3.977   4.001   4.016   4.025   4.028
154 B   155 A   156 A   155 B   157 A   156 B   157 B   158 A                  
  4.037   4.037   4.050   4.052   4.112   4.124   4.133   4.151
158 B   159 A   160 A   159 B   161 A   160 B   161 B   162 A                  
  4.181   4.206   4.250   4.281   4.313   4.326   4.336   4.352
162 B   163 A   163 B   164 A   165 A   166 A   164 B   167 A                  
  4.353   4.402   4.438   4.444   4.473   4.502   4.506   4.522
165 B   166 B   168 A   167 B   169 A   168 B   170 A   169 B                  
  4.543   4.558   4.583   4.608   4.648   4.650   4.693   4.698
171 A   170 B   171 B   172 A   173 A   172 B   174 A   173 B                  
  4.741   4.795   4.818   4.848   4.852   4.880   4.908   4.913
175 A   174 B   175 B   176 A   177 A   176 B   178 A   179 A                  
  4.920   4.974   5.034   5.044   5.081   5.108   5.176   5.197
177 B   178 B   179 B   180 A   180 B   181 A   181 B   182 A                  
  5.235   5.251   5.260   5.302   5.413   5.420   5.470   5.520
183 A   182 B   183 B   184 A   185 A   184 B   185 B   186 A                  
  5.662   5.722   5.865   5.889   5.941   5.959   6.025   6.056
187 A   186 B   188 A   187 B   189 A   188 B   190 A   189 B                  
  6.249   6.366   6.421   6.537   6.636   9.248  10.854  11.754
190 B   191 A   191 B   192 A   192 B   193 A   193 B   194 A                  
 12.541  13.076  13.585  14.543  14.935
194 B   195 A   195 B   196 A   196 B                                          
 
 Beta MOs, Unrestricted
 -- Occupied --                  
-92.161 -92.161 -11.476 -11.475 -11.439 -11.439 -11.426 -11.426
  1 A     1 B     2 A     2 B     3 B     3 A     4 B     4 A                  
-11.410 -11.410  -9.164  -9.164  -6.845  -6.845  -6.844  -6.844
  5 B     5 A     6 B     6 A     7 B     7 A     8 B     8 A                  
 -6.844  -6.844  -1.383  -1.350  -1.219  -1.187  -1.175  -1.106
  9 B     9 A    10 A    10 B    11 A    12 A    11 B    12 B                  
 -0.990  -0.952  -0.917  -0.900  -0.888  -0.818  -0.751  -0.742
 13 A    14 A    13 B    14 B    15 A    15 B    16 A    17 A                  
 -0.736  -0.727  -0.721  -0.683  -0.668  -0.662  -0.645  -0.537
 16 B    18 A    17 B    18 B    19 A    20 A    19 B    20 B                  
 -0.533  -0.510
 21 A    21 B                                                                  
 -- Virtual --                   
 -0.185  -0.055  -0.021   0.008   0.019   0.024   0.032   0.043
 22 A    22 B    23 A    24 A    25 A    23 B    24 B    26 A                  
  0.046   0.060   0.068   0.072   0.088   0.111   0.132   0.148
 25 B    27 A    26 B    28 A    29 A    27 B    28 B    30 A                  
  0.197   0.199   0.203   0.208   0.222   0.224   0.241   0.270
 29 B    31 A    32 A    30 B    33 A    31 B    32 B    33 B                  
  0.272   0.287   0.293   0.301   0.311   0.318   0.321   0.332
 34 A    35 A    34 B    36 A    35 B    36 B    37 A    37 B                  
  0.356   0.374   0.377   0.390   0.391   0.396   0.403   0.411
 38 A    39 A    38 B    40 A    39 B    41 A    40 B    41 B                  
  0.411   0.427   0.428   0.442   0.442   0.458   0.461   0.469
 42 A    42 B    43 A    44 A    43 B    45 A    44 B    46 A                  
  0.470   0.475   0.484   0.511   0.516   0.518   0.535   0.566
 45 B    47 A    46 B    48 A    49 A    47 B    48 B    49 B                  
  0.566   0.575   0.586   0.619   0.625   0.647   0.647   0.682
 50 A    51 A    50 B    52 A    51 B    53 A    52 B    54 A                  
  0.692   0.696   0.717   0.731   0.735   0.754   0.758   0.787
 53 B    55 A    54 B    56 A    55 B    56 B    57 A    57 B                  
  0.790   0.817   0.820   0.844   0.851   0.881   0.893   0.907
 58 A    58 B    59 B    59 A    60 A    60 B    61 A    61 B                  
  0.916   0.920   0.920   0.949   0.951   0.976   0.988   0.997
 62 A    62 B    63 A    63 B    64 A    64 B    65 B    65 A                  
  1.008   1.035   1.037   1.052   1.058   1.072   1.100   1.103
 66 A    66 B    67 A    67 B    68 A    68 B    69 A    69 B                  
  1.110   1.136   1.153   1.157   1.183   1.225   1.227   1.256
 70 B    70 A    71 A    71 B    72 A    72 B    73 A    74 A                  
  1.258   1.290   1.303   1.315   1.321   1.346   1.349   1.359
 73 B    74 B    75 A    75 B    76 A    77 A    76 B    78 A                  
  1.368   1.383   1.386   1.403   1.405   1.427   1.431   1.476
 77 B    79 A    78 B    80 A    79 B    80 B    81 A    81 B                  
  1.481   1.499   1.499   1.527   1.558   1.582   1.596   1.635
 82 A    83 A    82 B    83 B    84 A    84 B    85 A    85 B                  
  1.653   1.664   1.703   1.704   1.716   1.718   1.750   1.764
 86 A    86 B    87 B    87 A    88 A    88 B    89 B    89 A                  
  1.785   1.796   1.800   1.888   1.912   1.913   1.943   1.945
 90 B    90 A    91 A    91 B    92 A    92 B    93 A    93 B                  
  1.994   2.003   2.026   2.028   2.039   2.059   2.074   2.078
 94 A    94 B    95 B    95 A    96 A    96 B    97 B    97 A                  
  2.118   2.121   2.131   2.138   2.235   2.246   2.266   2.269
 98 B    98 A    99 A    99 B   100 A   100 B   101 A   101 B                  
  2.306   2.316   2.320   2.329   2.359   2.383   2.391   2.401
102 A   102 B   103 A   103 B   104 A   104 B   105 A   105 B                  
  2.424   2.440   2.487   2.489   2.502   2.538   2.556   2.573
106 A   106 B   107 A   107 B   108 A   109 A   108 B   109 B                  
  2.583   2.600   2.600   2.634   2.634   2.639   2.705   2.722
110 A   111 A   110 B   111 B   112 A   112 B   113 A   113 B                  
  2.725   2.737   2.752   2.779   2.790   2.822   2.823   2.844
114 A   114 B   115 A   115 B   116 A   116 B   117 A   118 A                  
  2.855   2.857   2.870   2.916   2.941   2.978   2.995   3.002
119 A   117 B   118 B   119 B   120 A   120 B   121 A   122 A                  
  3.019   3.040   3.047   3.056   3.062   3.072   3.084   3.087
121 B   122 B   123 B   123 A   124 B   124 A   125 A   125 B                  
  3.112   3.127   3.136   3.140   3.147   3.180   3.184   3.217
126 B   126 A   127 A   127 B   128 A   128 B   129 A   130 A                  
  3.222   3.228   3.242   3.253   3.277   3.280   3.288   3.290
129 B   131 A   132 A   130 B   133 A   131 B   134 A   135 A                  
  3.291   3.317   3.333   3.339   3.341   3.348   3.352   3.363
132 B   133 B   134 B   136 A   135 B   136 B   137 A   138 A                  
  3.375   3.383   3.393   3.429   3.430   3.438   3.449   3.452
137 B   138 B   139 A   140 A   139 B   140 B   141 B   141 A                  
  3.491   3.496   3.524   3.546   3.564   3.567   3.580   3.620
142 A   142 B   143 B   143 A   144 B   144 A   145 A   145 B                  
  3.622   3.627   3.654   3.716   3.727   3.736   3.760   3.760
146 A   147 A   146 B   147 B   148 A   148 B   149 A   149 B                  
  3.769   3.790   3.818   3.831   3.840   3.858   3.877   3.881
150 B   150 A   151 A   152 A   151 B   152 B   153 A   154 A                  
  3.885   3.932   3.947   3.970   3.980   4.003   4.018   4.026
153 B   154 B   155 A   156 A   155 B   157 A   156 B   157 B                  
  4.029   4.038   4.039   4.052   4.054   4.113   4.126   4.134
158 A   158 B   159 A   160 A   159 B   161 A   160 B   161 B                  
  4.152   4.183   4.207   4.250   4.282   4.315   4.327   4.338
162 A   162 B   163 A   163 B   164 A   165 A   166 A   164 B                  
  4.354   4.354   4.404   4.442   4.448   4.476   4.503   4.508
167 A   165 B   166 B   168 A   167 B   169 A   168 B   170 A                  
  4.522   4.547   4.561   4.583   4.610   4.648   4.651   4.695
169 B   171 A   170 B   171 B   172 A   173 A   172 B   174 A                  
  4.699   4.743   4.797   4.822   4.852   4.854   4.881   4.909
173 B   175 A   174 B   175 B   176 A   177 A   176 B   178 A                  
  4.915   4.922   4.975   5.036   5.045   5.087   5.114   5.177
179 A   177 B   178 B   179 B   180 A   180 B   181 A   181 B                  
  5.199   5.236   5.252   5.261   5.303   5.414   5.421   5.471
182 A   183 A   182 B   183 B   184 A   185 A   184 B   185 B                  
  5.521   5.663   5.723   5.866   5.890   5.942   5.959   6.025
186 A   187 A   186 B   188 A   187 B   189 A   188 B   190 A                  
  6.057   6.249   6.367   6.422   6.537   6.637   9.250  10.858
189 B   190 B   191 A   191 B   192 A   192 B   193 A   193 B                  
 11.758  12.545  13.081  13.585  14.544  14.938
194 A   194 B   195 A   195 B   196 A   196 B                                  
 --------------------------------------------------------------
 
          Ground-State Mulliken Net Atomic Charges

     Atom                 Charge (a.u.)    Spin (a.u.)
  --------------------------------------------------------
      1 S                     0.248894      -0.030530
      2 C                    -0.111307      -0.004830
      3 C                    -0.165819       0.405493
      4 C                    -0.124122      -0.208930
      5 C                    -0.027288       0.340176
      6 H                     0.213790       0.019631
      7 C                    -0.027288       0.340176
      8 S                     0.248894      -0.030530
      9 C                    -0.124122      -0.208930
     10 C                    -0.111307      -0.004830
     11 C                    -0.165819       0.405493
     12 H                     0.224788      -0.032209
     13 H                     0.241063       0.011198
     14 H                     0.224788      -0.032209
     15 H                     0.241063       0.011198
     16 H                     0.213790       0.019631
  --------------------------------------------------------
  Sum of atomic charges =     1.000000
  Sum of spin   charges =     1.000000

 -----------------------------------------------------------------
                    Cartesian Multipole Moments
 -----------------------------------------------------------------
    Charge (ESU x 10^10)
                 4.8032
    Dipole Moment (Debye)
         X       0.0000      Y      -0.0000      Z      -0.8358
       Tot       0.8358
    Quadrupole Moments (Debye-Ang)
        XX     -22.4304     XY       1.3689     YY     -72.0032
        XZ       0.0000     YZ      -0.0000     ZZ     -56.9313
    Octopole Moments (Debye-Ang^2)
       XXX       0.0000    XXY      -0.0000    XYY       0.0000
       YYY      -0.0000    XXZ       3.3559    XYZ     -11.5234
       YYZ       1.2494    XZZ       0.0000    YZZ       0.0000
[...]

                       Coordinates (Angstroms)
     ATOM                X               Y               Z
      1  S         1.6131702761   -0.3021421858    1.1331121213
      2  C         3.0416327895   -0.0133762373    0.3332922650
      3  C         2.8838639413    0.3131535943   -1.0009424570
      4  C         1.5674978291    0.3071960655   -1.3701781528
      5  C         0.7008511316   -0.0321344181   -0.3297939105
      6  H         1.2149792762    0.5579859209   -2.3550039008
      7  C        -0.7008511316    0.0321344181   -0.3297939105
      8  S        -1.6131702761    0.3021421858    1.1331121213
      9  C        -1.5674978291   -0.3071960655   -1.3701781528
     10  C        -3.0416327895    0.0133762373    0.3332922650
     11  C        -2.8838639413   -0.3131535943   -1.0009424570
     12  H        -3.7085099001   -0.5511263943   -1.6454474446
     13  H         3.9766449987   -0.1065102417    0.8555261698
     14  H         3.7085099001    0.5511263943   -1.6454474446
     15  H        -3.9766449987    0.1065102417    0.8555261698
     16  H        -1.2149792762   -0.5579859209   -2.3550039008

Z-matrix Print:
$molecule
1 2
S 
C  1 1.662409
H  2 1.075012 1 119.907069
C  2 1.382641 1 114.032242 3 -178.889097 0
H  4 1.073340 2 122.965698 1 -178.446600 0
C  4 1.367183 2 111.681814 1 0.811438 0
H  6 1.075661 4 124.179648 2 -178.279513 0
C  6 1.395930 4 113.424378 2 0.424414 0
C  8 1.403175 6 127.521036 4 -171.356492 0
C  9 1.395930 8 127.521036 6 -40.000000 0
H  10 1.075661 9 122.382797 8 7.373850 0
C  10 1.367183 9 113.424378 8 -171.356492 0
H  12 1.073340 10 125.347896 9 179.661217 0
C  12 1.382641 10 111.681814 9 0.424414 0
H  14 1.075012 12 126.050143 10 -177.997497 0
S  14 1.662409 12 114.032242 10 0.811438 0
$end

 
 --------------------------------------------------------------
             Orbital Energies (a.u.) and Symmetries
 --------------------------------------------------------------
 
 Alpha MOs, Unrestricted
 -- Occupied --                  
-92.160 -92.160 -11.477 -11.475 -11.451 -11.451 -11.435 -11.435
  1 A     1 B     2 A     2 B     3 B     3 A     4 B     4 A                  
-11.403 -11.403  -9.163  -9.162  -6.843  -6.843  -6.843  -6.843
  5 A     5 B     6 B     6 A     7 B     7 A     8 A     8 B                  
 -6.840  -6.840  -1.395  -1.364  -1.232  -1.192  -1.183  -1.129
  9 A     9 B    10 A    10 B    11 A    12 A    11 B    12 B                  
 -1.000  -0.960  -0.926  -0.905  -0.891  -0.822  -0.753  -0.753
 13 A    14 A    13 B    14 B    15 A    15 B    16 A    16 B                  
 -0.749  -0.736  -0.731  -0.710  -0.692  -0.668  -0.645  -0.580
 17 A    17 B    18 A    19 A    18 B    20 A    19 B    20 B                  
 -0.535  -0.524  -0.479
 21 A    21 B    22 A                                                          
 -- Virtual --                   
 -0.124  -0.034  -0.007   0.014   0.015   0.023   0.040   0.045
 22 B    23 A    24 A    25 A    23 B    24 B    26 A    25 B                  
  0.046   0.066   0.070   0.076   0.111   0.131   0.143   0.190
 27 A    26 B    28 A    29 A    27 B    28 B    30 A    31 A                  
  0.194   0.202   0.208   0.219   0.221   0.241   0.262   0.265
 29 B    32 A    30 B    31 B    33 A    32 B    33 B    34 A                  
  0.282   0.284   0.300   0.303   0.311   0.321   0.335   0.350
 35 A    34 B    36 A    35 B    36 B    37 A    37 B    38 A                  
  0.362   0.368   0.380   0.382   0.382   0.393   0.395   0.403
 38 B    39 A    40 A    41 A    39 B    42 A    40 B    41 B                  
  0.420   0.424   0.437   0.438   0.452   0.456   0.464   0.469
 43 A    42 B    44 A    43 B    45 A    44 B    46 A    45 B                  
  0.472   0.479   0.499   0.513   0.513   0.532   0.561   0.566
 47 A    46 B    48 A    49 A    47 B    48 B    49 B    50 A                  
  0.575   0.580   0.615   0.622   0.645   0.649   0.676   0.689
 51 A    50 B    52 A    51 B    52 B    53 A    54 A    53 B                  
  0.693   0.710   0.726   0.734   0.754   0.756   0.780   0.783
 55 A    54 B    56 A    55 B    57 A    56 B    57 B    58 A                  
  0.810   0.820   0.829   0.848   0.879   0.889   0.909   0.911
 58 B    59 B    59 A    60 A    60 B    61 A    61 B    62 A                  
  0.915   0.920   0.941   0.943   0.963   0.978   0.996   0.999
 63 A    62 B    63 B    64 A    64 B    65 B    65 A    66 A                  
  1.028   1.038   1.047   1.056   1.073   1.095   1.101   1.108
 66 B    67 A    67 B    68 A    68 B    69 A    69 B    70 B                  
  1.130   1.145   1.152   1.174   1.212   1.213   1.246   1.259
 70 A    71 A    71 B    72 A    73 A    72 B    74 A    73 B                  
  1.286   1.294   1.308   1.314   1.343   1.352   1.357   1.365
 74 B    75 A    76 A    75 B    77 A    76 B    78 A    77 B                  
  1.381   1.387   1.401   1.402   1.424   1.426   1.468   1.475
 79 A    78 B    80 A    79 B    80 B    81 A    81 B    82 A                  
  1.495   1.497   1.522   1.557   1.584   1.595   1.641   1.646
 83 A    82 B    83 B    84 A    84 B    85 A    85 B    86 A                  
  1.665   1.703   1.704   1.720   1.722   1.741   1.759   1.785
 86 B    87 B    87 A    88 A    88 B    89 B    89 A    90 B                  
  1.798   1.803   1.896   1.906   1.910   1.939   1.952   1.991
 90 A    91 A    91 B    92 A    92 B    93 A    93 B    94 A                  
  2.000   2.023   2.025   2.038   2.061   2.073   2.073   2.101
 94 B    95 A    95 B    96 A    96 B    97 A    97 B    98 B                  
  2.108   2.122   2.131   2.215   2.243   2.266   2.273   2.301
 98 A    99 A    99 B   100 B   100 A   101 A   101 B   102 A                  
  2.303   2.319   2.327   2.356   2.369   2.373   2.402   2.415
102 B   103 A   103 B   104 A   104 B   105 A   105 B   106 A                  
  2.425   2.484   2.500   2.501   2.533   2.560   2.569   2.571
106 B   107 A   108 A   107 B   109 A   108 B   109 B   110 A                  
  2.590   2.596   2.626   2.628   2.645   2.699   2.721   2.722
111 A   110 B   112 A   111 B   112 B   113 A   114 A   113 B                  
  2.726   2.747   2.759   2.779   2.820   2.824   2.843   2.845
114 B   115 A   115 B   116 A   117 A   116 B   118 A   119 A                  
  2.850   2.877   2.915   2.928   2.979   2.979   3.003   3.010
117 B   118 B   119 B   120 A   121 A   120 B   122 A   121 B                  
  3.037   3.047   3.051   3.063   3.064   3.081   3.082   3.105
122 B   123 B   123 A   124 B   124 A   125 A   125 B   126 B                  
  3.127   3.132   3.133   3.136   3.169   3.172   3.209   3.227
126 A   127 B   127 A   128 A   129 A   128 B   130 A   129 B                  
  3.228   3.238   3.248   3.266   3.275   3.283   3.290   3.294
131 A   132 A   130 B   131 B   133 A   134 A   135 A   132 B                  
  3.316   3.325   3.328   3.330   3.340   3.344   3.356   3.369
133 B   134 B   135 B   136 A   137 A   136 B   138 A   137 B                  
  3.379   3.387   3.416   3.423   3.426   3.447   3.450   3.484
138 B   139 A   139 B   140 A   140 B   141 A   141 B   142 B                  
  3.491   3.518   3.544   3.559   3.566   3.580   3.613   3.614
142 A   143 B   143 A   144 B   144 A   145 A   145 B   146 A                  
  3.623   3.649   3.713   3.722   3.729   3.757   3.758   3.774
147 A   146 B   147 B   148 A   148 B   149 B   149 A   150 B                  
  3.788   3.814   3.828   3.837   3.851   3.870   3.873   3.889
150 A   151 A   152 A   151 B   152 B   153 A   154 A   153 B                  
  3.929   3.940   3.967   3.975   3.995   4.016   4.021   4.030
154 B   155 A   156 A   155 B   157 A   156 B   157 B   158 A                  
  4.037   4.040   4.050   4.055   4.107   4.132   4.138   4.141
159 A   158 B   160 A   159 B   161 A   160 B   161 B   162 A                  
  4.179   4.205   4.253   4.284   4.310   4.327   4.336   4.348
162 B   163 A   163 B   164 A   165 A   166 A   164 B   165 B                  
  4.360   4.399   4.438   4.445   4.475   4.504   4.508   4.523
167 A   166 B   168 A   167 B   169 A   168 B   170 A   169 B                  
  4.545   4.557   4.582   4.603   4.646   4.657   4.692   4.709
171 A   170 B   171 B   172 A   173 A   172 B   174 A   173 B                  
  4.740   4.797   4.813   4.840   4.853   4.875   4.905   4.916
175 A   174 B   175 B   176 A   177 A   176 B   178 A   179 A                  
  4.921   4.975   5.035   5.040   5.082   5.110   5.178   5.195
177 B   178 B   179 B   180 A   180 B   181 A   181 B   182 A                  
  5.235   5.254   5.264   5.304   5.415   5.420   5.470   5.517
183 A   182 B   183 B   184 A   185 A   184 B   185 B   186 A                  
  5.658   5.720   5.861   5.887   5.938   5.962   6.017   6.059
187 A   186 B   188 A   187 B   189 A   188 B   190 A   189 B                  
  6.253   6.359   6.420   6.542   6.620   9.205  10.853  11.719
190 B   191 A   191 B   192 A   192 B   193 A   193 B   194 A                  
 12.636  13.062  13.590  14.532  14.903
194 B   195 A   195 B   196 A   196 B                                          
 
 Beta MOs, Unrestricted
 -- Occupied --                  
-92.162 -92.162 -11.477 -11.475 -11.439 -11.439 -11.427 -11.427
  1 A     1 B     2 A     2 B     3 B     3 A     4 B     4 A                  
-11.410 -11.410  -9.164  -9.164  -6.845  -6.845  -6.844  -6.844
  5 B     5 A     6 B     6 A     7 B     7 A     8 B     8 A                  
 -6.844  -6.844  -1.383  -1.349  -1.222  -1.187  -1.174  -1.105
  9 B     9 A    10 A    10 B    11 A    12 A    11 B    12 B                  
 -0.992  -0.952  -0.915  -0.900  -0.888  -0.818  -0.752  -0.742
 13 A    14 A    13 B    14 B    15 A    15 B    16 A    17 A                  
 -0.735  -0.729  -0.721  -0.683  -0.669  -0.661  -0.644  -0.538
 16 B    18 A    17 B    18 B    19 A    20 A    19 B    20 B                  
 -0.534  -0.514
 21 A    21 B                                                                  
 -- Virtual --                   
 -0.181  -0.056  -0.020   0.008   0.019   0.025   0.032   0.043
 22 A    22 B    23 A    24 A    25 A    23 B    24 B    26 A                  
  0.046   0.060   0.069   0.073   0.086   0.114   0.134   0.145
 25 B    27 A    26 B    28 A    29 A    27 B    28 B    30 A                  
  0.197   0.198   0.203   0.214   0.219   0.221   0.243   0.271
 31 A    29 B    32 A    30 B    31 B    33 A    32 B    33 B                  
  0.272   0.286   0.292   0.302   0.309   0.319   0.320   0.331
 34 A    35 A    34 B    36 A    35 B    36 B    37 A    37 B                  
  0.355   0.377   0.378   0.389   0.393   0.395   0.406   0.409
 38 A    38 B    39 A    40 A    39 B    41 A    40 B    41 B                  
  0.411   0.426   0.427   0.440   0.442   0.458   0.462   0.471
 42 A    42 B    43 A    43 B    44 A    45 A    44 B    46 A                  
  0.473   0.477   0.486   0.507   0.515   0.519   0.537   0.565
 45 B    47 A    46 B    48 A    49 A    47 B    48 B    49 B                  
  0.568   0.576   0.585   0.617   0.623   0.648   0.650   0.679
 50 A    51 A    50 B    52 A    51 B    52 B    53 A    54 A                  
  0.691   0.696   0.717   0.732   0.740   0.757   0.759   0.786
 53 B    55 A    54 B    56 A    55 B    57 A    56 B    58 A                  
  0.787   0.813   0.822   0.833   0.851   0.883   0.891   0.912
 57 B    58 B    59 B    59 A    60 A    60 B    61 A    61 B                  
  0.916   0.919   0.924   0.942   0.953   0.968   0.980   0.999
 62 A    63 A    62 B    63 B    64 A    64 B    65 B    65 A                  
  1.001   1.034   1.041   1.049   1.059   1.075   1.100   1.103
 66 A    66 B    67 A    67 B    68 A    68 B    69 A    69 B                  
  1.110   1.131   1.153   1.158   1.177   1.219   1.221   1.256
 70 B    70 A    71 A    71 B    72 A    73 A    72 B    74 A                  
  1.261   1.293   1.299   1.312   1.319   1.345   1.356   1.360
 73 B    74 B    75 A    76 A    75 B    77 A    76 B    78 A                  
  1.371   1.385   1.387   1.403   1.406   1.427   1.429   1.475
 77 B    79 A    78 B    80 A    79 B    80 B    81 A    81 B                  
  1.478   1.498   1.500   1.523   1.560   1.587   1.596   1.642
 82 A    83 A    82 B    83 B    84 A    84 B    85 A    85 B                  
  1.648   1.666   1.703   1.705   1.720   1.724   1.742   1.762
 86 A    86 B    87 A    87 B    88 A    88 B    89 B    89 A                  
  1.784   1.800   1.804   1.896   1.905   1.910   1.942   1.952
 90 B    90 A    91 A    91 B    92 A    92 B    93 A    93 B                  
  1.990   2.000   2.024   2.025   2.039   2.061   2.073   2.074
 94 A    94 B    95 A    95 B    96 A    96 B    97 A    97 B                  
  2.116   2.120   2.128   2.133   2.228   2.240   2.267   2.269
 98 B    98 A    99 A    99 B   100 B   100 A   101 B   101 A                  
  2.306   2.310   2.323   2.330   2.358   2.380   2.390   2.405
102 A   102 B   103 A   103 B   104 A   104 B   105 A   105 B                  
  2.421   2.434   2.487   2.502   2.506   2.534   2.563   2.573
106 A   106 B   107 A   108 A   107 B   109 A   108 B   109 B                  
  2.579   2.598   2.603   2.632   2.634   2.647   2.706   2.723
110 A   111 A   110 B   112 A   111 B   112 B   113 A   113 B                  
  2.728   2.736   2.751   2.769   2.782   2.823   2.826   2.851
114 A   114 B   115 A   115 B   116 A   117 A   116 B   118 A                  
  2.853   2.859   2.881   2.918   2.936   2.982   2.984   3.003
119 A   117 B   118 B   119 B   120 A   120 B   121 A   122 A                  
  3.022   3.041   3.048   3.056   3.067   3.070   3.088   3.090
121 B   122 B   123 B   123 A   124 B   124 A   125 A   125 B                  
  3.111   3.132   3.137   3.139   3.148   3.177   3.179   3.213
126 B   126 A   127 A   127 B   128 A   129 A   128 B   130 A                  
  3.227   3.229   3.243   3.250   3.274   3.278   3.289   3.293
129 B   131 A   132 A   130 B   131 B   133 A   134 A   135 A                  
  3.298   3.323   3.332   3.338   3.338   3.348   3.351   3.362
132 B   133 B   134 B   135 B   136 A   136 B   137 A   138 A                  
  3.372   3.383   3.391   3.419   3.426   3.433   3.450   3.453
137 B   138 B   139 A   139 B   140 A   140 B   141 A   141 B                  
  3.489   3.495   3.523   3.550   3.563   3.568   3.583   3.619
142 B   142 A   143 B   143 A   144 B   144 A   145 A   146 A                  
  3.619   3.629   3.652   3.715   3.729   3.733   3.759   3.760
145 B   147 A   146 B   147 B   148 A   148 B   149 A   149 B                  
  3.776   3.791   3.817   3.831   3.842   3.855   3.873   3.876
150 B   150 A   151 A   152 A   151 B   152 B   153 A   154 A                  
  3.891   3.931   3.942   3.970   3.978   3.997   4.017   4.023
153 B   154 B   155 A   156 A   155 B   157 A   156 B   157 B                  
  4.031   4.040   4.042   4.052   4.057   4.108   4.133   4.139
158 A   159 A   158 B   160 A   159 B   161 A   160 B   161 B                  
  4.142   4.180   4.206   4.253   4.285   4.312   4.327   4.338
162 A   162 B   163 A   163 B   164 A   165 A   166 A   164 B                  
  4.349   4.362   4.401   4.442   4.449   4.477   4.505   4.510
165 B   167 A   166 B   168 A   167 B   169 A   168 B   170 A                  
  4.523   4.548   4.560   4.583   4.605   4.646   4.658   4.694
169 B   171 A   170 B   171 B   172 A   173 A   172 B   174 A                  
  4.710   4.742   4.800   4.817   4.842   4.855   4.876   4.906
173 B   175 A   174 B   175 B   176 A   177 A   176 B   178 A                  
  4.917   4.923   4.975   5.036   5.041   5.089   5.116   5.179
179 A   177 B   178 B   179 B   180 A   180 B   181 A   181 B                  
  5.197   5.237   5.255   5.266   5.304   5.416   5.421   5.471
182 A   183 A   182 B   183 B   184 A   185 A   184 B   185 B                  
  5.518   5.658   5.721   5.862   5.888   5.939   5.962   6.017
186 A   187 A   186 B   188 A   187 B   189 A   188 B   190 A                  
  6.060   6.252   6.360   6.421   6.542   6.621   9.207  10.857
189 B   190 B   191 A   191 B   192 A   192 B   193 A   193 B                  
 11.723  12.640  13.067  13.591  14.533  14.905
194 A   194 B   195 A   195 B   196 A   196 B                                  
 --------------------------------------------------------------
 
          Ground-State Mulliken Net Atomic Charges

     Atom                 Charge (a.u.)    Spin (a.u.)
  --------------------------------------------------------
      1 S                     0.242579      -0.034843
      2 C                    -0.109963       0.012987
      3 C                    -0.167125       0.376931
      4 C                    -0.122682      -0.181210
      5 C                    -0.020349       0.328323
      6 H                     0.211853       0.018408
      7 C                    -0.020349       0.328323
      8 S                     0.242579      -0.034843
      9 C                    -0.122682      -0.181210
     10 C                    -0.109963       0.012987
     11 C                    -0.167125       0.376931
     12 H                     0.225074      -0.030722
     13 H                     0.240613       0.010126
     14 H                     0.225074      -0.030722
     15 H                     0.240613       0.010126
     16 H                     0.211853       0.018408
  --------------------------------------------------------
  Sum of atomic charges =     1.000000
  Sum of spin   charges =     1.000000

 -----------------------------------------------------------------
                    Cartesian Multipole Moments
 -----------------------------------------------------------------
    Charge (ESU x 10^10)
                 4.8032
    Dipole Moment (Debye)
         X      -0.0000      Y      -0.0000      Z      -0.8917
       Tot       0.8917
    Quadrupole Moments (Debye-Ang)
        XX     -22.5403     XY       1.7427     YY     -72.3729
        XZ       0.0000     YZ      -0.0000     ZZ     -56.5678
    Octopole Moments (Debye-Ang^2)
       XXX      -0.0000    XXY       0.0000    XYY      -0.0000
       YYY       0.0000    XXZ       3.2938    XYZ     -10.0660
       YYZ       1.3517    XZZ       0.0000    YZZ      -0.0000
       ZZZ     -14.3360
    Hexadecapole Moments (Debye-Ang^3)
      XXXX   -1259.7155   XXXY      10.0087   XXYY    -357.9481
      XYYY     -16.5747   YYYY    -117.1130   XXXZ      -0.0000
      XXYZ       0.0000   XYYZ      -0.0000   YYYZ      -0.0000
      XXZZ    -324.6846   XYZZ       7.9247   YYZZ    -106.3035
      XZZZ       0.0000   YZZZ      -0.0000   ZZZZ    -466.0889
 -----------------------------------------------------------------
Archival summary:
1\1\nid01562\OPT\MP2\BasisUnspecified\286(1+,2)\TueMar711:19:242017TueMar711:19:242017\0\\#,OPT,MP2,BasisUnspecified,\\1,2\S\C,1,1.66241\H,2,1.07501,1,119.907\C,2,1.38264,1,114.032,3,-178.889,0\H,4,1.07334,2,122.966,1,-178.447,0\C,4,1.36718,2,111.682,1,0.811438,0\H,6,1.07566,4,124.18,2,-178.28,0\C,6,1.39593,4,113.424,2,0.424414,0\C,8,1.40317,6,127.521,4,-171.356,0\C,9,1.39593,8,127.521,6,-40,0\H,10,1.07566,9,122.383,8,7.37385,0\C,10,1.36718,9,113.424,8,-171.356,0\H,12,1.07334,10,125.348,9,179.661,0\C,12,1.38264,10,111.682,9,0.424414,0\H,14,1.07501,12,126.05,10,-177.997,0\S,14,1.66241,12,114.032,10,0.811438,0\\HF=-1101.36138\MP2=-1103.10423\\@

 Total job time:  22387.68s(wall), 110411.22s(cpu) 
 Tue Mar  7 11:19:24 2017

        *************************************************************
        *                                                           *
        *  Thank you very much for using Q-Chem.  Have a nice day.  *
        *                                                           *
        *************************************************************


0 sent ACK to 0 
now end server 0 ... 
