srun -N 1 --ntasks-per-node 22 --cpus-per-task 2 --cpu_bind=cores --nodelist nid00525 /global/project/projectdirs/jcesr/qchem/qc44/cnl_qc441/dist/exe/qcprog.cori.haswell.exe .pt_nn_cation_80.0.in.32833.qcin.1 /dev/shm/eg_qchem/qchem32833/
Process 2 of 22 is on nid00525 - thread support 0
Process 4 of 22 is on nid00525 - thread support 0
Process 5 of 22 is on nid00525 - thread support 0
Process 6 of 22 is on nid00525 - thread support 0
Process 0 of 22 is on nid00525 - thread support 0
Process 1 of 22 is on nid00525 - thread support 0
Process 3 of 22 is on nid00525 - thread support 0
Process 21 of 22 is on nid00525 - thread support 0
initial socket setup ...start
initial socket setup ...done 
now start server 0 ... 
nid00525 10.128.2
Q-Chem Developer Version! Running on 10.128.2.*
                  Welcome to Q-Chem
     A Quantum Leap Into The Future Of Chemistry


 Q-Chem 4.4, Q-Chem, Inc., Pleasanton, CA (2016)

 Y. Shao,  Z. Gan,  E. Epifanovsky,  A. T. B. Gilbert,  M. Wormit,  
 J. Kussmann,  A. W. Lange,  A. Behn,  J. Deng,  X. Feng,  D. Ghosh,  
 M. Goldey,  P. R. Horn,  L. D. Jacobson,  I. Kaliman,  F. Rob,  
 R. Z. Khaliullin,  T. Kus,  A. Landau,  J. Liu,  E. I. Proynov,  Y. M. Rhee,  
 R. M. Richard,  M. A. Rohrdanz,  R. P. Steele,  E. J. Sundstrom,  
 H. L. Woodcock III,  P. M. Zimmerman,  D. Zuev,  B. Albrecht,  E. Alguire,  
 B. Austin,  S. A. Baeppler,  G. J. O. Beran,  Y. A. Bernard,  
 E. J. Berquist,  K. Brandhorst,  K. B. Bravaya,  S. T. Brown,  D. Casanova,  
 C.-M. Chang,  Y. Chen,  S. H. Chien,  K. D. Closser,  M. P. Coons,  
 D. L. Crittenden,  S. Dasgupta,  M. Diedenhofen,  R. A. DiStasio Jr.,  
 H. Do,  A. D. Dutoi,  R. G. Edgar,  P.-T. Fang,  S. Fatehi,  Q. Feng,  
 L. Fusti-Molnar,  A. Ghysels,  A. Golubeva-Zadorozhnaya,  J. Gomes,  
 A. Gunina,  M. W. D. Hanson-Heine,  P. H. P. Harbach,  A. W. Hauser,  
 J. E. Herr,  E. G. Hohenstein,  Z. C. Holden,  K. Hui,  T.-C. Jagau,  H. Ji,  
 B. Kaduk,  K. Khistyaev,  Jaehoon Kim,  Jihan Kim,  R. A. King,  
 P. Klunzinger,  K. Koh,  D. Kosenkov,  T. Kowalczyk,  C. M. Krauter,  
 A. Kunitsa,  K. U. Lao,  A. Laurent,  K. V. Lawler,  J. Lee,  D. Lefrancois,  
 S. Lehtola,  S. V. Levchenko,  C. Y. Lin,  Y.-S. Lin,  F. Liu,  E. Livshits,  
 R. C. Lochan,  A. Luenser,  P. Manohar,  S. F. Manzer,  S.-P. Mao,  Y. Mao,  
 N. Mardirossian,  A. V. Marenich,  L. A. Martinez-Martinez,  S. A. Maurer,  
 N. J. Mayhall,  J.-M. Mewes,  A. F. Morrison,  K. Nanda,  T. S. Nguyen-Beck,  
 C. M. Oana,  R. Olivares-Amaya,  D. P. O'Neill,  J. A. Parkhill,  
 T. M. Perrine,  R. Peverati,  P. A. Pieniazek,  F. Plasser,  A. Prociuk,  
 D. R. Rehn,  E. Rosta,  N. J. Russ,  N. Sergueev,  S. M. Sharada,  
 S. Sharma,  D. W. Small,  A. Sodt,  T. Stauch,  T. Stein,  D. Stuck,  
 Y.-C. Su,  A. J. W. Thom,  T. Tsuchimochi,  L. Vogt,  O. Vydrov,  T. Wang,  
 M. A. Watson,  J. Wenzel,  A. White,  C. F. Williams,  V. Vanovschi,  
 K. Yao,  S. Yeganeh,  S. R. Yost,  Z.-Q. You,  I. Y. Zhang,  X. Zhang,  
 Y. Zhao,  B. R. Brooks,  G. K. L. Chan,  D. M. Chipman,  C. J. Cramer,  
 W. A. Goddard III,  M. S. Gordon,  W. J. Hehre,  A. Klamt,  
 H. F. Schaefer III,  M. W. Schmidt,  C. D. Sherrill,  D. G. Truhlar,  
 A. Warshel,  X. Xu,  A. Aspuru-Guzik,  R. Baer,  A. T. Bell,  N. A. Besley,  
 J.-D. Chai,  A. Dreuw,  B. D. Dunietz,  T. R. Furlani,  S. R. Gwaltney,  
 C.-P. Hsu,  Y. Jung,  J. Kong,  D. S. Lambrecht,  W. Liang,  C. Ochsenfeld,  
 V. A. Rassolov,  L. V. Slipchenko,  J. E. Subotnik,  T. Van Voorhis,  
 J. M. Herbert,  A. I. Krylov,  P. M. W. Gill,  M. Head-Gordon

 Contributors to earlier versions of Q-Chem not listed above: 
 R. D. Adamson,  J. Baker,  E. F. C. Byrd,  A. K. Chakraborty,  C.-L. Cheng,  
 H. Dachsel,  R. J. Doerksen,  G. Hawkins,  A. Heyden,  S. Hirata,  
 G. Kedziora,  F. J. Keil,  C. Kelley,  P. P. Korambath,  W. Kurlancheek,  
 A. M. Lee,  M. S. Lee,  D. Liotard,  I. Lotan,  P. E. Maslen,  N. Nair,  
 D. Neuhauser,  R. Olson,  B. Peters,  J. Ritchie,  N. E. Schultz,  
 N. Shenvi,  A. C. Simmonett,  K. S. Thanthiriwatte,  Q. Wu,  W. Zhang

 Please cite Q-Chem as follows:
 Y. Shao et al., Mol. Phys. 113, 184-215 (2015)
 DOI: 10.1080/00268976.2014.952696

 Q-Chem 4.4.2 for Intel X86 EM64T Linux

 Parts of Q-Chem use Armadillo 5.200.1 (Boston Tea Smuggler).
 http://arma.sourceforge.net/

 Q-Chem begins on Tue May 30 10:58:41 2017  

Host: nid00444
0

     Scratch files written to /dev/shm/eg_qchem/qchem32833.0//
 Parallel job on  22  processors

Checking the input file for inconsistencies... 	...done.

--------------------------------------------------------------
User input:
--------------------------------------------------------------
$molecule
 1  2
 H           0.00000000        0.00000000        0.00000000
 H           0.66366000       -2.46828000       -0.59127000
 C           0.99103000       -0.39106000       -0.11652000
 C           1.36812000       -1.67442000       -0.42485000
 S           2.34669000        0.62586000        0.08638000
 C           2.76167000       -1.82175000       -0.50822000
 H           3.26291000       -2.73877000       -0.76199000
 C           3.44671000       -0.65043000       -0.26057000
 H           4.55645000        1.43902671        0.15704385
 C           4.88382000       -0.65043000       -0.26057000
 C           5.26091000        0.64090194        0.01245390
 S           6.23948000       -1.67253113       -0.43550939
 C           6.65446000        0.79046248        0.09175311
 H           7.15570000        1.71409653        0.32028213
 C           7.33950000       -0.38720773       -0.12368600
 C           8.77661000       -0.38720773       -0.12368600
 H           8.96041000       -0.34236513        2.02353862
 C           9.46165000       -0.39487354        1.07350369
 S           9.87663000       -0.45419001       -1.44459601
 C          10.85520000       -0.44492961        0.91179069
 C          11.23229000       -0.47267292       -0.40779630
 H          11.55966000       -0.45151719        1.72287978
 H          12.22332000       -0.50317530       -0.81470538
$end


$rem
         jobtype = opt
        exchange = b3lyp
           basis = 6-31++g**
  max_scf_cycles = 150
      mem_static = 281
       mem_total = 2818
      sym_ignore = true
        symmetry = false
          thresh = 12
$end


$opt
CONSTRAINT
tors 13 15 16 18 80.0
ENDCONSTRAINT
$end

--------------------------------------------------------------
 ----------------------------------------------------------------
             Standard Nuclear Orientation (Angstroms)
    I     Atom           X                Y                Z
 ----------------------------------------------------------------
    1      H       0.0000000000     0.0000000000     0.0000000000
    2      H       0.6636600000    -2.4682800000    -0.5912700000
    3      C       0.9910300000    -0.3910600000    -0.1165200000
    4      C       1.3681200000    -1.6744200000    -0.4248500000
    5      S       2.3466900000     0.6258600000     0.0863800000
    6      C       2.7616700000    -1.8217500000    -0.5082200000
    7      H       3.2629100000    -2.7387700000    -0.7619900000
    8      C       3.4467100000    -0.6504300000    -0.2605700000
    9      H       4.5564500000     1.4390267100     0.1570438500
   10      C       4.8838200000    -0.6504300000    -0.2605700000
   11      C       5.2609100000     0.6409019400     0.0124539000
   12      S       6.2394800000    -1.6725311300    -0.4355093900
   13      C       6.6544600000     0.7904624800     0.0917531100
   14      H       7.1557000000     1.7140965300     0.3202821300
   15      C       7.3395000000    -0.3872077300    -0.1236860000
   16      C       8.7766100000    -0.3872077300    -0.1236860000
   17      H       8.9604100000    -0.3423651300     2.0235386200
   18      C       9.4616500000    -0.3948735400     1.0735036900
   19      S       9.8766300000    -0.4541900100    -1.4445960100
   20      C      10.8552000000    -0.4449296100     0.9117906900
   21      C      11.2322900000    -0.4726729200    -0.4077963000
   22      H      11.5596600000    -0.4515171900     1.7228797800
   23      H      12.2233200000    -0.5031753000    -0.8147053800
 ----------------------------------------------------------------
 Nuclear Repulsion Energy =  1184.8691761770 hartrees
 There are       64 alpha and       63 beta electrons
 Requested basis set is 6-31++G(d,p)
 There are 110 shells and 345 basis functions

 Total QAlloc Memory Limit   2818 MB
 Mega-Array Size       275 MB
 MEM_STATIC part       281 MB
 A cutoff of  1.0D-12 yielded   4718 shell pairs
 There are     48088 function pairs

 Q-Chem warning in module /project/projectdirs/jcesr/qchem/qc44/cnl_qc441/compile/cori/qc_src/libqints/qchem/aobasis.C, line 68:

 Using reconstructed effective core potential

 
 -------------------------------------------------------
 OpenMP Integral Computing Module                       
 Release: version 1.0, May 2013, Q-Chem Inc. Pittsburgh 
 -------------------------------------------------------
 Integral Job Info:
 Integral job number is                      11
 Integral operator is                         1
 short-range coefficients                     0
 long-range coefficients              100000000
 Omega coefficients                           0
 if combine SR and LR in K                    0
 Integral screening is                        0
 Integral computing path is                   2
 max size of driver memory is            800000
 size of driver memory is                593474
 size of scratch memory is             15166112
 max col of scratch BK array               1296
 max len of scratch array in speh3          155
 max len of scratch index in speh4           18
 max int batch size is                      520
 min int batch size is                       52
 fixed nKL is                                52
 max L of basis functions is                  2
 order of int derivative is                   0
 number of shells is                        110
 number of basis is                         345
 number of cartesian basis is               345
 number of contracted shell pairs          4718
 number of primitive shell pairs          14771
 maxK2 (contraction) of shell pair           36
 max number of K2 of shell pair               1
 max number of CS2 of shell pair            508
 max number of PS2 of shell pair           3048
 mem total for path MDJ                  101496
 -------------------------------------------------------
 Smallest overlap matrix eigenvalue = 8.88E-08
 Linear dependence detected in AO basis
 Number of orthogonalized atomic orbitals = 342
 Maximum deviation from orthogonality = 1.036E-10

 Scale SEOQF with 1.000000e-02/1.000000e-01/1.000000e-01

 Standard Electronic Orientation quadrupole field applied
 Nucleus-field energy     =     0.0000000247 hartrees
 Guess from superposition of atomic densities
 Warning:  Energy on first SCF cycle will be non-variational
 An unrestricted hybrid HF-DFT SCF calculation will be
 performed using Pulay DIIS extrapolation
 Exchange:     0.2000 Hartree-Fock + 0.0800 Slater + 0.7200 B88
 Correlation:  0.1900 VWN1RPA + 0.8100 LYP
 Using SG-1 standard quadrature grid
 SCF converges when DIIS error is below 1.0E-08
 Inaccurate integrated density:
   Number of electrons =   127
   Numerical integral  =   127.999272986968
   Relative error      =     0.7868291236 %
 ---------------------------------------
  Cycle       Energy         DIIS Error
 ---------------------------------------
    1   -1660.7203993486      3.84E-02
    2   -1656.1388842056      3.60E-03
    3   -1655.6843831980      5.99E-03
    4   -1656.3163393855      1.44E-03
    5   -1656.3517807702      4.18E-04
    6   -1656.3543800157      2.16E-04
    7   -1656.3550810478      9.94E-05
    8   -1656.3552774135      3.34E-05
    9   -1656.3553187300      1.13E-05
   10   -1656.3553389891      6.48E-06
   11   -1656.3553493438      6.18E-06
   12   -1656.3553540413      2.68E-06
   13   -1656.3553556332      1.46E-06
   14   -1656.3553559312      5.65E-07
   15   -1656.3553560013      2.40E-07
   16   -1656.3553560079      1.16E-07
   17   -1656.3553560099      3.98E-08
   18   -1656.3553560116      2.48E-08
   19   -1656.3553560116      1.25E-08
   20   -1656.3553560107      6.85E-09 Convergence criterion met
 ---------------------------------------
 <S^2> = 0.7633
 SCF time:  CPU 27.34 s  wall 26.06 s
 SCF   energy in the final basis set = -1656.3553560107
 Total energy in the final basis set = -1656.3553560107
 
 --------------------------------------------------------------
 
                    Orbital Energies (a.u.)
 --------------------------------------------------------------
 
 Alpha MOs
 -- Occupied --
-89.089 -89.081 -89.047 -10.410 -10.409 -10.407 -10.394 -10.367
-10.365 -10.364 -10.357 -10.356 -10.347 -10.330 -10.318  -8.148
 -8.141  -8.107  -6.112  -6.108  -6.105  -6.104  -6.101  -6.098
 -6.071  -6.067  -6.064  -1.086  -1.060  -1.025  -0.960  -0.921
 -0.905  -0.898  -0.872  -0.847  -0.774  -0.753  -0.711  -0.699
 -0.694  -0.688  -0.675  -0.647  -0.611  -0.588  -0.585  -0.579
 -0.563  -0.555  -0.552  -0.530  -0.526  -0.525  -0.522  -0.507
 -0.502  -0.476  -0.452  -0.427  -0.418  -0.385  -0.383  -0.367
 -- Virtual --
 -0.223  -0.163  -0.156  -0.146  -0.121  -0.119  -0.112  -0.106
 -0.103  -0.099  -0.094  -0.089  -0.083  -0.079  -0.075  -0.071
 -0.067  -0.063  -0.059  -0.056  -0.045  -0.042  -0.036  -0.034
 -0.030  -0.018  -0.016  -0.013  -0.007  -0.002   0.002   0.007
  0.010   0.014   0.016   0.018   0.019   0.022   0.026   0.028
  0.031   0.038   0.039   0.044   0.044   0.047   0.050   0.054
  0.057   0.058   0.060   0.064   0.065   0.074   0.077   0.083
  0.085   0.093   0.097   0.099   0.104   0.110   0.114   0.118
  0.121   0.125   0.128   0.131   0.135   0.145   0.153   0.155
  0.162   0.165   0.170   0.172   0.180   0.182   0.189   0.192
  0.205   0.212   0.219   0.227   0.232   0.238   0.249   0.252
  0.259   0.264   0.276   0.286   0.310   0.335   0.343   0.352
  0.367   0.380   0.396   0.402   0.425   0.434   0.456   0.470
  0.480   0.487   0.490   0.500   0.503   0.507   0.509   0.517
  0.530   0.547   0.551   0.556   0.568   0.578   0.583   0.592
  0.601   0.606   0.617   0.624   0.641   0.643   0.655   0.656
  0.659   0.667   0.676   0.681   0.698   0.721   0.736   0.776
  0.785   0.795   0.801   0.810   0.826   0.827   0.837   0.844
  0.849   0.855   0.859   0.863   0.871   0.880   0.893   0.895
  0.902   0.913   0.924   0.936   0.950   0.961   0.965   0.991
  1.008   1.017   1.031   1.045   1.065   1.088   1.102   1.112
  1.140   1.151   1.167   1.174   1.192   1.193   1.202   1.212
  1.224   1.234   1.255   1.262   1.268   1.309   1.310   1.360
  1.391   1.420   1.443   1.475   1.494   1.545   1.581   1.653
  1.664   1.699   1.715   1.734   1.746   1.773   1.778   1.791
  1.800   1.834   1.842   1.862   1.876   1.899   1.909   1.938
  1.951   1.967   1.993   2.033   2.039   2.061   2.071   2.083
  2.102   2.133   2.135   2.155   2.180   2.197   2.222   2.258
  2.274   2.306   2.315   2.320   2.346   2.348   2.364   2.381
  2.386   2.404   2.409   2.438   2.443   2.487   2.493   2.510
  2.529   2.544   2.564   2.583   2.624   2.681   2.693   2.725
  2.746   2.784   2.791   2.811   3.025   3.067   3.075   3.149
  3.181   3.198   3.284   3.316   3.554   3.613   3.645   3.814
  3.841   3.854   4.095   4.151   4.173   4.179   4.195   4.231
  4.245   4.344   4.406   4.507   4.558   4.581
 
 Beta MOs
 -- Occupied --
-89.089 -89.081 -89.047 -10.408 -10.406 -10.405 -10.390 -10.365
-10.364 -10.363 -10.357 -10.357 -10.346 -10.329 -10.318  -8.148
 -8.141  -8.107  -6.113  -6.109  -6.105  -6.105  -6.101  -6.098
 -6.071  -6.067  -6.064  -1.081  -1.055  -1.023  -0.953  -0.918
 -0.903  -0.893  -0.871  -0.842  -0.770  -0.750  -0.708  -0.697
 -0.692  -0.686  -0.673  -0.646  -0.609  -0.585  -0.577  -0.574
 -0.561  -0.552  -0.542  -0.528  -0.524  -0.523  -0.515  -0.504
 -0.500  -0.475  -0.431  -0.424  -0.414  -0.383  -0.366
 -- Virtual --
 -0.316  -0.206  -0.159  -0.145  -0.143  -0.119  -0.118  -0.104
 -0.101  -0.099  -0.094  -0.092  -0.088  -0.082  -0.078  -0.074
 -0.069  -0.067  -0.062  -0.058  -0.055  -0.044  -0.041  -0.035
 -0.034  -0.029  -0.018  -0.015  -0.012  -0.007  -0.001   0.003
  0.007   0.011   0.015   0.016   0.019   0.020   0.023   0.027
  0.029   0.032   0.039   0.040   0.044   0.045   0.048   0.051
  0.055   0.058   0.060   0.062   0.065   0.066   0.074   0.079
  0.083   0.086   0.094   0.098   0.100   0.105   0.111   0.114
  0.119   0.122   0.126   0.129   0.132   0.136   0.146   0.154
  0.155   0.163   0.166   0.172   0.174   0.181   0.183   0.190
  0.193   0.206   0.213   0.220   0.228   0.233   0.239   0.250
  0.254   0.260   0.265   0.279   0.287   0.311   0.336   0.345
  0.353   0.367   0.382   0.397   0.403   0.426   0.435   0.457
  0.472   0.486   0.488   0.492   0.502   0.506   0.513   0.515
  0.519   0.533   0.549   0.553   0.558   0.572   0.579   0.585
  0.595   0.605   0.608   0.618   0.629   0.643   0.645   0.657
  0.659   0.662   0.670   0.679   0.682   0.702   0.723   0.737
  0.778   0.787   0.798   0.805   0.812   0.828   0.829   0.839
  0.845   0.851   0.856   0.860   0.864   0.872   0.882   0.894
  0.896   0.904   0.914   0.925   0.938   0.951   0.962   0.967
  0.991   1.008   1.019   1.034   1.049   1.068   1.091   1.105
  1.115   1.146   1.154   1.170   1.180   1.195   1.198   1.209
  1.214   1.226   1.235   1.256   1.266   1.273   1.312   1.314
  1.362   1.395   1.423   1.447   1.482   1.498   1.556   1.584
  1.659   1.667   1.704   1.718   1.737   1.752   1.775   1.781
  1.792   1.803   1.838   1.846   1.865   1.880   1.902   1.912
  1.941   1.956   1.972   1.998   2.038   2.048   2.067   2.075
  2.089   2.106   2.136   2.141   2.160   2.185   2.200   2.225
  2.260   2.279   2.309   2.318   2.325   2.348   2.351   2.367
  2.385   2.390   2.406   2.410   2.441   2.446   2.488   2.496
  2.512   2.532   2.547   2.569   2.585   2.626   2.686   2.696
  2.727   2.747   2.786   2.792   2.814   3.026   3.068   3.076
  3.149   3.181   3.199   3.285   3.317   3.555   3.615   3.646
  3.815   3.841   3.854   4.100   4.157   4.176   4.181   4.198
  4.233   4.250   4.346   4.411   4.510   4.561   4.583
 --------------------------------------------------------------
 
          Ground-State Mulliken Net Atomic Charges

     Atom                 Charge (a.u.)    Spin (a.u.)
  --------------------------------------------------------
      1 H                     0.254269      -0.014016
      2 H                     0.161457       0.001015
      3 C                     0.099332       0.283865
      4 C                    -0.394019      -0.038280
      5 S                    -0.104093      -0.042392
      6 C                     0.575731       0.151770
      7 H                     0.150339      -0.009545
      8 C                     0.144307       0.095039
      9 H                     0.071190      -0.008679
     10 C                    -0.122302       0.145932
     11 C                    -0.429170       0.128856
     12 S                     0.284476      -0.046578
     13 C                    -0.060450      -0.032151
     14 H                     0.179881       0.000713
     15 C                    -0.220116       0.268119
     16 C                    -0.084583       0.042577
     17 H                     0.155309      -0.003309
     18 C                     0.143784       0.017839
     19 S                     0.155539      -0.005495
     20 C                    -0.341280       0.000835
     21 C                     0.003133       0.065305
     22 H                     0.149369       0.000816
     23 H                     0.227897      -0.002237
  --------------------------------------------------------
  Sum of atomic charges =     1.000000
  Sum of spin   charges =     1.000000

 -----------------------------------------------------------------
                    Cartesian Multipole Moments
 -----------------------------------------------------------------
    Charge (ESU x 10^10)
                 4.8032
    Dipole Moment (Debye)
         X      25.4692      Y      -2.3043      Z      -0.2229
       Tot      25.5742
    Quadrupole Moments (Debye-Ang)
        XX     113.0143     XY      -8.6938     YY     -95.3807
        XZ       1.7130     YZ       3.4594     ZZ    -102.9505
    Octopole Moments (Debye-Ang^2)
       XXX     225.9247    XXY     -22.5168    XYY    -622.2953
       YYY     139.0004    XXZ      39.6671    XYZ      12.3797
       YYZ      15.4043    XZZ    -606.1417    YZZ      49.3160
       ZZZ      72.0373
    Hexadecapole Moments (Debye-Ang^3)
      XXXX   -7530.6207   XXXY      75.6628   XXYY   -5252.2846
      XYYY     901.4850   YYYY    -663.1508   XXXZ     509.8984
      XXYZ      40.3745   XYYZ     122.5093   YYYZ     -60.0468
      XXZZ   -4754.6908   XYZZ     279.7028   YYZZ    -195.4005
      XZZZ     475.2950   YZZZ     -88.2599   ZZZZ    -404.1241
 -----------------------------------------------------------------
 Calculating analytic gradient of the SCF energy
 Gradient of SCF Energy
            1           2           3           4           5           6
    1   0.0071400   0.0045121  -0.0053557  -0.0041089   0.0037494   0.0290150
    2  -0.0034741   0.0049175  -0.0016071   0.0165221  -0.0289586   0.0152209
    3  -0.0011292   0.0011463  -0.0009286   0.0049026  -0.0061323   0.0040435
            7           8           9          10          11          12
    1  -0.0015253  -0.0260299  -0.0021483   0.0489059  -0.0608157   0.0018834
    2   0.0060995   0.0588210  -0.0063920  -0.0434747  -0.0340466   0.0407110
    3   0.0006271   0.0099960  -0.0001973  -0.0065702  -0.0089105   0.0119540
           13          14          15          16          17          18
    1   0.0258165  -0.0036278  -0.0017532  -0.0035701   0.0020496  -0.0033808
    2  -0.0172459  -0.0046880  -0.0190921   0.0172752   0.0012936  -0.0082427
    3  -0.0122285   0.0004690   0.0127787  -0.0134670  -0.0058917  -0.0055299
           19          20          21          22          23
    1   0.0039077  -0.0071117   0.0031409  -0.0039744  -0.0067186
    2   0.0056889   0.0004953   0.0012499   0.0005156  -0.0015888
    3   0.0237101  -0.0011574  -0.0056453  -0.0053388   0.0034994
 Max gradient component =       6.082E-02
 RMS gradient           =       1.743E-02
 Gradient time:  CPU 4.31 s  wall 4.24 s
 Geometry Optimization Parameters
   NAtoms,    NIC,     NZ,  NCons,   NDum,   NFix, NCnnct, MaxDiis
       23     166       0       1       0       0       0       0


** CONSTRAINED OPTIMIZATION IN DELOCALIZED INTERNAL COORDINATES **
   Searching for a Minimum

   Optimization Cycle:   1

                       Coordinates (Angstroms)
     ATOM                X               Y               Z
      1  H         0.0000000000    0.0000000000    0.0000000000
      2  H         0.6636600000   -2.4682800000   -0.5912700000
      3  C         0.9910300000   -0.3910600000   -0.1165200000
      4  C         1.3681200000   -1.6744200000   -0.4248500000
      5  S         2.3466900000    0.6258600000    0.0863800000
      6  C         2.7616700000   -1.8217500000   -0.5082200000
      7  H         3.2629100000   -2.7387700000   -0.7619900000
      8  C         3.4467100000   -0.6504300000   -0.2605700000
      9  H         4.5564500000    1.4390267100    0.1570438500
     10  C         4.8838200000   -0.6504300000   -0.2605700000
     11  C         5.2609100000    0.6409019400    0.0124539000
     12  S         6.2394800000   -1.6725311300   -0.4355093900
     13  C         6.6544600000    0.7904624800    0.0917531100
     14  H         7.1557000000    1.7140965300    0.3202821300
     15  C         7.3395000000   -0.3872077300   -0.1236860000
     16  C         8.7766100000   -0.3872077300   -0.1236860000
     17  H         8.9604100000   -0.3423651300    2.0235386200
     18  C         9.4616500000   -0.3948735400    1.0735036900
     19  S         9.8766300000   -0.4541900100   -1.4445960100
     20  C        10.8552000000   -0.4449296100    0.9117906900
     21  C        11.2322900000   -0.4726729200   -0.4077963000
     22  H        11.5596600000   -0.4515171900    1.7228797800
     23  H        12.2233200000   -0.5031753000   -0.8147053800
   Point Group: c1    Number of degrees of freedom:    63


   Energy is  -1656.355356011

              Constraints and their Current Values
                                        Value     Constraint
   Dihedral:       13  15  16  18       80.000       80.000

 Attempting to Generate Delocalized Internal Coordinates

 62 Hessian modes will be used to form the next step
  Hessian Eigenvalues:
     0.045000    0.045000    0.045000    0.045000    0.045000    0.045000
     0.045001    0.045001    0.045001    0.045002    0.045003    0.045003
     0.045011    0.045012    0.045012    0.045025    0.045032    0.045058
     0.045059    0.159944    0.159945    0.159945    0.159992    0.159993
     0.159993    0.160000    0.160000    0.221307    0.221308    0.227041
     0.237995    0.238010    0.245411    0.249662    0.249670    0.249670
     0.249825    0.326317    0.326319    0.326962    0.340043    0.340044
     0.340629    0.365512    0.365512    0.365513    0.366888    0.366889
     0.366889    0.370099    0.370100    0.399845    0.399845    0.435419
     0.435419    0.435422    0.463117    0.463122    0.464282    0.495500
     0.495500    0.495533

 Minimum Search - Taking Simple RFO Step
 Searching for Lamda that Minimizes Along All modes
 Value Taken    Lamda =  -0.06471170
 Calculated Step too Large.  Step scaled by  0.688456
 Step Taken.  Stepsize is  0.300000

                             Maximum     Tolerance    Cnvgd?
         Gradient           0.078268      0.000300      NO
         Displacement       0.169441      0.001200      NO
         Energy change     *********      0.000001      NO


 New Cartesian Coordinates Obtained by Inverse Iteration

 Displacement from previous Coordinates is:  1.910435
 ----------------------------------------------------------------
             Standard Nuclear Orientation (Angstroms)
    I     Atom           X                Y                Z
 ----------------------------------------------------------------
    1      H      -0.1156389518    -0.2813507392    -0.1009347463
    2      H       0.7984053661    -2.6938988633    -0.6518687813
    3      C       0.9185645395    -0.5755281011    -0.1841646560
    4      C       1.4218559569    -1.8305662272    -0.4717273677
    5      S       2.1527532253     0.5934045493     0.0522462203
    6      C       2.8227439371    -1.8363324808    -0.5090625063
    7      H       3.4174886640    -2.7090447455    -0.7377160430
    8      C       3.3964715628    -0.5828843166    -0.2485817587
    9      H       4.6335015853     1.7550217001     0.2000074515
   10      C       4.8268413759    -0.3995596788    -0.1993363175
   11      C       5.2871819323     0.9093178862     0.0666930725
   12      S       6.1622642610    -1.4735693967    -0.3583084447
   13      C       6.6799168102     1.0075328472     0.1488344892
   14      H       7.2245520039     1.9156176935     0.3623148710
   15      C       7.3161460084    -0.2149975198    -0.0520426717
   16      C       8.7596470048    -0.3444586253    -0.0684454716
   17      H       9.0544648594    -0.2867820949     2.0819392889
   18      C       9.5013841094    -0.3988456954     1.1044911225
   19      S       9.7821706082    -0.5485084572    -1.4507970154
   20      C      10.8803776880    -0.5851981845     0.8753121662
   21      C      11.1812541751    -0.6703896830    -0.4654287401
   22      H      11.6253765198    -0.6460633284     1.6547493558
   23      H      12.1491567584    -0.7983791684    -0.9225168275
 ----------------------------------------------------------------
 Nuclear Repulsion Energy =  1175.3721839845 hartrees
 There are       64 alpha and       63 beta electrons
 Applying Cartesian multipole field
    Component          Value
    ---------          -----
     (2,0,0)        1.00000E-12
     (0,2,0)        2.00000E-11
     (0,0,2)       -3.00000E-11
 Nucleus-field energy     =     0.0000000247 hartrees
 Requested basis set is 6-31++G(d,p)
 There are 110 shells and 345 basis functions
 A cutoff of  1.0D-12 yielded   4697 shell pairs
 There are     47810 function pairs

 Q-Chem warning in module /project/projectdirs/jcesr/qchem/qc44/cnl_qc441/compile/cori/qc_src/libqints/qchem/aobasis.C, line 68:

 Using reconstructed effective core potential

 Smallest overlap matrix eigenvalue = 8.84E-08
 Linear dependence detected in AO basis
 Number of orthogonalized atomic orbitals = 343
 Maximum deviation from orthogonality = 2.286E-10
 No. of orbitals has changed due to linear dependencies.  Generating new SCF guess.
 Guess from superposition of atomic densities
 Warning:  Energy on first SCF cycle will be non-variational
 An unrestricted hybrid HF-DFT SCF calculation will be
 performed using Pulay DIIS extrapolation
 Exchange:     0.2000 Hartree-Fock + 0.0800 Slater + 0.7200 B88
 Correlation:  0.1900 VWN1RPA + 0.8100 LYP
 Using SG-1 standard quadrature grid
 SCF converges when DIIS error is below 1.0E-08
 Geometry optimization detected.  Setting ReadMinima to 0
 Setting SaveMinima to 0
 Inaccurate integrated density:
   Number of electrons =   127
   Numerical integral  =   127.999853808460
   Relative error      =     0.7872864634 %
 ---------------------------------------
  Cycle       Energy         DIIS Error
 ---------------------------------------
    1   -1660.4181688236      3.72E-02
    2   -1656.1837086945      3.46E-03
    3   -1655.7039424037      5.95E-03
    4   -1656.3421545323      1.51E-03
    5   -1656.3826587171      3.89E-04
    6   -1656.3846598693      2.43E-04
    7   -1656.3855441276      1.13E-04
    8   -1656.3858000629      3.59E-05
    9   -1656.3858450306      1.13E-05
   10   -1656.3858636662      6.52E-06
   11   -1656.3858742412      5.87E-06
   12   -1656.3858794790      2.77E-06
   13   -1656.3858813250      1.54E-06
   14   -1656.3858817233      6.21E-07
   15   -1656.3858818117      2.80E-07
   16   -1656.3858818224      1.33E-07
   17   -1656.3858818240      5.08E-08
   18   -1656.3858818258      2.63E-08
   19   -1656.3858818249      1.24E-08
   20   -1656.3858818242      7.48E-09 Convergence criterion met
 ---------------------------------------
 <S^2> = 0.7649
 SCF time:  CPU 27.88 s  wall 25.83 s
 SCF   energy in the final basis set = -1656.3858818242
 Total energy in the final basis set = -1656.3858818242
 
 --------------------------------------------------------------
 
                    Orbital Energies (a.u.)
 --------------------------------------------------------------
 
 Alpha MOs
 -- Occupied --
-89.086 -89.081 -89.047 -10.416 -10.412 -10.410 -10.396 -10.372
-10.370 -10.366 -10.361 -10.358 -10.348 -10.332 -10.320  -8.145
 -8.141  -8.106  -6.109  -6.105  -6.105  -6.101  -6.101  -6.098
 -6.071  -6.067  -6.064  -1.075  -1.052  -1.019  -0.949  -0.917
 -0.903  -0.893  -0.870  -0.842  -0.771  -0.747  -0.714  -0.698
 -0.691  -0.685  -0.669  -0.645  -0.609  -0.580  -0.578  -0.576
 -0.563  -0.552  -0.549  -0.534  -0.527  -0.522  -0.519  -0.506
 -0.502  -0.477  -0.449  -0.426  -0.418  -0.384  -0.381  -0.365
 -- Virtual --
 -0.228  -0.165  -0.158  -0.143  -0.127  -0.117  -0.115  -0.104
 -0.102  -0.100  -0.095  -0.089  -0.084  -0.078  -0.074  -0.072
 -0.068  -0.062  -0.059  -0.055  -0.045  -0.042  -0.036  -0.033
 -0.029  -0.020  -0.016  -0.012  -0.007  -0.001   0.002   0.007
  0.010   0.010   0.015   0.019   0.021   0.021   0.026   0.027
  0.030   0.037   0.040   0.043   0.045   0.046   0.050   0.053
  0.056   0.057   0.058   0.062   0.065   0.070   0.078   0.080
  0.084   0.089   0.095   0.098   0.101   0.108   0.111   0.113
  0.118   0.122   0.124   0.129   0.136   0.140   0.149   0.150
  0.155   0.159   0.164   0.172   0.175   0.179   0.182   0.193
  0.197   0.200   0.213   0.221   0.224   0.229   0.238   0.242
  0.251   0.256   0.263   0.269   0.288   0.312   0.330   0.336
  0.354   0.369   0.379   0.393   0.400   0.423   0.430   0.455
  0.464   0.473   0.483   0.489   0.499   0.506   0.507   0.509
  0.519   0.527   0.545   0.551   0.560   0.567   0.572   0.575
  0.589   0.600   0.607   0.617   0.625   0.632   0.641   0.658
  0.660   0.665   0.671   0.676   0.680   0.697   0.714   0.731
  0.776   0.785   0.794   0.804   0.816   0.819   0.822   0.835
  0.841   0.846   0.850   0.855   0.858   0.867   0.873   0.888
  0.894   0.902   0.918   0.922   0.931   0.949   0.958   0.963
  0.986   1.001   1.018   1.020   1.036   1.063   1.090   1.095
  1.105   1.130   1.144   1.168   1.175   1.187   1.193   1.199
  1.204   1.226   1.233   1.254   1.260   1.279   1.308   1.315
  1.363   1.376   1.408   1.428   1.474   1.494   1.541   1.578
  1.653   1.665   1.688   1.704   1.731   1.745   1.762   1.772
  1.790   1.794   1.811   1.822   1.841   1.870   1.879   1.895
  1.923   1.927   1.956   1.982   2.018   2.024   2.052   2.056
  2.072   2.088   2.102   2.123   2.141   2.158   2.179   2.216
  2.252   2.268   2.298   2.302   2.307   2.335   2.336   2.348
  2.370   2.374   2.387   2.398   2.420   2.431   2.474   2.481
  2.487   2.515   2.534   2.554   2.577   2.614   2.678   2.684
  2.720   2.744   2.751   2.773   2.788   2.995   3.053   3.058
  3.135   3.167   3.189   3.265   3.302   3.536   3.590   3.627
  3.812   3.834   3.851   4.088   4.151   4.164   4.179   4.182
  4.217   4.243   4.335   4.396   4.501   4.550   4.574
 
 Beta MOs
 -- Occupied --
-89.086 -89.082 -89.047 -10.414 -10.409 -10.408 -10.392 -10.370
-10.368 -10.365 -10.361 -10.359 -10.347 -10.331 -10.320  -8.145
 -8.141  -8.106  -6.109  -6.105  -6.105  -6.102  -6.101  -6.098
 -6.071  -6.067  -6.064  -1.070  -1.047  -1.017  -0.942  -0.915
 -0.902  -0.888  -0.869  -0.837  -0.767  -0.744  -0.710  -0.695
 -0.689  -0.684  -0.667  -0.644  -0.607  -0.577  -0.574  -0.567
 -0.561  -0.549  -0.539  -0.533  -0.526  -0.520  -0.512  -0.505
 -0.501  -0.476  -0.426  -0.423  -0.415  -0.383  -0.365
 -- Virtual --
 -0.314  -0.210  -0.160  -0.146  -0.141  -0.124  -0.116  -0.104
 -0.102  -0.100  -0.094  -0.091  -0.088  -0.083  -0.078  -0.074
 -0.071  -0.066  -0.062  -0.058  -0.055  -0.044  -0.041  -0.036
 -0.033  -0.028  -0.019  -0.015  -0.011  -0.007  -0.001   0.002
  0.008   0.010   0.011   0.015   0.019   0.021   0.022   0.027
  0.028   0.031   0.037   0.041   0.043   0.045   0.047   0.050
  0.054   0.057   0.058   0.060   0.062   0.065   0.071   0.079
  0.081   0.085   0.090   0.096   0.099   0.102   0.109   0.112
  0.114   0.118   0.123   0.126   0.129   0.137   0.141   0.150
  0.152   0.156   0.160   0.165   0.173   0.176   0.179   0.183
  0.195   0.197   0.201   0.215   0.223   0.225   0.230   0.239
  0.243   0.252   0.256   0.264   0.271   0.289   0.313   0.331
  0.337   0.355   0.370   0.381   0.394   0.402   0.424   0.430
  0.457   0.465   0.474   0.484   0.495   0.500   0.509   0.511
  0.516   0.521   0.530   0.547   0.553   0.562   0.570   0.575
  0.577   0.592   0.606   0.609   0.618   0.628   0.634   0.643
  0.660   0.664   0.667   0.674   0.678   0.683   0.701   0.716
  0.732   0.777   0.786   0.798   0.807   0.818   0.821   0.826
  0.838   0.843   0.847   0.851   0.856   0.859   0.868   0.874
  0.889   0.895   0.904   0.919   0.923   0.932   0.950   0.959
  0.964   0.986   1.002   1.020   1.023   1.039   1.064   1.093
  1.099   1.108   1.137   1.147   1.171   1.178   1.191   1.197
  1.204   1.208   1.228   1.234   1.256   1.263   1.286   1.311
  1.320   1.365   1.380   1.412   1.432   1.478   1.502   1.552
  1.580   1.659   1.669   1.691   1.710   1.734   1.749   1.764
  1.774   1.791   1.796   1.816   1.827   1.843   1.874   1.882
  1.898   1.927   1.933   1.959   1.987   2.024   2.032   2.056
  2.061   2.078   2.091   2.110   2.127   2.145   2.162   2.183
  2.219   2.254   2.273   2.301   2.308   2.309   2.337   2.340
  2.350   2.374   2.376   2.389   2.400   2.424   2.435   2.476
  2.482   2.489   2.517   2.536   2.558   2.578   2.616   2.681
  2.689   2.722   2.745   2.753   2.775   2.791   2.996   3.054
  3.059   3.136   3.168   3.190   3.267   3.303   3.537   3.591
  3.628   3.812   3.834   3.851   4.092   4.156   4.167   4.181
  4.186   4.219   4.248   4.338   4.400   4.504   4.553   4.576
 --------------------------------------------------------------
 
          Ground-State Mulliken Net Atomic Charges

     Atom                 Charge (a.u.)    Spin (a.u.)
  --------------------------------------------------------
      1 H                     0.253405      -0.013845
      2 H                     0.166687       0.001364
      3 C                     0.089231       0.282977
      4 C                    -0.361390      -0.043592
      5 S                    -0.037830      -0.046378
      6 C                     0.490301       0.152969
      7 H                     0.143338      -0.010119
      8 C                    -0.087508       0.089192
      9 H                     0.118842      -0.009407
     10 C                     0.135631       0.160346
     11 C                    -0.492784       0.113321
     12 S                     0.173507      -0.052337
     13 C                     0.141551      -0.011161
     14 H                     0.176511       0.000742
     15 C                    -0.322920       0.274256
     16 C                    -0.142965       0.040914
     17 H                     0.159366      -0.003414
     18 C                     0.210422       0.016035
     19 S                     0.136589      -0.004393
     20 C                    -0.353195      -0.000457
     21 C                     0.024284       0.064250
     22 H                     0.150115       0.000836
     23 H                     0.228812      -0.002097
  --------------------------------------------------------
  Sum of atomic charges =     1.000000
  Sum of spin   charges =     1.000000

 -----------------------------------------------------------------
                    Cartesian Multipole Moments
 -----------------------------------------------------------------
    Charge (ESU x 10^10)
                 4.8032
    Dipole Moment (Debye)
         X      25.3470      Y      -2.2148      Z      -0.2129
       Tot      25.4445
    Quadrupole Moments (Debye-Ang)
        XX     111.8177     XY      -8.1210     YY     -94.2081
        XZ       2.3242     YZ       3.8102     ZZ    -103.1454
    Octopole Moments (Debye-Ang^2)
       XXX     219.1408    XXY     -39.3267    XYY    -611.4657
       YYY     134.6248    XXZ      42.2038    XYZ      15.1627
       YYZ      14.4450    XZZ    -601.0948    YZZ      46.5563
       ZZZ      68.8815
    Hexadecapole Moments (Debye-Ang^3)
      XXXX   -7584.2287   XXXY    -278.4127   XXYY   -5151.2229
      XYYY     899.6378   YYYY    -669.4023   XXXZ     494.4245
      XXYZ      69.9895   XYYZ     112.8119   YYYZ     -58.4702
      XXZZ   -4692.5601   XYZZ     262.1714   YYZZ    -198.2054
      XZZZ     436.4105   YZZZ     -88.5704   ZZZZ    -403.7826
 -----------------------------------------------------------------
 Calculating analytic gradient of the SCF energy
 Gradient of SCF Energy
            1           2           3           4           5           6
    1   0.0030375   0.0013513  -0.0020079  -0.0049654   0.0005407   0.0113640
    2  -0.0012765   0.0016937  -0.0016647   0.0050897  -0.0146551   0.0055363
    3  -0.0004473   0.0004321  -0.0007677   0.0018491  -0.0026428   0.0024597
            7           8           9          10          11          12
    1  -0.0010066  -0.0293954   0.0037045   0.0342665  -0.0239995  -0.0010625
    2   0.0026162   0.0354263  -0.0029346  -0.0426680  -0.0059384   0.0252581
    3  -0.0001797   0.0046536   0.0003813  -0.0065878  -0.0027518   0.0077707
           13          14          15          16          17          18
    1   0.0183884  -0.0013274  -0.0052686   0.0010101   0.0008811  -0.0011198
    2  -0.0031151  -0.0017338  -0.0131800   0.0126556   0.0011072  -0.0079834
    3  -0.0086475   0.0009942   0.0111012  -0.0158283  -0.0023290   0.0010586
           19          20          21          22          23
    1   0.0029840  -0.0037361   0.0004636  -0.0014235  -0.0026790
    2   0.0043559   0.0006018   0.0014811   0.0004658  -0.0011380
    3   0.0124260   0.0019241  -0.0046374  -0.0019314   0.0016999
 Max gradient component =       4.267E-02
 RMS gradient           =       1.108E-02
 Gradient time:  CPU 4.32 s  wall 4.20 s
 Geometry Optimization Parameters
   NAtoms,    NIC,     NZ,  NCons,   NDum,   NFix, NCnnct, MaxDiis
       23     166       0       1       0       0       0       0

 Cartesian Hessian Update
 Hessian Updated using BFGS Update


** CONSTRAINED OPTIMIZATION IN DELOCALIZED INTERNAL COORDINATES **
   Searching for a Minimum

   Optimization Cycle:   2

                       Coordinates (Angstroms)
     ATOM                X               Y               Z
      1  H        -0.1156389518   -0.2813507392   -0.1009347463
      2  H         0.7984053661   -2.6938988633   -0.6518687813
      3  C         0.9185645395   -0.5755281011   -0.1841646560
      4  C         1.4218559569   -1.8305662272   -0.4717273677
      5  S         2.1527532253    0.5934045493    0.0522462203
      6  C         2.8227439371   -1.8363324808   -0.5090625063
      7  H         3.4174886640   -2.7090447455   -0.7377160430
      8  C         3.3964715628   -0.5828843166   -0.2485817587
      9  H         4.6335015853    1.7550217001    0.2000074515
     10  C         4.8268413759   -0.3995596788   -0.1993363175
     11  C         5.2871819323    0.9093178862    0.0666930725
     12  S         6.1622642610   -1.4735693967   -0.3583084447
     13  C         6.6799168102    1.0075328472    0.1488344892
     14  H         7.2245520039    1.9156176935    0.3623148710
     15  C         7.3161460084   -0.2149975198   -0.0520426717
     16  C         8.7596470048   -0.3444586253   -0.0684454716
     17  H         9.0544648594   -0.2867820949    2.0819392889
     18  C         9.5013841094   -0.3988456954    1.1044911225
     19  S         9.7821706082   -0.5485084572   -1.4507970154
     20  C        10.8803776880   -0.5851981845    0.8753121662
     21  C        11.1812541751   -0.6703896830   -0.4654287401
     22  H        11.6253765198   -0.6460633284    1.6547493558
     23  H        12.1491567584   -0.7983791684   -0.9225168275
   Point Group: c1    Number of degrees of freedom:    63


   Energy is  -1656.385881824

              Constraints and their Current Values
                                        Value     Constraint
   Dihedral:       13  15  16  18       80.000       80.000
 Hessian Updated using BFGS Update

 62 Hessian modes will be used to form the next step
  Hessian Eigenvalues:
     0.044822    0.045000    0.045000    0.045000    0.045000    0.045000
     0.045001    0.045001    0.045001    0.045002    0.045003    0.045003
     0.045011    0.045012    0.045015    0.045017    0.045027    0.045057
     0.045060    0.159393    0.159945    0.159945    0.159976    0.159993
     0.159995    0.160000    0.160263    0.190074    0.221309    0.221851
     0.230278    0.238046    0.238679    0.246463    0.249669    0.249670
     0.283483    0.324454    0.326578    0.327236    0.338491    0.340088
     0.340387    0.365174    0.365513    0.365521    0.366523    0.366889
     0.367332    0.369912    0.370100    0.398503    0.414439    0.434613
     0.435420    0.437254    0.462729    0.463122    0.471465    0.494786
     0.495505    0.578000

 Minimum Search - Taking Simple RFO Step
 Searching for Lamda that Minimizes Along All modes
 Value Taken    Lamda =  -0.02127956
 Calculated Step too Large.  Step scaled by  0.919899
 Step Taken.  Stepsize is  0.300000

                             Maximum     Tolerance    Cnvgd?
         Gradient           0.030115      0.000300      NO
         Displacement       0.121670      0.001200      NO
         Energy change     -0.030526      0.000001      NO


 New Cartesian Coordinates Obtained by Inverse Iteration

 Displacement from previous Coordinates is:  1.539836
 ----------------------------------------------------------------
             Standard Nuclear Orientation (Angstroms)
    I     Atom           X                Y                Z
 ----------------------------------------------------------------
    1      H      -0.0889646270    -0.4301832375    -0.2063334456
    2      H       0.9493774941    -2.8129745265    -0.7094179387
    3      C       0.9651069110    -0.6774100290    -0.2553451175
    4      C       1.5330178722    -1.9203570175    -0.5187279640
    5      S       2.1256883738     0.5659593732     0.0075617111
    6      C       2.9291174953    -1.8688365795    -0.5122136692
    7      H       3.5707925906    -2.7208852088    -0.7105162927
    8      C       3.4323693109    -0.5740545486    -0.2419963675
    9      H       4.5864081983     1.9462542137     0.2244808938
   10      C       4.7952183290    -0.2240974432    -0.1384161064
   11      C       5.2546731674     1.0967447190     0.1214047821
   12      S       6.1223936226    -1.3424687461    -0.2722649074
   13      C       6.6361672115     1.1750952391     0.2200314719
   14      H       7.1914694021     2.0841922740     0.4162489981
   15      C       7.2741652457    -0.0687354032     0.0440409491
   16      C       8.7116587347    -0.2959032016     0.0140600099
   17      H       9.1534434665    -0.2193918528     2.1457251062
   18      C       9.5238833811    -0.3841744684     1.1399757753
   19      S       9.6162581165    -0.6394509793    -1.4383481614
   20      C      10.8697940672    -0.6933913909     0.8228146058
   21      C      11.0687816417    -0.8405459705    -0.5321164251
   22      H      11.6610426960    -0.7972771664     1.5560091183
   23      H      11.9950172986    -1.0535706792    -1.0510003362
 ----------------------------------------------------------------
 Nuclear Repulsion Energy =  1177.4751228864 hartrees
 There are       64 alpha and       63 beta electrons
 Applying Cartesian multipole field
    Component          Value
    ---------          -----
     (2,0,0)        1.00000E-12
     (0,2,0)        2.00000E-11
     (0,0,2)       -3.00000E-11
 Nucleus-field energy     =     0.0000000249 hartrees
 Requested basis set is 6-31++G(d,p)
 There are 110 shells and 345 basis functions
 A cutoff of  1.0D-12 yielded   4696 shell pairs
 There are     47920 function pairs

 Q-Chem warning in module /project/projectdirs/jcesr/qchem/qc44/cnl_qc441/compile/cori/qc_src/libqints/qchem/aobasis.C, line 68:

 Using reconstructed effective core potential

 Smallest overlap matrix eigenvalue = 8.28E-08
 Linear dependence detected in AO basis
 Number of orthogonalized atomic orbitals = 343
 Maximum deviation from orthogonality = 1.452E-10
 Guess MOs from SCF MO coefficient file
 Reading MOs from coefficient file
 Reading MOs from coefficient file
 An unrestricted hybrid HF-DFT SCF calculation will be
 performed using Pulay DIIS extrapolation
 Exchange:     0.2000 Hartree-Fock + 0.0800 Slater + 0.7200 B88
 Correlation:  0.1900 VWN1RPA + 0.8100 LYP
 Using SG-1 standard quadrature grid
 SCF converges when DIIS error is below 1.0E-08
 Geometry optimization detected.  Setting ReadMinima to 0
 Setting SaveMinima to 0
 Inaccurate integrated density:
   Number of electrons =   127
   Numerical integral  =   126.847803642683
   Relative error      =    -0.1198396514 %
 ---------------------------------------
  Cycle       Energy         DIIS Error
 ---------------------------------------
    1   -1656.2321190689      3.68E-03
    2   -1656.3901409553      6.26E-04
    3   -1656.3753182309      1.12E-03
    4   -1656.3973984663      1.63E-04
    5   -1656.3977773171      6.10E-05
    6   -1656.3978299977      2.73E-05
    7   -1656.3978420559      1.05E-05
    8   -1656.3978440428      3.90E-06
    9   -1656.3978444279      1.68E-06
   10   -1656.3978445663      6.16E-07
   11   -1656.3978446377      3.65E-07
   12   -1656.3978446659      1.76E-07
   13   -1656.3978446784      9.66E-08
   14   -1656.3978446802      4.55E-08
   15   -1656.3978446813      2.40E-08
   16   -1656.3978446812      1.42E-08
   17   -1656.3978446806      5.66E-09 Convergence criterion met
 ---------------------------------------
 <S^2> = 0.7661
 SCF time:  CPU 24.03 s  wall 22.25 s
 SCF   energy in the final basis set = -1656.3978446806
 Total energy in the final basis set = -1656.3978446806
 
 --------------------------------------------------------------
 
                    Orbital Energies (a.u.)
 --------------------------------------------------------------
 
 Alpha MOs
 -- Occupied --
-89.083 -89.081 -89.047 -10.415 -10.415 -10.408 -10.397 -10.375
-10.373 -10.366 -10.366 -10.361 -10.348 -10.334 -10.321  -8.142
 -8.140  -8.105  -6.106  -6.104  -6.102  -6.101  -6.099  -6.097
 -6.070  -6.066  -6.062  -1.071  -1.047  -1.014  -0.947  -0.919
 -0.905  -0.887  -0.868  -0.839  -0.772  -0.748  -0.715  -0.697
 -0.690  -0.686  -0.663  -0.641  -0.608  -0.579  -0.576  -0.574
 -0.564  -0.551  -0.547  -0.535  -0.526  -0.523  -0.517  -0.506
 -0.503  -0.477  -0.448  -0.428  -0.420  -0.383  -0.379  -0.362
 -- Virtual --
 -0.233  -0.167  -0.160  -0.145  -0.133  -0.117  -0.116  -0.104
 -0.099  -0.095  -0.094  -0.090  -0.084  -0.078  -0.074  -0.073
 -0.067  -0.062  -0.058  -0.054  -0.045  -0.041  -0.037  -0.030
 -0.027  -0.020  -0.017  -0.011  -0.007  -0.001   0.000   0.008
  0.008   0.009   0.013   0.019   0.022   0.023   0.027   0.027
  0.029   0.038   0.040   0.043   0.045   0.047   0.050   0.052
  0.054   0.056   0.058   0.061   0.066   0.071   0.076   0.081
  0.084   0.089   0.093   0.098   0.099   0.107   0.110   0.112
  0.117   0.120   0.122   0.130   0.135   0.139   0.145   0.150
  0.153   0.157   0.169   0.171   0.174   0.178   0.181   0.190
  0.196   0.197   0.210   0.216   0.220   0.230   0.234   0.239
  0.252   0.253   0.260   0.265   0.288   0.313   0.329   0.337
  0.356   0.370   0.380   0.391   0.410   0.420   0.436   0.450
  0.456   0.468   0.478   0.492   0.496   0.503   0.505   0.508
  0.520   0.527   0.547   0.551   0.560   0.567   0.570   0.577
  0.586   0.599   0.606   0.617   0.622   0.632   0.639   0.659
  0.667   0.670   0.677   0.681   0.686   0.698   0.714   0.737
  0.779   0.781   0.786   0.805   0.815   0.818   0.820   0.826
  0.838   0.842   0.847   0.854   0.856   0.866   0.870   0.886
  0.894   0.906   0.912   0.918   0.925   0.947   0.953   0.956
  0.983   0.997   1.010   1.022   1.040   1.060   1.086   1.091
  1.108   1.120   1.138   1.160   1.170   1.186   1.196   1.198
  1.199   1.229   1.238   1.254   1.277   1.296   1.317   1.333
  1.355   1.382   1.411   1.433   1.477   1.506   1.541   1.575
  1.647   1.660   1.693   1.696   1.712   1.751   1.764   1.771
  1.783   1.787   1.799   1.814   1.827   1.867   1.879   1.898
  1.912   1.922   1.958   1.979   2.010   2.017   2.039   2.052
  2.070   2.084   2.100   2.114   2.131   2.145   2.176   2.212
  2.250   2.268   2.285   2.292   2.300   2.326   2.330   2.344
  2.366   2.368   2.381   2.393   2.408   2.433   2.463   2.471
  2.484   2.507   2.531   2.552   2.569   2.602   2.665   2.704
  2.726   2.740   2.751   2.774   2.780   2.980   3.043   3.052
  3.126   3.159   3.169   3.254   3.293   3.528   3.581   3.616
  3.814   3.828   3.850   4.089   4.150   4.161   4.167   4.185
  4.209   4.249   4.334   4.394   4.502   4.551   4.572
 
 Beta MOs
 -- Occupied --
-89.083 -89.081 -89.046 -10.413 -10.411 -10.407 -10.394 -10.373
-10.371 -10.366 -10.366 -10.361 -10.347 -10.333 -10.321  -8.142
 -8.140  -8.105  -6.106  -6.105  -6.103  -6.101  -6.099  -6.098
 -6.069  -6.066  -6.062  -1.066  -1.042  -1.012  -0.940  -0.917
 -0.903  -0.881  -0.867  -0.833  -0.768  -0.745  -0.712  -0.695
 -0.688  -0.685  -0.661  -0.639  -0.607  -0.575  -0.573  -0.566
 -0.562  -0.549  -0.536  -0.534  -0.525  -0.522  -0.510  -0.505
 -0.500  -0.476  -0.427  -0.424  -0.416  -0.382  -0.365
 -- Virtual --
 -0.309  -0.214  -0.161  -0.149  -0.143  -0.130  -0.116  -0.106
 -0.101  -0.098  -0.094  -0.090  -0.085  -0.083  -0.078  -0.073
 -0.072  -0.066  -0.061  -0.057  -0.053  -0.044  -0.040  -0.036
 -0.030  -0.026  -0.019  -0.016  -0.010  -0.006  -0.000   0.001
  0.009   0.009   0.010   0.014   0.020   0.023   0.024   0.027
  0.029   0.030   0.038   0.040   0.044   0.046   0.048   0.051
  0.053   0.055   0.057   0.060   0.062   0.067   0.072   0.078
  0.082   0.085   0.090   0.094   0.099   0.100   0.109   0.111
  0.113   0.118   0.122   0.124   0.131   0.136   0.139   0.146
  0.151   0.154   0.158   0.169   0.172   0.175   0.178   0.181
  0.191   0.197   0.198   0.211   0.218   0.222   0.231   0.235
  0.240   0.254   0.254   0.261   0.267   0.289   0.315   0.331
  0.338   0.357   0.370   0.382   0.392   0.412   0.421   0.437
  0.451   0.457   0.469   0.479   0.497   0.498   0.507   0.508
  0.515   0.524   0.529   0.549   0.553   0.562   0.569   0.573
  0.578   0.589   0.605   0.608   0.618   0.623   0.636   0.640
  0.661   0.670   0.672   0.681   0.683   0.687   0.701   0.715
  0.738   0.780   0.784   0.788   0.807   0.819   0.820   0.822
  0.830   0.840   0.843   0.848   0.855   0.857   0.867   0.872
  0.887   0.896   0.908   0.913   0.919   0.926   0.948   0.954
  0.958   0.984   0.998   1.011   1.025   1.044   1.061   1.090
  1.094   1.111   1.127   1.140   1.162   1.172   1.190   1.199
  1.201   1.207   1.230   1.239   1.256   1.278   1.302   1.321
  1.337   1.360   1.385   1.414   1.437   1.481   1.515   1.552
  1.578   1.654   1.664   1.698   1.700   1.716   1.753   1.766
  1.774   1.786   1.790   1.803   1.817   1.830   1.871   1.883
  1.901   1.918   1.925   1.961   1.984   2.016   2.024   2.043
  2.057   2.074   2.089   2.108   2.118   2.134   2.149   2.180
  2.215   2.252   2.273   2.289   2.294   2.305   2.328   2.333
  2.345   2.368   2.373   2.383   2.395   2.411   2.436   2.465
  2.473   2.487   2.510   2.534   2.557   2.570   2.603   2.668
  2.708   2.729   2.742   2.753   2.776   2.782   2.980   3.044
  3.053   3.127   3.159   3.170   3.256   3.294   3.529   3.583
  3.617   3.814   3.828   3.850   4.094   4.154   4.164   4.170
  4.188   4.211   4.254   4.337   4.398   4.505   4.554   4.574
 --------------------------------------------------------------
 
          Ground-State Mulliken Net Atomic Charges

     Atom                 Charge (a.u.)    Spin (a.u.)
  --------------------------------------------------------
      1 H                     0.250142      -0.014252
      2 H                     0.169395       0.001374
      3 C                     0.075443       0.288951
      4 C                    -0.324209      -0.044452
      5 S                    -0.060840      -0.043166
      6 C                     0.540565       0.155896
      7 H                     0.149829      -0.010097
      8 C                    -0.239677       0.080224
      9 H                     0.142136      -0.008698
     10 C                     0.150792       0.155170
     11 C                    -0.335121       0.107546
     12 S                     0.007646      -0.052880
     13 C                     0.272788      -0.003574
     14 H                     0.176757       0.000129
     15 C                    -0.396876       0.283556
     16 C                    -0.185080       0.037704
     17 H                     0.163687      -0.003549
     18 C                     0.275803       0.012080
     19 S                     0.104390      -0.001644
     20 C                    -0.351521      -0.001084
     21 C                     0.034337       0.061886
     22 H                     0.150515       0.000781
     23 H                     0.229103      -0.001900
  --------------------------------------------------------
  Sum of atomic charges =     1.000000
  Sum of spin   charges =     1.000000

 -----------------------------------------------------------------
                    Cartesian Multipole Moments
 -----------------------------------------------------------------
    Charge (ESU x 10^10)
                 4.8032
    Dipole Moment (Debye)
         X      25.2473      Y      -2.1845      Z      -0.2157
       Tot      25.3425
    Quadrupole Moments (Debye-Ang)
        XX     108.0170     XY      -8.5602     YY     -92.5966
        XZ       2.9810     YZ       4.3215     ZZ    -103.1283
    Octopole Moments (Debye-Ang^2)
       XXX     167.3878    XXY     -56.7487    XYY    -598.6134
       YYY     131.7781    XXZ      45.6109    XYZ      19.4028
       YYZ      12.6553    XZZ    -597.6561    YZZ      44.7705
       ZZZ      64.4787
    Hexadecapole Moments (Debye-Ang^3)
      XXXX   -8053.9453   XXXY    -553.0874   XXYY   -5004.7723
      XYYY     904.4834   YYYY    -692.2304   XXXZ     486.9254
      XXYZ     110.8043   XYYZ      94.2690   YYYZ     -60.4814
      XXZZ   -4613.9264   XYZZ     253.8035   YYZZ    -203.0401
      XZZZ     384.5835   YZZZ     -92.2726   ZZZZ    -401.9323
 -----------------------------------------------------------------
 Calculating analytic gradient of the SCF energy
 Gradient of SCF Energy
            1           2           3           4           5           6
    1  -0.0002326   0.0001486   0.0022169  -0.0007399   0.0037771   0.0023996
    2   0.0007341  -0.0003846  -0.0015729  -0.0011845   0.0003518  -0.0025317
    3   0.0000326  -0.0000217  -0.0003403  -0.0000337   0.0004122   0.0007127
            7           8           9          10          11          12
    1   0.0003496  -0.0072837  -0.0008511   0.0106982  -0.0041779  -0.0034426
    2  -0.0003435   0.0157693   0.0011566  -0.0180546   0.0035704   0.0021679
    3  -0.0006849   0.0012357   0.0006036  -0.0016204  -0.0000797   0.0023191
           13          14          15          16          17          18
    1   0.0012140  -0.0007054  -0.0052596   0.0022682  -0.0000407  -0.0003841
    2   0.0035421   0.0001675  -0.0067008   0.0064954   0.0007850  -0.0077070
    3  -0.0070961   0.0008189   0.0090808  -0.0123783   0.0002278   0.0037983
           19          20          21          22          23
    1   0.0009382  -0.0007431  -0.0006906   0.0003887   0.0001521
    2   0.0024872   0.0002002   0.0019117   0.0001159  -0.0009754
    3   0.0030353   0.0017926  -0.0018895   0.0001070  -0.0000320
 Max gradient component =       1.805E-02
 RMS gradient           =       4.446E-03
 Gradient time:  CPU 4.29 s  wall 4.21 s
 Geometry Optimization Parameters
   NAtoms,    NIC,     NZ,  NCons,   NDum,   NFix, NCnnct, MaxDiis
       23     166       0       1       0       0       0       0

 Cartesian Hessian Update
 Hessian Updated using BFGS Update


** CONSTRAINED OPTIMIZATION IN DELOCALIZED INTERNAL COORDINATES **
   Searching for a Minimum

   Optimization Cycle:   3

                       Coordinates (Angstroms)
     ATOM                X               Y               Z
      1  H        -0.0889646270   -0.4301832375   -0.2063334456
      2  H         0.9493774941   -2.8129745265   -0.7094179387
      3  C         0.9651069110   -0.6774100290   -0.2553451175
      4  C         1.5330178722   -1.9203570175   -0.5187279640
      5  S         2.1256883738    0.5659593732    0.0075617111
      6  C         2.9291174953   -1.8688365795   -0.5122136692
      7  H         3.5707925906   -2.7208852088   -0.7105162927
      8  C         3.4323693109   -0.5740545486   -0.2419963675
      9  H         4.5864081983    1.9462542137    0.2244808938
     10  C         4.7952183290   -0.2240974432   -0.1384161064
     11  C         5.2546731674    1.0967447190    0.1214047821
     12  S         6.1223936226   -1.3424687461   -0.2722649074
     13  C         6.6361672115    1.1750952391    0.2200314719
     14  H         7.1914694021    2.0841922740    0.4162489981
     15  C         7.2741652457   -0.0687354032    0.0440409491
     16  C         8.7116587347   -0.2959032016    0.0140600099
     17  H         9.1534434665   -0.2193918528    2.1457251062
     18  C         9.5238833811   -0.3841744684    1.1399757753
     19  S         9.6162581165   -0.6394509793   -1.4383481614
     20  C        10.8697940672   -0.6933913909    0.8228146058
     21  C        11.0687816417   -0.8405459705   -0.5321164251
     22  H        11.6610426960   -0.7972771664    1.5560091183
     23  H        11.9950172986   -1.0535706792   -1.0510003362
   Point Group: c1    Number of degrees of freedom:    63


   Energy is  -1656.397844681

              Constraints and their Current Values
                                        Value     Constraint
   Dihedral:       13  15  16  18       80.000       80.000
 Hessian Updated using BFGS Update

 62 Hessian modes will be used to form the next step
  Hessian Eigenvalues:
     0.043172    0.045000    0.045000    0.045000    0.045000    0.045001
     0.045001    0.045001    0.045002    0.045002    0.045003    0.045004
     0.045011    0.045012    0.045014    0.045024    0.045051    0.045057
     0.045106    0.152058    0.159945    0.159955    0.159979    0.159993
     0.159997    0.160037    0.160476    0.168876    0.221308    0.223023
     0.230282    0.238079    0.240349    0.249200    0.249670    0.262710
     0.279498    0.323299    0.326571    0.328204    0.337966    0.340095
     0.341561    0.365512    0.365517    0.365840    0.366889    0.367254
     0.367965    0.370100    0.370967    0.401698    0.424228    0.435333
     0.435423    0.442877    0.462970    0.464656    0.482928    0.494587
     0.497601    0.579496

 Minimum Search - Taking Simple RFO Step
 Searching for Lamda that Minimizes Along All modes
 Value Taken    Lamda =  -0.00351495
 Step Taken.  Stepsize is  0.185762

                             Maximum     Tolerance    Cnvgd?
         Gradient           0.008999      0.000300      NO
         Displacement       0.068183      0.001200      NO
         Energy change     -0.011963      0.000001      NO


 New Cartesian Coordinates Obtained by Inverse Iteration

 Displacement from previous Coordinates is:  0.886040
 ----------------------------------------------------------------
             Standard Nuclear Orientation (Angstroms)
    I     Atom           X                Y                Z
 ----------------------------------------------------------------
    1      H      -0.1061709466    -0.5128922306    -0.3004274802
    2      H       1.0104159073    -2.8604287124    -0.7677922148
    3      C       0.9555530903    -0.7292773905    -0.3177043550
    4      C       1.5681493513    -1.9549438557    -0.5617940132
    5      S       2.0832352788     0.5342909953    -0.0263621742
    6      C       2.9626622885    -1.8757057807    -0.5140152463
    7      H       3.6240697913    -2.7170466978    -0.6886955418
    8      C       3.4383484603    -0.5741621988    -0.2303222592
    9      H       4.5784843892     2.0179864377     0.2490135417
   10      C       4.7741259127    -0.1476095180    -0.0903509010
   11      C       5.2455201485     1.1664166999     0.1688969383
   12      S       6.1193004008    -1.2681600425    -0.2013086698
   13      C       6.6270060445     1.2415739346     0.2807554473
   14      H       7.1847765267     2.1530904307     0.4602309727
   15      C       7.2755618158     0.0010325065     0.1252251795
   16      C       8.7053077616    -0.2564819795     0.0751509548
   17      H       9.2614706643    -0.1362805461     2.1732647429
   18      C       9.5705866043    -0.3432773999     1.1549215993
   19      S       9.5135868509    -0.7087210146    -1.4125428125
   20      C      10.8832377097    -0.7291817021     0.7792842234
   21      C      11.0040464058    -0.9415320496    -0.5739393414
   22      H      11.7051600354    -0.8440833967     1.4757881176
   23      H      11.8924455085    -1.2100691192    -1.1316200179
 ----------------------------------------------------------------
 Nuclear Repulsion Energy =  1177.9001925357 hartrees
 There are       64 alpha and       63 beta electrons
 Applying Cartesian multipole field
    Component          Value
    ---------          -----
     (2,0,0)        1.00000E-12
     (0,2,0)        2.00000E-11
     (0,0,2)       -3.00000E-11
 Nucleus-field energy     =     0.0000000251 hartrees
 Requested basis set is 6-31++G(d,p)
 There are 110 shells and 345 basis functions
 A cutoff of  1.0D-12 yielded   4688 shell pairs
 There are     47834 function pairs

 Q-Chem warning in module /project/projectdirs/jcesr/qchem/qc44/cnl_qc441/compile/cori/qc_src/libqints/qchem/aobasis.C, line 68:

 Using reconstructed effective core potential

 Smallest overlap matrix eigenvalue = 9.71E-08
 Linear dependence detected in AO basis
 Number of orthogonalized atomic orbitals = 343
 Maximum deviation from orthogonality = 1.468E-10
 Guess MOs from SCF MO coefficient file
 Reading MOs from coefficient file
 Reading MOs from coefficient file
 An unrestricted hybrid HF-DFT SCF calculation will be
 performed using Pulay DIIS extrapolation
 Exchange:     0.2000 Hartree-Fock + 0.0800 Slater + 0.7200 B88
 Correlation:  0.1900 VWN1RPA + 0.8100 LYP
 Using SG-1 standard quadrature grid
 SCF converges when DIIS error is below 1.0E-08
 Geometry optimization detected.  Setting ReadMinima to 0
 Setting SaveMinima to 0
 ---------------------------------------
  Cycle       Energy         DIIS Error
 ---------------------------------------
    1   -1656.3306014786      2.06E-03
    2   -1656.3963859043      4.31E-04
    3   -1656.3879486438      8.30E-04
    4   -1656.3995081982      1.45E-04
    5   -1656.3998400447      4.69E-05
    6   -1656.3998771281      1.64E-05
    7   -1656.3998816710      7.09E-06
    8   -1656.3998826885      2.75E-06
    9   -1656.3998829558      1.40E-06
   10   -1656.3998830633      5.05E-07
   11   -1656.3998831367      3.83E-07
   12   -1656.3998831618      1.48E-07
   13   -1656.3998831647      7.95E-08
   14   -1656.3998831674      2.43E-08
   15   -1656.3998831683      1.25E-08
   16   -1656.3998831687      7.37E-09 Convergence criterion met
 ---------------------------------------
 <S^2> = 0.7650
 SCF time:  CPU 22.46 s  wall 20.98 s
 SCF   energy in the final basis set = -1656.3998831687
 Total energy in the final basis set = -1656.3998831687
 
 --------------------------------------------------------------
 
                    Orbital Energies (a.u.)
 --------------------------------------------------------------
 
 Alpha MOs
 -- Occupied --
-89.080 -89.079 -89.047 -10.415 -10.415 -10.408 -10.396 -10.375
-10.373 -10.369 -10.367 -10.360 -10.351 -10.336 -10.323  -8.139
 -8.138  -8.106  -6.103  -6.102  -6.099  -6.098  -6.096  -6.095
 -6.071  -6.067  -6.063  -1.069  -1.046  -1.016  -0.946  -0.918
 -0.904  -0.886  -0.870  -0.841  -0.773  -0.748  -0.716  -0.696
 -0.691  -0.685  -0.663  -0.642  -0.610  -0.578  -0.575  -0.575
 -0.563  -0.553  -0.547  -0.536  -0.528  -0.519  -0.518  -0.504
 -0.501  -0.478  -0.449  -0.426  -0.418  -0.385  -0.381  -0.362
 -- Virtual --
 -0.233  -0.168  -0.160  -0.142  -0.132  -0.117  -0.115  -0.106
 -0.099  -0.095  -0.092  -0.089  -0.084  -0.079  -0.074  -0.073
 -0.066  -0.062  -0.058  -0.054  -0.045  -0.040  -0.037  -0.030
 -0.026  -0.021  -0.017  -0.011  -0.007  -0.001   0.000   0.007
  0.008   0.010   0.013   0.019   0.023   0.024   0.027   0.029
  0.029   0.037   0.040   0.044   0.045   0.047   0.049   0.052
  0.053   0.056   0.058   0.061   0.067   0.072   0.075   0.081
  0.084   0.089   0.093   0.096   0.100   0.107   0.108   0.114
  0.118   0.121   0.122   0.131   0.134   0.139   0.142   0.150
  0.154   0.157   0.167   0.172   0.174   0.176   0.182   0.189
  0.194   0.199   0.207   0.214   0.221   0.231   0.233   0.239
  0.254   0.255   0.260   0.266   0.289   0.310   0.332   0.337
  0.358   0.372   0.378   0.390   0.410   0.419   0.437   0.450
  0.452   0.464   0.476   0.492   0.495   0.502   0.506   0.509
  0.520   0.531   0.547   0.552   0.558   0.568   0.570   0.578
  0.585   0.599   0.603   0.617   0.621   0.634   0.639   0.656
  0.667   0.668   0.677   0.683   0.685   0.698   0.713   0.738
  0.779   0.781   0.786   0.804   0.814   0.821   0.822   0.824
  0.837   0.838   0.844   0.851   0.855   0.866   0.874   0.886
  0.893   0.907   0.911   0.918   0.926   0.948   0.955   0.958
  0.982   0.994   1.007   1.018   1.041   1.059   1.078   1.090
  1.107   1.114   1.132   1.156   1.171   1.186   1.194   1.198
  1.200   1.227   1.238   1.246   1.286   1.306   1.324   1.337
  1.347   1.391   1.413   1.440   1.481   1.513   1.545   1.570
  1.635   1.657   1.693   1.697   1.705   1.751   1.763   1.767
  1.779   1.780   1.797   1.811   1.824   1.865   1.877   1.900
  1.908   1.921   1.961   1.978   2.006   2.012   2.030   2.051
  2.063   2.087   2.093   2.110   2.128   2.145   2.180   2.214
  2.249   2.269   2.283   2.286   2.304   2.323   2.329   2.342
  2.367   2.372   2.381   2.392   2.404   2.436   2.462   2.467
  2.486   2.506   2.533   2.555   2.568   2.599   2.659   2.704
  2.735   2.742   2.753   2.785   2.791   2.981   3.043   3.055
  3.129   3.157   3.169   3.256   3.292   3.526   3.582   3.615
  3.814   3.827   3.849   4.090   4.149   4.158   4.165   4.189
  4.206   4.251   4.334   4.393   4.503   4.551   4.573
 
 Beta MOs
 -- Occupied --
-89.080 -89.079 -89.047 -10.413 -10.411 -10.407 -10.393 -10.373
-10.371 -10.369 -10.367 -10.361 -10.350 -10.336 -10.323  -8.139
 -8.138  -8.106  -6.103  -6.102  -6.099  -6.099  -6.096  -6.095
 -6.070  -6.067  -6.063  -1.064  -1.041  -1.013  -0.940  -0.915
 -0.902  -0.881  -0.869  -0.835  -0.769  -0.745  -0.712  -0.694
 -0.689  -0.684  -0.661  -0.640  -0.608  -0.575  -0.573  -0.564
 -0.561  -0.551  -0.537  -0.534  -0.526  -0.518  -0.510  -0.501
 -0.501  -0.477  -0.427  -0.423  -0.414  -0.383  -0.367
 -- Virtual --
 -0.309  -0.215  -0.163  -0.149  -0.141  -0.130  -0.116  -0.107
 -0.101  -0.098  -0.094  -0.090  -0.084  -0.081  -0.078  -0.073
 -0.073  -0.066  -0.062  -0.057  -0.054  -0.044  -0.040  -0.037
 -0.029  -0.025  -0.020  -0.016  -0.010  -0.006   0.000   0.001
  0.007   0.009   0.011   0.013   0.020   0.023   0.025   0.028
  0.029   0.030   0.038   0.040   0.045   0.046   0.048   0.051
  0.052   0.054   0.057   0.060   0.062   0.067   0.073   0.076
  0.082   0.086   0.090   0.094   0.097   0.100   0.108   0.109
  0.115   0.119   0.122   0.124   0.132   0.134   0.140   0.144
  0.150   0.155   0.158   0.168   0.173   0.175   0.177   0.183
  0.190   0.196   0.200   0.208   0.216   0.223   0.232   0.235
  0.239   0.254   0.256   0.261   0.267   0.290   0.311   0.333
  0.339   0.359   0.373   0.380   0.391   0.412   0.420   0.438
  0.451   0.453   0.465   0.476   0.493   0.500   0.505   0.511
  0.516   0.524   0.532   0.548   0.554   0.560   0.569   0.573
  0.579   0.588   0.603   0.607   0.618   0.623   0.637   0.641
  0.658   0.670   0.670   0.681   0.685   0.686   0.701   0.715
  0.739   0.780   0.784   0.787   0.805   0.817   0.823   0.825
  0.827   0.838   0.840   0.845   0.852   0.856   0.867   0.875
  0.887   0.894   0.908   0.912   0.919   0.927   0.949   0.956
  0.959   0.983   0.995   1.008   1.021   1.045   1.060   1.082
  1.092   1.111   1.121   1.136   1.159   1.172   1.190   1.196
  1.202   1.207   1.229   1.239   1.248   1.288   1.311   1.328
  1.341   1.352   1.393   1.416   1.444   1.484   1.522   1.556
  1.574   1.642   1.661   1.696   1.699   1.712   1.753   1.764
  1.771   1.782   1.783   1.800   1.813   1.827   1.869   1.881
  1.903   1.913   1.924   1.964   1.984   2.011   2.018   2.036
  2.056   2.067   2.094   2.100   2.114   2.131   2.150   2.184
  2.217   2.250   2.272   2.286   2.292   2.309   2.325   2.332
  2.344   2.370   2.376   2.383   2.394   2.407   2.439   2.465
  2.469   2.489   2.508   2.536   2.559   2.569   2.601   2.662
  2.707   2.739   2.744   2.755   2.787   2.793   2.982   3.044
  3.056   3.130   3.158   3.170   3.257   3.293   3.527   3.583
  3.615   3.815   3.827   3.850   4.095   4.153   4.161   4.168
  4.193   4.208   4.257   4.338   4.397   4.506   4.554   4.575
 --------------------------------------------------------------
 
          Ground-State Mulliken Net Atomic Charges

     Atom                 Charge (a.u.)    Spin (a.u.)
  --------------------------------------------------------
      1 H                     0.250734      -0.013861
      2 H                     0.169069       0.001112
      3 C                     0.094790       0.280795
      4 C                    -0.332336      -0.040228
      5 S                    -0.071253      -0.038301
      6 C                     0.603753       0.148051
      7 H                     0.152493      -0.009594
      8 C                    -0.339800       0.078836
      9 H                     0.151473      -0.007918
     10 C                     0.115391       0.156792
     11 C                    -0.206721       0.099394
     12 S                    -0.093726      -0.050478
     13 C                     0.254135       0.005269
     14 H                     0.175840      -0.000651
     15 C                    -0.389980       0.272941
     16 C                    -0.158245       0.041972
     17 H                     0.168257      -0.003801
     18 C                     0.293029       0.013585
     19 S                     0.085765      -0.001921
     20 C                    -0.341452      -0.002073
     21 C                     0.037041       0.071904
     22 H                     0.151540       0.000702
     23 H                     0.230203      -0.002526
  --------------------------------------------------------
  Sum of atomic charges =     1.000000
  Sum of spin   charges =     1.000000

 -----------------------------------------------------------------
                    Cartesian Multipole Moments
 -----------------------------------------------------------------
    Charge (ESU x 10^10)
                 4.8032
    Dipole Moment (Debye)
         X      25.5560      Y      -2.1902      Z      -0.2213
       Tot      25.6507
    Quadrupole Moments (Debye-Ang)
        XX     112.0888     XY      -8.9825     YY     -92.1677
        XZ       3.6328     YZ       4.7504     ZZ    -103.0568
    Octopole Moments (Debye-Ang^2)
       XXX     214.1310    XXY     -68.0376    XYY    -591.9380
       YYY     131.5736    XXZ      49.1931    XYZ      23.3033
       YYZ      10.8802    XZZ    -595.0158    YZZ      44.2660
       ZZZ      60.1749
    Hexadecapole Moments (Debye-Ang^3)
      XXXX   -7506.7054   XXXY    -721.6203   XXYY   -4921.9794
      XYYY     906.6124   YYYY    -705.9696   XXXZ     486.7097
      XXYZ     150.6078   XYYZ      75.2361   YYYZ     -65.2731
      XXZZ   -4570.9778   XYZZ     251.5034   YYZZ    -204.1682
      XZZZ     336.3629   YZZZ     -96.9960   ZZZZ    -398.7589
 -----------------------------------------------------------------
 Calculating analytic gradient of the SCF energy
 Gradient of SCF Energy
            1           2           3           4           5           6
    1  -0.0004318  -0.0002935  -0.0016297  -0.0001029   0.0020824  -0.0003917
    2   0.0003470   0.0001501  -0.0010524   0.0001550  -0.0012094  -0.0020171
    3  -0.0000119   0.0000720  -0.0000515   0.0000355  -0.0002771   0.0003632
            7           8           9          10          11          12
    1   0.0003167   0.0024898  -0.0008895  -0.0011098   0.0013244  -0.0025338
    2   0.0001576   0.0038724  -0.0001477  -0.0041386   0.0024920   0.0012349
    3  -0.0003742  -0.0001848   0.0000716   0.0002701   0.0005175   0.0014773
           13          14          15          16          17          18
    1  -0.0012968   0.0003927   0.0001424   0.0034978  -0.0001351  -0.0026533
    2   0.0015293  -0.0002964  -0.0027931   0.0062166   0.0003247  -0.0073027
    3  -0.0077095   0.0002021   0.0094447  -0.0056647   0.0000282   0.0012600
           19          20          21          22          23
    1  -0.0000265   0.0004755   0.0005374   0.0002075   0.0000276
    2   0.0020569  -0.0001800   0.0013189   0.0000008  -0.0007187
    3   0.0011992  -0.0011054   0.0006953  -0.0000613  -0.0001967
 Max gradient component =       9.445E-03
 RMS gradient           =       2.376E-03
 Gradient time:  CPU 4.20 s  wall 4.21 s
 Geometry Optimization Parameters
   NAtoms,    NIC,     NZ,  NCons,   NDum,   NFix, NCnnct, MaxDiis
       23     166       0       1       0       0       0       0

 Cartesian Hessian Update
 Hessian Updated using BFGS Update


** CONSTRAINED OPTIMIZATION IN DELOCALIZED INTERNAL COORDINATES **
   Searching for a Minimum

   Optimization Cycle:   4

                       Coordinates (Angstroms)
     ATOM                X               Y               Z
      1  H        -0.1061709466   -0.5128922306   -0.3004274802
      2  H         1.0104159073   -2.8604287124   -0.7677922148
      3  C         0.9555530903   -0.7292773905   -0.3177043550
      4  C         1.5681493513   -1.9549438557   -0.5617940132
      5  S         2.0832352788    0.5342909953   -0.0263621742
      6  C         2.9626622885   -1.8757057807   -0.5140152463
      7  H         3.6240697913   -2.7170466978   -0.6886955418
      8  C         3.4383484603   -0.5741621988   -0.2303222592
      9  H         4.5784843892    2.0179864377    0.2490135417
     10  C         4.7741259127   -0.1476095180   -0.0903509010
     11  C         5.2455201485    1.1664166999    0.1688969383
     12  S         6.1193004008   -1.2681600425   -0.2013086698
     13  C         6.6270060445    1.2415739346    0.2807554473
     14  H         7.1847765267    2.1530904307    0.4602309727
     15  C         7.2755618158    0.0010325065    0.1252251795
     16  C         8.7053077616   -0.2564819795    0.0751509548
     17  H         9.2614706643   -0.1362805461    2.1732647429
     18  C         9.5705866043   -0.3432773999    1.1549215993
     19  S         9.5135868509   -0.7087210146   -1.4125428125
     20  C        10.8832377097   -0.7291817021    0.7792842234
     21  C        11.0040464058   -0.9415320496   -0.5739393414
     22  H        11.7051600354   -0.8440833967    1.4757881176
     23  H        11.8924455085   -1.2100691192   -1.1316200179
   Point Group: c1    Number of degrees of freedom:    63


   Energy is  -1656.399883169

              Constraints and their Current Values
                                        Value     Constraint
   Dihedral:       13  15  16  18       80.000       80.000
 Hessian Updated using BFGS Update

 62 Hessian modes will be used to form the next step
  Hessian Eigenvalues:
     0.032226    0.045000    0.045000    0.045000    0.045000    0.045001
     0.045001    0.045002    0.045002    0.045003    0.045003    0.045009
     0.045011    0.045012    0.045022    0.045042    0.045051    0.045095
     0.045183    0.158044    0.159945    0.159969    0.159980    0.159997
     0.160017    0.160406    0.162495    0.175002    0.221332    0.223238
     0.230140    0.238082    0.241689    0.249670    0.251746    0.266375
     0.287395    0.322514    0.326836    0.327860    0.338083    0.340255
     0.341153    0.365511    0.365519    0.365841    0.366890    0.367247
     0.367965    0.370106    0.370725    0.401158    0.420329    0.435365
     0.435761    0.443540    0.463631    0.463922    0.480974    0.495341
     0.501214    0.583148

 Minimum Search - Taking Simple RFO Step
 Searching for Lamda that Minimizes Along All modes
 Value Taken    Lamda =  -0.00066570
 Step Taken.  Stepsize is  0.128737

                             Maximum     Tolerance    Cnvgd?
         Gradient           0.002678      0.000300      NO
         Displacement       0.053644      0.001200      NO
         Energy change     -0.002038      0.000001      NO


 New Cartesian Coordinates Obtained by Inverse Iteration

 Displacement from previous Coordinates is:  0.450494
 ----------------------------------------------------------------
             Standard Nuclear Orientation (Angstroms)
    I     Atom           X                Y                Z
[...]
      2 H                     0.167172       0.001126
      3 C                     0.068193       0.258931
      4 C                    -0.270625      -0.035827
      5 S                    -0.048832      -0.030051
      6 C                     0.499932       0.137723
      7 H                     0.147445      -0.009233
      8 C                    -0.314741       0.063570
      9 H                     0.150021      -0.006474
     10 C                     0.041369       0.168471
     11 C                    -0.081834       0.082242
     12 S                    -0.155858      -0.048382
     13 C                     0.099529       0.019875
     14 H                     0.178951      -0.001939
     15 C                    -0.553515       0.242904
     16 C                     0.361001       0.041876
     17 H                     0.172601      -0.005645
     18 C                     0.023988       0.046770
     19 S                     0.103922      -0.008778
     20 C                    -0.202813      -0.012766
     21 C                    -0.020061       0.112871
     22 H                     0.155056       0.001218
     23 H                     0.233288      -0.005272
  --------------------------------------------------------
  Sum of atomic charges =     1.000000
  Sum of spin   charges =     1.000000

 -----------------------------------------------------------------
                    Cartesian Multipole Moments
 -----------------------------------------------------------------
    Charge (ESU x 10^10)
                 4.8032
    Dipole Moment (Debye)
         X      26.6979      Y      -2.2709      Z      -0.1970
       Tot      26.7950
    Quadrupole Moments (Debye-Ang)
        XX     126.2655     XY     -10.8548     YY     -91.7206
        XZ       4.4757     YZ       6.2248     ZZ    -102.9576
    Octopole Moments (Debye-Ang^2)
       XXX     372.7027    XXY     -89.3508    XYY    -581.8620
       YYY     135.9868    XXZ      56.2535    XYZ      35.1675
       YYZ       7.4803    XZZ    -593.3817    YZZ      45.9986
       ZZZ      54.0286
    Hexadecapole Moments (Debye-Ang^3)
      XXXX   -5716.6277   XXXY    -941.4361   XXYY   -4790.4199
      XYYY     936.0059   YYYY    -733.5613   XXXZ     542.2514
      XXYZ     256.9513   XYYZ      43.8183   YYYZ     -82.7512
      XXZZ   -4535.8405   XYZZ     269.8948   YYZZ    -202.8611
      XZZZ     278.2284   YZZZ    -116.1313   ZZZZ    -395.8338
 -----------------------------------------------------------------
 Calculating analytic gradient of the SCF energy
 Gradient of SCF Energy
            1           2           3           4           5           6
    1  -0.0000017  -0.0000035  -0.0000207  -0.0000051   0.0000488   0.0000038
    2   0.0000107   0.0000063  -0.0000308   0.0000194  -0.0000121  -0.0000127
    3   0.0000067  -0.0000024  -0.0000145   0.0000087   0.0000045  -0.0000625
            7           8           9          10          11          12
    1   0.0000012  -0.0000078  -0.0000195   0.0000221   0.0000196  -0.0000204
    2  -0.0000039   0.0000602  -0.0000075  -0.0000434   0.0000250   0.0000461
    3   0.0000314   0.0000870   0.0000092  -0.0000463  -0.0000340   0.0000243
           13          14          15          16          17          18
    1  -0.0008434   0.0000097   0.0005040   0.0016615  -0.0000157  -0.0013574
    2   0.0008908  -0.0000069  -0.0072634   0.0164683  -0.0000271  -0.0100779
    3  -0.0101084  -0.0000048   0.0166762  -0.0076108   0.0000058   0.0010365
           19          20          21          22          23
    1   0.0000435   0.0000039  -0.0000359   0.0000042   0.0000089
    2  -0.0000169  -0.0000060  -0.0000246   0.0000023   0.0000043
    3   0.0000052   0.0000135  -0.0000148  -0.0000087  -0.0000017
 Max gradient component =       1.668E-02
 RMS gradient           =       3.553E-03
 Gradient time:  CPU 4.20 s  wall 4.21 s
 Geometry Optimization Parameters
   NAtoms,    NIC,     NZ,  NCons,   NDum,   NFix, NCnnct, MaxDiis
       23     166       0       1       0       0       0       0

 Cartesian Hessian Update
 Hessian Updated using BFGS Update


** CONSTRAINED OPTIMIZATION IN DELOCALIZED INTERNAL COORDINATES **
   Searching for a Minimum

   Optimization Cycle:  10

                       Coordinates (Angstroms)
     ATOM                X               Y               Z
      1  H        -0.0938642318   -0.5450112750   -0.3738853933
      2  H         1.0547811891   -2.8635292345   -0.8915813046
      3  C         0.9698270013   -0.7484925023   -0.3728179925
      4  C         1.5967757621   -1.9599021524   -0.6409229336
      5  S         2.0747964251    0.5137506637   -0.0090125236
      6  C         2.9898362255   -1.8712406616   -0.5530516423
      7  H         3.6595885264   -2.7053455908   -0.7299007889
      8  C         3.4450665138   -0.5816709549   -0.2156174839
      9  H         4.5584894986    2.0143920875    0.3286912778
     10  C         4.7770347599   -0.1411274713   -0.0463989781
     11  C         5.2285652863    1.1657044960    0.2511747277
     12  S         6.1416007456   -1.2475882339   -0.1603609542
     13  C         6.6060191352    1.2558869012    0.3896655435
     14  H         7.1435216037    2.1773010327    0.5809226653
     15  C         7.2752450064    0.0256954860    0.2324055999
     16  C         8.6999914159   -0.1820928189    0.1004926917
     17  H         9.4088028681    0.1244686853    2.1355198101
     18  C         9.6395828581   -0.2030314651    1.1279922114
     19  S         9.3793331928   -0.8934299565   -1.3607739368
     20  C        10.8981501498   -0.7027359101    0.7249843780
     21  C        10.9104888336   -1.0957404072   -0.5963805201
     22  H        11.7605901065   -0.7736306863    1.3765868553
     23  H        11.7526571279   -1.4580926617   -1.1720746188
   Point Group: c1    Number of degrees of freedom:    63


   Energy is  -1656.400953365

              Constraints and their Current Values
                                        Value     Constraint
   Dihedral:       13  15  16  18       80.000       80.000
 Hessian Updated using BFGS Update

 61 Hessian modes will be used to form the next step
  Hessian Eigenvalues:
     0.010567    0.026103    0.044129    0.045000    0.045001    0.045002
     0.045002    0.045002    0.045005    0.045008    0.045011    0.045014
     0.045019    0.045030    0.045039    0.045077    0.045148    0.045261
     0.150501    0.159607    0.159924    0.159966    0.160011    0.160210
     0.160518    0.161963    0.168321    0.218903    0.221816    0.224818
     0.235383    0.240619    0.245170    0.249569    0.270960    0.285737
     0.301449    0.323225    0.326276    0.335707    0.339309    0.341251
     0.365509    0.365526    0.365858    0.366913    0.367300    0.368063
     0.370132    0.371136    0.400393    0.424720    0.434505    0.437054
     0.454358    0.462813    0.463470    0.478407    0.490493    0.498872
     0.560313

 Minimum Search - Taking Simple RFO Step
 Searching for Lamda that Minimizes Along All modes
 Value Taken    Lamda =   0.00000000
 Step Taken.  Stepsize is  0.002119

                             Maximum     Tolerance    Cnvgd?
         Gradient           0.000042      0.000300     YES
         Displacement       0.000977      0.001200     YES
         Energy change     -0.000001      0.000001     YES

 Final energy is   -1656.40095336516     


 ******************************
 **  OPTIMIZATION CONVERGED  **
 ******************************

                       Coordinates (Angstroms)
     ATOM                X               Y               Z
      1  H        -0.0938642318   -0.5450112750   -0.3738853933
      2  H         1.0547811891   -2.8635292345   -0.8915813046
      3  C         0.9698270013   -0.7484925023   -0.3728179925
      4  C         1.5967757621   -1.9599021524   -0.6409229336
      5  S         2.0747964251    0.5137506637   -0.0090125236
      6  C         2.9898362255   -1.8712406616   -0.5530516423
      7  H         3.6595885264   -2.7053455908   -0.7299007889
      8  C         3.4450665138   -0.5816709549   -0.2156174839
      9  H         4.5584894986    2.0143920875    0.3286912778
     10  C         4.7770347599   -0.1411274713   -0.0463989781
     11  C         5.2285652863    1.1657044960    0.2511747277
     12  S         6.1416007456   -1.2475882339   -0.1603609542
     13  C         6.6060191352    1.2558869012    0.3896655435
     14  H         7.1435216037    2.1773010327    0.5809226653
     15  C         7.2752450064    0.0256954860    0.2324055999
     16  C         8.6999914159   -0.1820928189    0.1004926917
     17  H         9.4088028681    0.1244686853    2.1355198101
     18  C         9.6395828581   -0.2030314651    1.1279922114
     19  S         9.3793331928   -0.8934299565   -1.3607739368
     20  C        10.8981501498   -0.7027359101    0.7249843780
     21  C        10.9104888336   -1.0957404072   -0.5963805201
     22  H        11.7605901065   -0.7736306863    1.3765868553
     23  H        11.7526571279   -1.4580926617   -1.1720746188

Z-matrix Print:
$molecule
1 2
S 
C  1 1.749476
C  2 1.409243 1 110.650704
H  3 1.083740 2 121.759739 1 -176.525319 0
C  3 1.387333 2 113.804497 1 2.316690 0
H  5 1.084104 3 123.756501 2 -179.224958 0
C  5 1.414298 3 113.456719 2 -1.172290 0
C  7 1.413100 5 127.893411 3 178.269111 0
C  8 1.408576 7 128.223707 5 177.811567 0
H  9 1.084239 8 122.938688 7 -0.171381 0
C  9 1.398642 8 113.264779 7 -179.903497 0
H  11 1.083111 9 124.460249 8 179.774608 0
C  11 1.390129 9 112.447852 8 -0.052189 0
H  13 1.082980 11 127.337743 9 179.958353 0
C  2 1.445849 1 120.894187 3 -167.739681 0
C  15 1.392489 2 126.851848 1 -114.431896 0
H  16 1.084264 15 122.513918 2 -11.889252 0
C  16 1.412838 15 113.323175 2 167.437326 0
H  18 1.083243 16 124.110685 15 178.486302 0
C  18 1.378626 16 112.469888 15 -1.618812 0
H  20 1.082576 18 127.739565 16 176.163787 0
S  13 1.716558 11 113.039018 9 -0.037217 0
S  20 1.723271 18 112.564812 16 -1.193991 0
$end

 
 --------------------------------------------------------------
 
                    Orbital Energies (a.u.)
 --------------------------------------------------------------
 
 Alpha MOs
 -- Occupied --
-89.078 -89.074 -89.053 -10.413 -10.412 -10.403 -10.390 -10.376
-10.371 -10.368 -10.366 -10.360 -10.355 -10.344 -10.330  -8.137
 -8.134  -8.112  -6.101  -6.098  -6.097  -6.094  -6.093  -6.091
 -6.076  -6.072  -6.069  -1.066  -1.043  -1.020  -0.945  -0.915
 -0.900  -0.886  -0.876  -0.842  -0.771  -0.747  -0.713  -0.699
 -0.692  -0.683  -0.665  -0.643  -0.609  -0.575  -0.572  -0.572
 -0.560  -0.556  -0.547  -0.537  -0.531  -0.519  -0.516  -0.507
 -0.498  -0.483  -0.447  -0.424  -0.414  -0.392  -0.386  -0.358
 -- Virtual --
 -0.230  -0.174  -0.159  -0.141  -0.130  -0.115  -0.112  -0.108
 -0.098  -0.094  -0.092  -0.086  -0.083  -0.079  -0.077  -0.074
 -0.066  -0.063  -0.058  -0.054  -0.046  -0.042  -0.038  -0.029
 -0.026  -0.021  -0.017  -0.011  -0.005  -0.000   0.002   0.005
  0.007   0.011   0.013   0.021   0.023   0.025   0.027   0.031
  0.032   0.037   0.040   0.043   0.044   0.046   0.049   0.053
  0.054   0.057   0.059   0.061   0.069   0.071   0.075   0.081
  0.086   0.088   0.095   0.096   0.100   0.106   0.111   0.117
  0.119   0.122   0.124   0.130   0.135   0.141   0.144   0.151
  0.154   0.158   0.166   0.171   0.174   0.179   0.182   0.185
  0.200   0.202   0.208   0.215   0.224   0.229   0.234   0.245
  0.251   0.256   0.261   0.269   0.288   0.312   0.334   0.344
  0.354   0.375   0.376   0.387   0.401   0.420   0.436   0.443
  0.448   0.458   0.471   0.484   0.498   0.501   0.510   0.513
  0.515   0.529   0.541   0.550   0.553   0.572   0.577   0.584
  0.585   0.598   0.601   0.614   0.630   0.634   0.642   0.655
  0.659   0.663   0.677   0.684   0.688   0.699   0.708   0.734
  0.771   0.784   0.788   0.804   0.812   0.816   0.820   0.825
  0.829   0.835   0.843   0.847   0.853   0.868   0.871   0.881
  0.890   0.905   0.912   0.925   0.931   0.944   0.959   0.962
  0.977   0.984   1.014   1.020   1.047   1.059   1.076   1.091
  1.108   1.115   1.143   1.158   1.165   1.189   1.191   1.197
  1.203   1.211   1.222   1.239   1.270   1.311   1.326   1.336
  1.340   1.394   1.416   1.463   1.484   1.516   1.549   1.555
  1.597   1.663   1.695   1.703   1.715   1.756   1.763   1.772
  1.776   1.785   1.802   1.812   1.822   1.864   1.874   1.898
  1.906   1.920   1.959   1.981   2.000   2.011   2.035   2.047
  2.059   2.077   2.094   2.109   2.133   2.147   2.179   2.219
  2.245   2.268   2.281   2.289   2.307   2.322   2.327   2.343
  2.363   2.375   2.382   2.390   2.409   2.439   2.457   2.464
  2.488   2.511   2.539   2.560   2.569   2.598   2.646   2.706
  2.740   2.743   2.757   2.788   2.791   2.986   3.039   3.059
  3.134   3.151   3.173   3.261   3.284   3.524   3.588   3.605
  3.806   3.830   3.853   4.095   4.151   4.162   4.169   4.186
  4.201   4.252   4.336   4.394   4.505   4.552   4.567
 
 Beta MOs
 -- Occupied --
-89.078 -89.075 -89.053 -10.411 -10.409 -10.402 -10.387 -10.376
-10.369 -10.366 -10.365 -10.358 -10.355 -10.343 -10.330  -8.137
 -8.134  -8.112  -6.101  -6.098  -6.097  -6.094  -6.094  -6.091
 -6.076  -6.072  -6.069  -1.061  -1.039  -1.017  -0.939  -0.913
 -0.898  -0.881  -0.874  -0.835  -0.768  -0.744  -0.710  -0.697
 -0.689  -0.681  -0.663  -0.641  -0.607  -0.572  -0.570  -0.562
 -0.558  -0.553  -0.540  -0.534  -0.530  -0.516  -0.509  -0.504
 -0.497  -0.482  -0.427  -0.421  -0.410  -0.389  -0.372
 -- Virtual --
 -0.305  -0.213  -0.168  -0.148  -0.139  -0.127  -0.114  -0.109
 -0.100  -0.097  -0.093  -0.090  -0.083  -0.078  -0.078  -0.074
 -0.073  -0.065  -0.062  -0.057  -0.053  -0.044  -0.041  -0.037
 -0.028  -0.025  -0.021  -0.016  -0.011  -0.005   0.000   0.003
  0.006   0.008   0.011   0.014   0.021   0.024   0.026   0.028
  0.032   0.033   0.038   0.041   0.044   0.045   0.047   0.050
  0.054   0.055   0.058   0.061   0.062   0.070   0.071   0.076
  0.082   0.087   0.089   0.095   0.097   0.101   0.107   0.112
  0.118   0.121   0.123   0.124   0.131   0.136   0.142   0.145
  0.152   0.154   0.158   0.167   0.172   0.175   0.180   0.183
  0.186   0.201   0.203   0.210   0.217   0.226   0.230   0.235
  0.246   0.252   0.257   0.263   0.270   0.289   0.314   0.335
  0.345   0.355   0.375   0.377   0.387   0.403   0.421   0.437
  0.445   0.450   0.460   0.472   0.486   0.501   0.505   0.515
  0.517   0.520   0.530   0.543   0.552   0.557   0.576   0.578
  0.585   0.587   0.599   0.608   0.614   0.634   0.635   0.644
  0.658   0.662   0.666   0.680   0.687   0.689   0.702   0.711
  0.735   0.772   0.787   0.789   0.806   0.813   0.819   0.822
  0.827   0.832   0.837   0.844   0.848   0.853   0.870   0.872
  0.882   0.891   0.906   0.914   0.926   0.931   0.945   0.959
  0.963   0.978   0.985   1.015   1.023   1.050   1.061   1.079
  1.094   1.111   1.122   1.148   1.161   1.168   1.193   1.194
  1.199   1.208   1.216   1.225   1.241   1.273   1.317   1.330
  1.340   1.345   1.396   1.419   1.468   1.487   1.525   1.556
  1.561   1.604   1.666   1.696   1.705   1.722   1.758   1.766
  1.776   1.778   1.787   1.805   1.815   1.826   1.868   1.878
  1.901   1.910   1.925   1.962   1.986   2.007   2.015   2.042
  2.054   2.063   2.082   2.099   2.115   2.136   2.151   2.183
  2.222   2.247   2.270   2.285   2.294   2.312   2.324   2.331
  2.344   2.365   2.380   2.384   2.392   2.412   2.441   2.459
  2.467   2.491   2.514   2.542   2.564   2.570   2.600   2.649
  2.709   2.742   2.747   2.759   2.790   2.794   2.987   3.040
  3.060   3.134   3.151   3.173   3.263   3.285   3.525   3.589
  3.606   3.806   3.830   3.853   4.100   4.154   4.165   4.172
  4.190   4.203   4.257   4.340   4.398   4.508   4.555   4.570
 --------------------------------------------------------------
 
          Ground-State Mulliken Net Atomic Charges

     Atom                 Charge (a.u.)    Spin (a.u.)
  --------------------------------------------------------
      1 H                     0.245810      -0.013211
      2 H                     0.167172       0.001126
      3 C                     0.068193       0.258931
      4 C                    -0.270625      -0.035827
      5 S                    -0.048832      -0.030051
      6 C                     0.499932       0.137723
      7 H                     0.147445      -0.009233
      8 C                    -0.314741       0.063570
      9 H                     0.150021      -0.006474
     10 C                     0.041369       0.168471
     11 C                    -0.081834       0.082242
     12 S                    -0.155858      -0.048382
     13 C                     0.099529       0.019875
     14 H                     0.178951      -0.001939
     15 C                    -0.553515       0.242904
     16 C                     0.361001       0.041876
     17 H                     0.172601      -0.005645
     18 C                     0.023988       0.046770
     19 S                     0.103922      -0.008778
     20 C                    -0.202813      -0.012766
     21 C                    -0.020061       0.112871
     22 H                     0.155056       0.001218
     23 H                     0.233288      -0.005272
  --------------------------------------------------------
  Sum of atomic charges =     1.000000
  Sum of spin   charges =     1.000000

 -----------------------------------------------------------------
                    Cartesian Multipole Moments
 -----------------------------------------------------------------
    Charge (ESU x 10^10)
                 4.8032
    Dipole Moment (Debye)
         X      26.6979      Y      -2.2709      Z      -0.1970
       Tot      26.7950
    Quadrupole Moments (Debye-Ang)
        XX     126.2655     XY     -10.8548     YY     -91.7206
        XZ       4.4757     YZ       6.2248     ZZ    -102.9576
    Octopole Moments (Debye-Ang^2)
       XXX     372.7027    XXY     -89.3508    XYY    -581.8620
       YYY     135.9868    XXZ      56.2535    XYZ      35.1675
       YYZ       7.4803    XZZ    -593.3817    YZZ      45.9986
       ZZZ      54.0286
    Hexadecapole Moments (Debye-Ang^3)
      XXXX   -5716.6277   XXXY    -941.4361   XXYY   -4790.4199
      XYYY     936.0059   YYYY    -733.5613   XXXZ     542.2514
      XXYZ     256.9513   XYYZ      43.8183   YYYZ     -82.7512
      XXZZ   -4535.8405   XYZZ     269.8948   YYZZ    -202.8611
      XZZZ     278.2284   YZZZ    -116.1313   ZZZZ    -395.8338
 -----------------------------------------------------------------
Archival summary:
1\1\nid00525\OPT\ProcedureUnspecified\BasisUnspecified\3128(1+,2)\bwood\TueMay3011:02:582017TueMay3011:02:582017\0\\#,OPT,ProcedureUnspecified,BasisUnspecified,\\1,2\S\C,1,1.74948\C,2,1.40924,1,110.651\H,3,1.08374,2,121.76,1,-176.525,0\C,3,1.38733,2,113.804,1,2.31669,0\H,5,1.0841,3,123.757,2,-179.225,0\C,5,1.4143,3,113.457,2,-1.17229,0\C,7,1.4131,5,127.893,3,178.269,0\C,8,1.40858,7,128.224,5,177.812,0\H,9,1.08424,8,122.939,7,-0.171381,0\C,9,1.39864,8,113.265,7,-179.903,0\H,11,1.08311,9,124.46,8,179.775,0\C,11,1.39013,9,112.448,8,-0.0521887,0\H,13,1.08298,11,127.338,9,179.958,0\C,2,1.44585,1,120.894,3,-167.74,0\C,15,1.39249,2,126.852,1,-114.432,0\H,16,1.08426,15,122.514,2,-11.8893,0\C,16,1.41284,15,113.323,2,167.437,0\H,18,1.08324,16,124.111,15,178.486,0\C,18,1.37863,16,112.47,15,-1.61881,0\H,20,1.08258,18,127.74,16,176.164,0\S,13,1.71656,11,113.039,9,-0.0372175,0\S,20,1.72327,18,112.565,16,-1.19399,0\\\@

 Total job time:  256.55s(wall), 271.85s(cpu) 
 Tue May 30 11:02:58 2017

        *************************************************************
        *                                                           *
        *  Thank you very much for using Q-Chem.  Have a nice day.  *
        *                                                           *
        *************************************************************


0 sent ACK to 0 
now end server 0 ... 
