srun -N 1 --ntasks-per-node 22 --cpus-per-task 2 --cpu_bind=cores --nodelist nid00539 /global/project/projectdirs/jcesr/qchem/qc44/cnl_qc441/dist/exe/qcprog.cori.haswell.exe .pt_nn_cation_-10.0.in.33547.qcin.1 /dev/shm/eg_qchem/qchem33547/
Process 2 of 22 is on nid00539 - thread support 0
Process 3 of 22 is on nid00539 - thread support 0
Process 4 of 22 is on nid00539 - thread support 0
Process 6 of 22 is on nid00539 - thread support 0
Process 0 of 22 is on nid00539 - thread support 0
Process 1 of 22 is on nid00539 - thread support 0
Process 5 of 22 is on nid00539 - thread support 0
Process 21 of 22 is on nid00539 - thread support 0
initial socket setup ...start
initial socket setup ...done 
now start server 0 ... 
nid00539 10.128.2
Q-Chem Developer Version! Running on 10.128.2.*
                  Welcome to Q-Chem
     A Quantum Leap Into The Future Of Chemistry


 Q-Chem 4.4, Q-Chem, Inc., Pleasanton, CA (2016)

 Y. Shao,  Z. Gan,  E. Epifanovsky,  A. T. B. Gilbert,  M. Wormit,  
 J. Kussmann,  A. W. Lange,  A. Behn,  J. Deng,  X. Feng,  D. Ghosh,  
 M. Goldey,  P. R. Horn,  L. D. Jacobson,  I. Kaliman,  F. Rob,  
 R. Z. Khaliullin,  T. Kus,  A. Landau,  J. Liu,  E. I. Proynov,  Y. M. Rhee,  
 R. M. Richard,  M. A. Rohrdanz,  R. P. Steele,  E. J. Sundstrom,  
 H. L. Woodcock III,  P. M. Zimmerman,  D. Zuev,  B. Albrecht,  E. Alguire,  
 B. Austin,  S. A. Baeppler,  G. J. O. Beran,  Y. A. Bernard,  
 E. J. Berquist,  K. Brandhorst,  K. B. Bravaya,  S. T. Brown,  D. Casanova,  
 C.-M. Chang,  Y. Chen,  S. H. Chien,  K. D. Closser,  M. P. Coons,  
 D. L. Crittenden,  S. Dasgupta,  M. Diedenhofen,  R. A. DiStasio Jr.,  
 H. Do,  A. D. Dutoi,  R. G. Edgar,  P.-T. Fang,  S. Fatehi,  Q. Feng,  
 L. Fusti-Molnar,  A. Ghysels,  A. Golubeva-Zadorozhnaya,  J. Gomes,  
 A. Gunina,  M. W. D. Hanson-Heine,  P. H. P. Harbach,  A. W. Hauser,  
 J. E. Herr,  E. G. Hohenstein,  Z. C. Holden,  K. Hui,  T.-C. Jagau,  H. Ji,  
 B. Kaduk,  K. Khistyaev,  Jaehoon Kim,  Jihan Kim,  R. A. King,  
 P. Klunzinger,  K. Koh,  D. Kosenkov,  T. Kowalczyk,  C. M. Krauter,  
 A. Kunitsa,  K. U. Lao,  A. Laurent,  K. V. Lawler,  J. Lee,  D. Lefrancois,  
 S. Lehtola,  S. V. Levchenko,  C. Y. Lin,  Y.-S. Lin,  F. Liu,  E. Livshits,  
 R. C. Lochan,  A. Luenser,  P. Manohar,  S. F. Manzer,  S.-P. Mao,  Y. Mao,  
 N. Mardirossian,  A. V. Marenich,  L. A. Martinez-Martinez,  S. A. Maurer,  
 N. J. Mayhall,  J.-M. Mewes,  A. F. Morrison,  K. Nanda,  T. S. Nguyen-Beck,  
 C. M. Oana,  R. Olivares-Amaya,  D. P. O'Neill,  J. A. Parkhill,  
 T. M. Perrine,  R. Peverati,  P. A. Pieniazek,  F. Plasser,  A. Prociuk,  
 D. R. Rehn,  E. Rosta,  N. J. Russ,  N. Sergueev,  S. M. Sharada,  
 S. Sharma,  D. W. Small,  A. Sodt,  T. Stauch,  T. Stein,  D. Stuck,  
 Y.-C. Su,  A. J. W. Thom,  T. Tsuchimochi,  L. Vogt,  O. Vydrov,  T. Wang,  
 M. A. Watson,  J. Wenzel,  A. White,  C. F. Williams,  V. Vanovschi,  
 K. Yao,  S. Yeganeh,  S. R. Yost,  Z.-Q. You,  I. Y. Zhang,  X. Zhang,  
 Y. Zhao,  B. R. Brooks,  G. K. L. Chan,  D. M. Chipman,  C. J. Cramer,  
 W. A. Goddard III,  M. S. Gordon,  W. J. Hehre,  A. Klamt,  
 H. F. Schaefer III,  M. W. Schmidt,  C. D. Sherrill,  D. G. Truhlar,  
 A. Warshel,  X. Xu,  A. Aspuru-Guzik,  R. Baer,  A. T. Bell,  N. A. Besley,  
 J.-D. Chai,  A. Dreuw,  B. D. Dunietz,  T. R. Furlani,  S. R. Gwaltney,  
 C.-P. Hsu,  Y. Jung,  J. Kong,  D. S. Lambrecht,  W. Liang,  C. Ochsenfeld,  
 V. A. Rassolov,  L. V. Slipchenko,  J. E. Subotnik,  T. Van Voorhis,  
 J. M. Herbert,  A. I. Krylov,  P. M. W. Gill,  M. Head-Gordon

 Contributors to earlier versions of Q-Chem not listed above: 
 R. D. Adamson,  J. Baker,  E. F. C. Byrd,  A. K. Chakraborty,  C.-L. Cheng,  
 H. Dachsel,  R. J. Doerksen,  G. Hawkins,  A. Heyden,  S. Hirata,  
 G. Kedziora,  F. J. Keil,  C. Kelley,  P. P. Korambath,  W. Kurlancheek,  
 A. M. Lee,  M. S. Lee,  D. Liotard,  I. Lotan,  P. E. Maslen,  N. Nair,  
 D. Neuhauser,  R. Olson,  B. Peters,  J. Ritchie,  N. E. Schultz,  
 N. Shenvi,  A. C. Simmonett,  K. S. Thanthiriwatte,  Q. Wu,  W. Zhang

 Please cite Q-Chem as follows:
 Y. Shao et al., Mol. Phys. 113, 184-215 (2015)
 DOI: 10.1080/00268976.2014.952696

 Q-Chem 4.4.2 for Intel X86 EM64T Linux

 Parts of Q-Chem use Armadillo 5.200.1 (Boston Tea Smuggler).
 http://arma.sourceforge.net/

 Q-Chem begins on Tue May 30 10:58:49 2017  

Host: nid00444
0

     Scratch files written to /dev/shm/eg_qchem/qchem33547.0//
 Parallel job on  22  processors

Checking the input file for inconsistencies... 	...done.

--------------------------------------------------------------
User input:
--------------------------------------------------------------
$molecule
 1  2
 H           0.00000000        0.00000000        0.00000000
 H           0.66366000       -2.46828000       -0.59127000
 C           0.99103000       -0.39106000       -0.11652000
 C           1.36812000       -1.67442000       -0.42485000
 S           2.34669000        0.62586000        0.08638000
 C           2.76167000       -1.82175000       -0.50822000
 H           3.26291000       -2.73877000       -0.76199000
 C           3.44671000       -0.65043000       -0.26057000
 H           4.55645000        1.43902671        0.15704385
 C           4.88382000       -0.65043000       -0.26057000
 C           5.26091000        0.64090194        0.01245390
 S           6.23948000       -1.67253113       -0.43550939
 C           6.65446000        0.79046248        0.09175311
 H           7.15570000        1.71409653        0.32028213
 C           7.33950000       -0.38720773       -0.12368600
 C           8.77661000       -0.38720773       -0.12368600
 H           8.96041000        1.76001689       -0.16852859
 C           9.46165000        0.80998196       -0.11602018
 S           9.87663000       -1.70811774       -0.05670371
 C          10.85520000        0.64826896       -0.06596411
 C          11.23229000       -0.67131803       -0.03822080
 H          11.55966000        1.45935805       -0.05937653
 H          12.22332000       -1.07822711       -0.00771842
$end


$rem
         jobtype = opt
        exchange = b3lyp
           basis = 6-31++g**
  max_scf_cycles = 150
      mem_static = 281
       mem_total = 2818
      sym_ignore = true
        symmetry = false
          thresh = 12
$end


$opt
CONSTRAINT
tors 13 15 16 18 -10.0
ENDCONSTRAINT
$end

--------------------------------------------------------------
 ----------------------------------------------------------------
             Standard Nuclear Orientation (Angstroms)
    I     Atom           X                Y                Z
 ----------------------------------------------------------------
    1      H       0.0000000000     0.0000000000     0.0000000000
    2      H       0.6636600000    -2.4682800000    -0.5912700000
    3      C       0.9910300000    -0.3910600000    -0.1165200000
    4      C       1.3681200000    -1.6744200000    -0.4248500000
    5      S       2.3466900000     0.6258600000     0.0863800000
    6      C       2.7616700000    -1.8217500000    -0.5082200000
    7      H       3.2629100000    -2.7387700000    -0.7619900000
    8      C       3.4467100000    -0.6504300000    -0.2605700000
    9      H       4.5564500000     1.4390267100     0.1570438500
   10      C       4.8838200000    -0.6504300000    -0.2605700000
   11      C       5.2609100000     0.6409019400     0.0124539000
   12      S       6.2394800000    -1.6725311300    -0.4355093900
   13      C       6.6544600000     0.7904624800     0.0917531100
   14      H       7.1557000000     1.7140965300     0.3202821300
   15      C       7.3395000000    -0.3872077300    -0.1236860000
   16      C       8.7766100000    -0.3872077300    -0.1236860000
   17      H       8.9604100000     1.7600168900    -0.1685285900
   18      C       9.4616500000     0.8099819600    -0.1160201800
   19      S       9.8766300000    -1.7081177400    -0.0567037100
   20      C      10.8552000000     0.6482689600    -0.0659641100
   21      C      11.2322900000    -0.6713180300    -0.0382208000
   22      H      11.5596600000     1.4593580500    -0.0593765300
   23      H      12.2233200000    -1.0782271100    -0.0077184200
 ----------------------------------------------------------------
 Nuclear Repulsion Energy =  1186.8039870221 hartrees
 There are       64 alpha and       63 beta electrons
 Requested basis set is 6-31++G(d,p)
 There are 110 shells and 345 basis functions

 Total QAlloc Memory Limit   2818 MB
 Mega-Array Size       275 MB
 MEM_STATIC part       281 MB
 A cutoff of  1.0D-12 yielded   4722 shell pairs
 There are     48115 function pairs

 Q-Chem warning in module /project/projectdirs/jcesr/qchem/qc44/cnl_qc441/compile/cori/qc_src/libqints/qchem/aobasis.C, line 68:

 Using reconstructed effective core potential

 
 -------------------------------------------------------
 OpenMP Integral Computing Module                       
 Release: version 1.0, May 2013, Q-Chem Inc. Pittsburgh 
 -------------------------------------------------------
 Integral Job Info:
 Integral job number is                      11
 Integral operator is                         1
 short-range coefficients                     0
 long-range coefficients              100000000
 Omega coefficients                           0
 if combine SR and LR in K                    0
 Integral screening is                        0
 Integral computing path is                   2
 max size of driver memory is            800000
 size of driver memory is                593474
 size of scratch memory is             15166112
 max col of scratch BK array               1296
 max len of scratch array in speh3          155
 max len of scratch index in speh4           18
 max int batch size is                      520
 min int batch size is                       52
 fixed nKL is                                52
 max L of basis functions is                  2
 order of int derivative is                   0
 number of shells is                        110
 number of basis is                         345
 number of cartesian basis is               345
 number of contracted shell pairs          4722
 number of primitive shell pairs          14801
 maxK2 (contraction) of shell pair           36
 max number of K2 of shell pair               1
 max number of CS2 of shell pair            509
 max number of PS2 of shell pair           3054
 mem total for path MDJ                  101288
 -------------------------------------------------------
 Smallest overlap matrix eigenvalue = 1.06E-07
 Linear dependence detected in AO basis
 Number of orthogonalized atomic orbitals = 342
 Maximum deviation from orthogonality = 1.188E-10

 Scale SEOQF with 1.000000e-02/1.000000e-01/1.000000e-01

 Standard Electronic Orientation quadrupole field applied
 Nucleus-field energy     =     0.0000000344 hartrees
 Guess from superposition of atomic densities
 Warning:  Energy on first SCF cycle will be non-variational
 An unrestricted hybrid HF-DFT SCF calculation will be
 performed using Pulay DIIS extrapolation
 Exchange:     0.2000 Hartree-Fock + 0.0800 Slater + 0.7200 B88
 Correlation:  0.1900 VWN1RPA + 0.8100 LYP
 Using SG-1 standard quadrature grid
 SCF converges when DIIS error is below 1.0E-08
 Inaccurate integrated density:
   Number of electrons =   127
   Numerical integral  =   127.999905393877
   Relative error      =     0.7873270818 %
 ---------------------------------------
  Cycle       Energy         DIIS Error
 ---------------------------------------
    1   -1660.7489255291      3.85E-02
    2   -1656.1693472417      3.50E-03
    3   -1655.8544436631      5.43E-03
    4   -1656.3587892958      7.92E-04
    5   -1656.3656683222      5.19E-04
    6   -1656.3697079367      2.08E-04
    7   -1656.3704585290      6.67E-05
    8   -1656.3705616012      1.40E-05
    9   -1656.3705778834      6.28E-06
   10   -1656.3705891459      3.82E-06
   11   -1656.3705967884      1.90E-06
   12   -1656.3706004119      1.28E-06
   13   -1656.3706014574      5.11E-07
   14   -1656.3706015187      3.06E-07
   15   -1656.3706015316      8.98E-08
   16   -1656.3706015335      4.45E-08
   17   -1656.3706015324      1.49E-08
   18   -1656.3706015330      8.42E-09 Convergence criterion met
 ---------------------------------------
 <S^2> = 0.7669
 SCF time:  CPU 24.61 s  wall 23.28 s
 SCF   energy in the final basis set = -1656.3706015330
 Total energy in the final basis set = -1656.3706015330
 
 --------------------------------------------------------------
 
                    Orbital Energies (a.u.)
 --------------------------------------------------------------
 
 Alpha MOs
 -- Occupied --
-89.086 -89.066 -89.063 -10.408 -10.403 -10.389 -10.388 -10.375
-10.373 -10.358 -10.357 -10.351 -10.349 -10.340 -10.339  -8.145
 -8.127  -8.123  -6.109  -6.105  -6.101  -6.091  -6.087  -6.087
 -6.083  -6.083  -6.080  -1.080  -1.052  -1.039  -0.957  -0.918
 -0.901  -0.893  -0.888  -0.848  -0.775  -0.750  -0.716  -0.703
 -0.693  -0.679  -0.676  -0.657  -0.607  -0.583  -0.582  -0.571
 -0.565  -0.552  -0.550  -0.544  -0.537  -0.526  -0.518  -0.508
 -0.492  -0.489  -0.460  -0.423  -0.407  -0.403  -0.399  -0.353
 -- Virtual --
 -0.222  -0.171  -0.149  -0.130  -0.125  -0.114  -0.111  -0.105
 -0.098  -0.093  -0.090  -0.089  -0.081  -0.078  -0.069  -0.068
 -0.068  -0.065  -0.061  -0.052  -0.046  -0.042  -0.039  -0.034
 -0.029  -0.024  -0.016  -0.013  -0.007  -0.003   0.001   0.004
  0.012   0.014   0.017   0.019   0.022   0.027   0.030   0.031
  0.035   0.037   0.043   0.045   0.047   0.048   0.050   0.058
  0.059   0.061   0.066   0.069   0.074   0.079   0.082   0.083
  0.087   0.096   0.098   0.100   0.106   0.112   0.115   0.119
  0.121   0.125   0.134   0.136   0.142   0.147   0.153   0.156
  0.161   0.167   0.172   0.175   0.179   0.185   0.192   0.199
  0.209   0.211   0.227   0.231   0.239   0.244   0.251   0.260
  0.267   0.277   0.280   0.293   0.305   0.331   0.352   0.361
  0.374   0.379   0.392   0.413   0.427   0.439   0.458   0.466
  0.476   0.496   0.501   0.507   0.511   0.517   0.519   0.526
  0.527   0.528   0.542   0.569   0.572   0.578   0.586   0.593
  0.596   0.602   0.606   0.610   0.625   0.640   0.654   0.662
  0.666   0.667   0.675   0.681   0.696   0.708   0.747   0.760
  0.796   0.802   0.807   0.811   0.815   0.826   0.831   0.836
  0.853   0.860   0.864   0.872   0.880   0.892   0.904   0.910
  0.921   0.933   0.940   0.948   0.968   0.972   0.979   0.995
  1.012   1.029   1.037   1.061   1.069   1.083   1.108   1.114
  1.125   1.149   1.153   1.187   1.189   1.198   1.210   1.218
  1.225   1.228   1.247   1.264   1.276   1.310   1.323   1.374
  1.387   1.422   1.464   1.486   1.494   1.542   1.561   1.566
  1.671   1.699   1.714   1.731   1.757   1.768   1.789   1.796
  1.825   1.834   1.857   1.863   1.873   1.900   1.919   1.944
  1.954   1.968   1.995   2.023   2.024   2.057   2.060   2.089
  2.094   2.100   2.152   2.172   2.188   2.207   2.236   2.240
  2.274   2.302   2.325   2.330   2.333   2.340   2.379   2.393
  2.398   2.405   2.414   2.442   2.453   2.467   2.479   2.515
  2.530   2.563   2.579   2.580   2.592   2.676   2.698   2.725
  2.772   2.788   2.831   2.843   3.014   3.062   3.117   3.163
  3.164   3.206   3.298   3.300   3.559   3.626   3.634   3.810
  3.852   3.865   4.103   4.118   4.167   4.171   4.192   4.196
  4.232   4.323   4.414   4.503   4.565   4.585
 
 Beta MOs
 -- Occupied --
-89.086 -89.066 -89.063 -10.405 -10.401 -10.388 -10.388 -10.372
-10.370 -10.357 -10.356 -10.349 -10.347 -10.340 -10.340  -8.145
 -8.127  -8.123  -6.110  -6.106  -6.102  -6.091  -6.087  -6.087
 -6.084  -6.083  -6.080  -1.076  -1.049  -1.035  -0.951  -0.916
 -0.896  -0.891  -0.887  -0.841  -0.771  -0.748  -0.713  -0.700
 -0.691  -0.676  -0.674  -0.656  -0.605  -0.582  -0.572  -0.569
 -0.563  -0.549  -0.544  -0.541  -0.535  -0.517  -0.515  -0.507
 -0.491  -0.488  -0.441  -0.421  -0.402  -0.400  -0.380
 -- Virtual --
 -0.299  -0.208  -0.161  -0.147  -0.127  -0.118  -0.113  -0.105
 -0.101  -0.096  -0.092  -0.089  -0.082  -0.080  -0.077  -0.068
 -0.067  -0.065  -0.062  -0.058  -0.051  -0.044  -0.042  -0.039
 -0.034  -0.028  -0.023  -0.016  -0.012  -0.006  -0.002   0.002
  0.005   0.012   0.014   0.017   0.020   0.023   0.028   0.030
  0.032   0.036   0.038   0.044   0.046   0.048   0.049   0.051
  0.059   0.060   0.062   0.067   0.069   0.075   0.079   0.083
  0.084   0.088   0.097   0.098   0.101   0.106   0.112   0.116
  0.120   0.121   0.126   0.135   0.136   0.143   0.147   0.154
  0.157   0.161   0.168   0.174   0.176   0.180   0.186   0.193
  0.201   0.210   0.212   0.228   0.231   0.240   0.245   0.251
  0.262   0.269   0.278   0.281   0.294   0.307   0.332   0.354
  0.361   0.376   0.380   0.393   0.415   0.429   0.440   0.459
  0.467   0.477   0.500   0.504   0.512   0.515   0.520   0.524
  0.528   0.532   0.532   0.543   0.570   0.574   0.580   0.590
  0.594   0.598   0.605   0.608   0.612   0.627   0.647   0.656
  0.665   0.668   0.670   0.677   0.684   0.700   0.713   0.748
  0.761   0.797   0.803   0.810   0.813   0.817   0.830   0.832
  0.838   0.855   0.861   0.865   0.874   0.881   0.893   0.905
  0.911   0.922   0.934   0.942   0.949   0.969   0.974   0.981
  0.996   1.013   1.032   1.040   1.063   1.072   1.087   1.111
  1.118   1.128   1.151   1.158   1.190   1.193   1.203   1.213
  1.223   1.229   1.232   1.248   1.265   1.282   1.312   1.327
  1.380   1.392   1.427   1.468   1.490   1.500   1.546   1.570
  1.575   1.674   1.700   1.718   1.733   1.758   1.770   1.790
  1.797   1.829   1.838   1.860   1.867   1.877   1.903   1.923
  1.947   1.957   1.975   2.001   2.029   2.031   2.062   2.068
  2.095   2.099   2.106   2.158   2.175   2.192   2.211   2.238
  2.242   2.279   2.305   2.329   2.334   2.335   2.345   2.382
  2.397   2.402   2.407   2.418   2.444   2.456   2.469   2.482
  2.517   2.534   2.565   2.581   2.583   2.595   2.679   2.702
  2.728   2.774   2.790   2.833   2.845   3.015   3.063   3.118
  3.163   3.164   3.206   3.299   3.301   3.560   3.627   3.635
  3.811   3.853   3.865   4.107   4.121   4.171   4.174   4.194
  4.198   4.237   4.326   4.419   4.506   4.568   4.588
 --------------------------------------------------------------
 
          Ground-State Mulliken Net Atomic Charges

     Atom                 Charge (a.u.)    Spin (a.u.)
  --------------------------------------------------------
      1 H                     0.248237      -0.011254
      2 H                     0.154636       0.001481
      3 C                     0.071492       0.231046
      4 C                    -0.362649      -0.044015
      5 S                    -0.088093      -0.029047
      6 C                     0.543041       0.147192
      7 H                     0.139407      -0.008927
      8 C                     0.204243       0.036000
      9 H                     0.065534      -0.005322
     10 C                    -0.093597       0.176739
     11 C                    -0.492821       0.051747
     12 S                     0.076064      -0.048312
     13 C                    -0.111568       0.029726
     14 H                     0.103654      -0.002849
     15 C                     0.041414       0.185975
     16 C                    -0.241460       0.037198
     17 H                     0.116518      -0.008693
     18 C                     0.524584       0.136478
     19 S                     0.064606      -0.032851
     20 C                    -0.449104      -0.045904
     21 C                     0.090657       0.212727
     22 H                     0.158034       0.002124
     23 H                     0.237170      -0.011258
  --------------------------------------------------------
  Sum of atomic charges =     1.000000
  Sum of spin   charges =     1.000000

 -----------------------------------------------------------------
                    Cartesian Multipole Moments
 -----------------------------------------------------------------
    Charge (ESU x 10^10)
                 4.8032
    Dipole Moment (Debye)
         X      29.0877      Y      -1.5491      Z      -0.6759
       Tot      29.1368
    Quadrupole Moments (Debye-Ang)
        XX     160.2192     XY      -3.7410     YY     -89.4757
        XZ      -2.4488     YZ       3.1672     ZZ    -109.7061
    Octopole Moments (Debye-Ang^2)
       XXX     770.7652    XXY      19.7225    XYY    -551.4994
       YYY     146.3578    XXZ       2.6354    XYZ      10.0059
       YYZ       9.8043    XZZ    -672.3881    YZZ      53.9405
       ZZZ      49.4910
    Hexadecapole Moments (Debye-Ang^3)
      XXXX   -1408.3203   XXXY     459.8472   XXYY   -4513.6421
      XYYY     950.7953   YYYY    -901.0090   XXXZ     152.3763
      XXYZ      17.4393   XYYZ      65.0308   YYYZ     -50.9149
      XXZZ   -5408.4819   XYZZ     323.1412   YYZZ    -196.4855
      XZZZ     250.0341   YZZZ     -75.5522   ZZZZ    -173.4220
 -----------------------------------------------------------------
 Calculating analytic gradient of the SCF energy
 Gradient of SCF Energy
            1           2           3           4           5           6
    1   0.0068435   0.0045570  -0.0045692  -0.0000513   0.0027241   0.0236337
    2  -0.0034315   0.0048423   0.0019676   0.0120229  -0.0265571   0.0107433
    3  -0.0011650   0.0009717  -0.0000443   0.0038471  -0.0056524   0.0035942
            7           8           9          10          11          12
    1  -0.0015526  -0.0212851  -0.0024358   0.0465377  -0.0664977   0.0027918
    2   0.0061715   0.0628441  -0.0059407  -0.0461868  -0.0323910   0.0401458
    3   0.0005428   0.0118534  -0.0011654  -0.0091819  -0.0080736   0.0071140
           13          14          15          16          17          18
    1   0.0339593   0.0027727  -0.0246943   0.0240798  -0.0040545  -0.0203752
    2  -0.0231845  -0.0034387  -0.0000703   0.0060326  -0.0045376  -0.0146613
    3  -0.0042042  -0.0015870   0.0013217  -0.0009592   0.0007109   0.0001630
           19          20          21          22          23
    1   0.0023637   0.0027344   0.0033802  -0.0039373  -0.0069246
    2   0.0267182  -0.0094962   0.0003250  -0.0052618   0.0033440
    3   0.0015221   0.0011864  -0.0003038   0.0002234  -0.0007138
 Max gradient component =       6.650E-02
 RMS gradient           =       1.806E-02
 Gradient time:  CPU 4.30 s  wall 4.24 s
 Geometry Optimization Parameters
   NAtoms,    NIC,     NZ,  NCons,   NDum,   NFix, NCnnct, MaxDiis
       23     166       0       1       0       0       0       0


** CONSTRAINED OPTIMIZATION IN DELOCALIZED INTERNAL COORDINATES **
   Searching for a Minimum

   Optimization Cycle:   1

                       Coordinates (Angstroms)
     ATOM                X               Y               Z
      1  H         0.0000000000    0.0000000000    0.0000000000
      2  H         0.6636600000   -2.4682800000   -0.5912700000
      3  C         0.9910300000   -0.3910600000   -0.1165200000
      4  C         1.3681200000   -1.6744200000   -0.4248500000
      5  S         2.3466900000    0.6258600000    0.0863800000
      6  C         2.7616700000   -1.8217500000   -0.5082200000
      7  H         3.2629100000   -2.7387700000   -0.7619900000
      8  C         3.4467100000   -0.6504300000   -0.2605700000
      9  H         4.5564500000    1.4390267100    0.1570438500
     10  C         4.8838200000   -0.6504300000   -0.2605700000
     11  C         5.2609100000    0.6409019400    0.0124539000
     12  S         6.2394800000   -1.6725311300   -0.4355093900
     13  C         6.6544600000    0.7904624800    0.0917531100
     14  H         7.1557000000    1.7140965300    0.3202821300
     15  C         7.3395000000   -0.3872077300   -0.1236860000
     16  C         8.7766100000   -0.3872077300   -0.1236860000
     17  H         8.9604100000    1.7600168900   -0.1685285900
     18  C         9.4616500000    0.8099819600   -0.1160201800
     19  S         9.8766300000   -1.7081177400   -0.0567037100
     20  C        10.8552000000    0.6482689600   -0.0659641100
     21  C        11.2322900000   -0.6713180300   -0.0382208000
     22  H        11.5596600000    1.4593580500   -0.0593765300
     23  H        12.2233200000   -1.0782271100   -0.0077184200
   Point Group: c1    Number of degrees of freedom:    63


   Energy is  -1656.370601533

              Constraints and their Current Values
                                        Value     Constraint
   Dihedral:       13  15  16  18      -10.000      -10.000

 Attempting to Generate Delocalized Internal Coordinates

 62 Hessian modes will be used to form the next step
  Hessian Eigenvalues:
     0.045000    0.045000    0.045000    0.045000    0.045000    0.045000
     0.045001    0.045001    0.045001    0.045002    0.045003    0.045003
     0.045011    0.045012    0.045012    0.045025    0.045032    0.045058
     0.045059    0.159944    0.159945    0.159945    0.159992    0.159993
     0.159993    0.160000    0.160000    0.221307    0.221308    0.227041
     0.237995    0.238010    0.245411    0.249662    0.249670    0.249670
     0.249825    0.326317    0.326319    0.326962    0.340043    0.340044
     0.340629    0.365512    0.365512    0.365513    0.366888    0.366889
     0.366889    0.370099    0.370100    0.399845    0.399845    0.435419
     0.435419    0.435422    0.463117    0.463122    0.464282    0.495500
     0.495500    0.495533

 Minimum Search - Taking Simple RFO Step
 Searching for Lamda that Minimizes Along All modes
 Value Taken    Lamda =  -0.07372440
 Calculated Step too Large.  Step scaled by  0.652706
 Step Taken.  Stepsize is  0.300000

                             Maximum     Tolerance    Cnvgd?
         Gradient           0.099269      0.000300      NO
         Displacement       0.196636      0.001200      NO
         Energy change     *********      0.000001      NO


 New Cartesian Coordinates Obtained by Inverse Iteration

 Displacement from previous Coordinates is:  2.398159
 ----------------------------------------------------------------
             Standard Nuclear Orientation (Angstroms)
    I     Atom           X                Y                Z
 ----------------------------------------------------------------
    1      H      -0.1307109811    -0.3584163155    -0.0550793495
    2      H       0.8226833699    -2.7449011954    -0.6378887661
    3      C       0.9069540397    -0.6329289607    -0.1521905187
    4      C       1.4311900233    -1.8718469408    -0.4561985936
    5      S       2.1247935535     0.5525944965     0.0822901366
    6      C       2.8341768600    -1.8511539051    -0.5084065817
    7      H       3.4424359154    -2.7101247212    -0.7515567405
    8      C       3.3863039737    -0.5942556593    -0.2423524760
    9      H       4.5658308316     1.7501123941     0.2193604781
   10      C       4.8155404489    -0.3871874438    -0.2058120598
   11      C       5.2422832519     0.9263741646     0.0675261199
   12      S       6.1764502621    -1.4206633934    -0.3857000424
   13      C       6.6296154683     1.0641996663     0.1360400062
   14      H       7.1321669917     1.9897473341     0.3613228005
   15      C       7.3054274349    -0.1393822033    -0.0847072111
   16      C       8.7392485676    -0.2591681872    -0.1134494258
   17      H       9.2638330971     1.8597251602    -0.1729949275
   18      C       9.6049434449     0.8391505543    -0.1252104739
   19      S       9.6441093953    -1.7368126935    -0.0662110014
   20      C      10.9602773485     0.4742439709    -0.1040823928
   21      C      11.1360155455    -0.8936218583    -0.0766227630
   22      H      11.7804452337     1.1759674876    -0.1162030554
   23      H      12.0628659236    -1.4434277012    -0.0633639019
 ----------------------------------------------------------------
 Nuclear Repulsion Energy =  1178.8060635527 hartrees
 There are       64 alpha and       63 beta electrons
 Applying Cartesian multipole field
    Component          Value
    ---------          -----
     (2,0,0)        1.00000E-12
     (0,2,0)        2.00000E-11
     (0,0,2)       -3.00000E-11
 Nucleus-field energy     =     0.0000000342 hartrees
 Requested basis set is 6-31++G(d,p)
 There are 110 shells and 345 basis functions
 A cutoff of  1.0D-12 yielded   4698 shell pairs
 There are     47873 function pairs

 Q-Chem warning in module /project/projectdirs/jcesr/qchem/qc44/cnl_qc441/compile/cori/qc_src/libqints/qchem/aobasis.C, line 68:

 Using reconstructed effective core potential

 Smallest overlap matrix eigenvalue = 1.03E-07
 Linear dependence detected in AO basis
 Number of orthogonalized atomic orbitals = 342
 Maximum deviation from orthogonality = 1.166E-10
 Guess MOs from SCF MO coefficient file
 Reading MOs from coefficient file
 Reading MOs from coefficient file
 An unrestricted hybrid HF-DFT SCF calculation will be
 performed using Pulay DIIS extrapolation
 Exchange:     0.2000 Hartree-Fock + 0.0800 Slater + 0.7200 B88
 Correlation:  0.1900 VWN1RPA + 0.8100 LYP
 Using SG-1 standard quadrature grid
 SCF converges when DIIS error is below 1.0E-08
 Geometry optimization detected.  Setting ReadMinima to 0
 Setting SaveMinima to 0
 Inaccurate integrated density:
   Number of electrons =   127
   Numerical integral  =   126.858845119115
   Relative error      =    -0.1111455755 %
 ---------------------------------------
  Cycle       Energy         DIIS Error
 ---------------------------------------
    1   -1656.1870847260      7.61E-03
    2   -1656.3537503051      1.68E-03
    3   -1656.1888082408      3.47E-03
    4   -1656.3977612528      5.43E-04
    5   -1656.4026921250      1.74E-04
    6   -1656.4031879101      6.00E-05
    7   -1656.4032451312      2.46E-05
    8   -1656.4032554162      5.61E-06
    9   -1656.4032560843      2.72E-06
   10   -1656.4032563217      9.42E-07
   11   -1656.4032564317      6.10E-07
   12   -1656.4032564680      2.61E-07
   13   -1656.4032564835      1.67E-07
   14   -1656.4032564871      7.68E-08
   15   -1656.4032564889      3.59E-08
   16   -1656.4032564899      1.70E-08
   17   -1656.4032564890      7.33E-09 Convergence criterion met
 ---------------------------------------
 <S^2> = 0.7685
 SCF time:  CPU 24.25 s  wall 22.43 s
 SCF   energy in the final basis set = -1656.4032564890
 Total energy in the final basis set = -1656.4032564890
 
 --------------------------------------------------------------
 
                    Orbital Energies (a.u.)
 --------------------------------------------------------------
 
 Alpha MOs
 -- Occupied --
-89.081 -89.066 -89.064 -10.410 -10.409 -10.391 -10.391 -10.377
-10.375 -10.362 -10.362 -10.355 -10.353 -10.342 -10.341  -8.140
 -8.126  -8.123  -6.105  -6.101  -6.097  -6.090  -6.088  -6.086
 -6.084  -6.083  -6.081  -1.070  -1.045  -1.033  -0.946  -0.912
 -0.895  -0.892  -0.887  -0.845  -0.771  -0.746  -0.712  -0.705
 -0.689  -0.679  -0.674  -0.652  -0.608  -0.576  -0.575  -0.568
 -0.562  -0.549  -0.548  -0.545  -0.532  -0.525  -0.523  -0.511
 -0.494  -0.489  -0.456  -0.421  -0.406  -0.403  -0.397  -0.350
 -- Virtual --
 -0.226  -0.174  -0.150  -0.131  -0.125  -0.113  -0.112  -0.103
 -0.100  -0.092  -0.089  -0.087  -0.081  -0.079  -0.071  -0.069
 -0.066  -0.064  -0.060  -0.052  -0.046  -0.042  -0.039  -0.034
 -0.029  -0.023  -0.015  -0.013  -0.007  -0.003   0.001   0.006
  0.012   0.013   0.016   0.018   0.023   0.027   0.030   0.031
  0.033   0.036   0.043   0.045   0.046   0.048   0.050   0.054
  0.058   0.061   0.066   0.068   0.073   0.076   0.081   0.081
  0.088   0.091   0.096   0.100   0.101   0.111   0.115   0.118
  0.120   0.122   0.130   0.132   0.142   0.145   0.153   0.154
  0.160   0.163   0.171   0.174   0.182   0.185   0.191   0.197
  0.201   0.212   0.223   0.232   0.236   0.238   0.251   0.253
  0.261   0.270   0.272   0.283   0.304   0.326   0.346   0.359
  0.365   0.381   0.397   0.400   0.427   0.436   0.443   0.458
  0.471   0.483   0.499   0.502   0.510   0.518   0.518   0.522
  0.525   0.527   0.539   0.557   0.568   0.575   0.586   0.588
  0.593   0.595   0.603   0.605   0.625   0.634   0.649   0.654
  0.661   0.667   0.679   0.683   0.696   0.708   0.734   0.758
  0.796   0.802   0.804   0.810   0.813   0.823   0.827   0.837
  0.846   0.850   0.862   0.869   0.877   0.879   0.897   0.908
  0.920   0.927   0.934   0.941   0.965   0.965   0.977   0.983
  1.009   1.024   1.030   1.049   1.066   1.077   1.098   1.108
  1.120   1.138   1.148   1.185   1.191   1.201   1.201   1.212
  1.215   1.220   1.225   1.267   1.290   1.320   1.323   1.371
  1.389   1.421   1.435   1.478   1.505   1.530   1.558   1.562
  1.666   1.692   1.699   1.738   1.758   1.769   1.782   1.788
  1.811   1.817   1.837   1.854   1.863   1.877   1.904   1.925
  1.938   1.951   1.979   2.008   2.011   2.039   2.053   2.071
  2.085   2.100   2.120   2.134   2.167   2.187   2.229   2.234
  2.262   2.296   2.314   2.320   2.327   2.332   2.361   2.376
  2.384   2.397   2.399   2.409   2.435   2.452   2.475   2.494
  2.524   2.551   2.570   2.577   2.587   2.659   2.696   2.730
  2.753   2.780   2.810   2.839   3.000   3.048   3.091   3.150
  3.154   3.198   3.282   3.287   3.534   3.606   3.617   3.805
  3.844   3.869   4.103   4.112   4.155   4.167   4.183   4.193
  4.229   4.316   4.405   4.493   4.558   4.587
 
 Beta MOs
 -- Occupied --
-89.081 -89.067 -89.064 -10.407 -10.406 -10.390 -10.390 -10.374
-10.372 -10.361 -10.361 -10.353 -10.351 -10.342 -10.342  -8.141
 -8.126  -8.124  -6.105  -6.101  -6.097  -6.090  -6.088  -6.086
 -6.084  -6.083  -6.081  -1.066  -1.042  -1.029  -0.941  -0.911
 -0.891  -0.891  -0.886  -0.837  -0.767  -0.743  -0.709  -0.702
 -0.688  -0.676  -0.673  -0.650  -0.606  -0.574  -0.566  -0.565
 -0.560  -0.547  -0.544  -0.538  -0.531  -0.523  -0.512  -0.510
 -0.493  -0.489  -0.437  -0.419  -0.402  -0.400  -0.379
 -- Virtual --
 -0.297  -0.210  -0.163  -0.148  -0.125  -0.120  -0.112  -0.104
 -0.101  -0.098  -0.092  -0.089  -0.081  -0.079  -0.078  -0.069
 -0.066  -0.064  -0.062  -0.059  -0.052  -0.044  -0.041  -0.039
 -0.034  -0.028  -0.022  -0.014  -0.012  -0.006  -0.003   0.003
  0.006   0.012   0.014   0.016   0.019   0.025   0.028   0.030
  0.031   0.034   0.037   0.044   0.046   0.047   0.049   0.051
  0.054   0.059   0.062   0.067   0.069   0.074   0.077   0.081
  0.082   0.089   0.091   0.097   0.101   0.102   0.111   0.116
  0.119   0.120   0.123   0.131   0.133   0.142   0.146   0.153
  0.155   0.161   0.165   0.171   0.175   0.183   0.186   0.192
  0.198   0.203   0.213   0.224   0.233   0.237   0.240   0.251
  0.254   0.262   0.272   0.274   0.285   0.305   0.327   0.348
  0.359   0.366   0.381   0.398   0.402   0.428   0.437   0.444
  0.460   0.472   0.484   0.502   0.507   0.515   0.520   0.522
  0.528   0.529   0.531   0.540   0.558   0.569   0.578   0.588
  0.592   0.594   0.596   0.605   0.611   0.626   0.640   0.650
  0.655   0.663   0.671   0.682   0.685   0.700   0.712   0.735
  0.759   0.797   0.804   0.807   0.812   0.815   0.827   0.829
  0.838   0.847   0.851   0.863   0.871   0.879   0.880   0.897
  0.910   0.922   0.928   0.935   0.942   0.966   0.967   0.978
  0.983   1.010   1.027   1.032   1.052   1.069   1.081   1.101
  1.112   1.124   1.140   1.155   1.190   1.193   1.203   1.204
  1.215   1.221   1.225   1.228   1.269   1.296   1.322   1.328
  1.375   1.395   1.425   1.439   1.483   1.511   1.534   1.567
  1.571   1.670   1.693   1.703   1.740   1.759   1.770   1.784
  1.789   1.816   1.822   1.841   1.858   1.866   1.880   1.908
  1.930   1.941   1.955   1.984   2.014   2.018   2.045   2.059
  2.078   2.090   2.105   2.124   2.140   2.171   2.191   2.232
  2.236   2.267   2.300   2.319   2.322   2.328   2.337   2.364
  2.378   2.388   2.399   2.403   2.412   2.438   2.455   2.478
  2.496   2.527   2.553   2.573   2.581   2.589   2.661   2.700
  2.733   2.754   2.782   2.812   2.841   3.000   3.049   3.092
  3.150   3.155   3.198   3.283   3.288   3.535   3.608   3.618
  3.805   3.844   3.870   4.107   4.115   4.158   4.172   4.185
  4.195   4.234   4.320   4.410   4.496   4.560   4.590
 --------------------------------------------------------------
 
          Ground-State Mulliken Net Atomic Charges

     Atom                 Charge (a.u.)    Spin (a.u.)
  --------------------------------------------------------
      1 H                     0.245563      -0.011230
      2 H                     0.159759       0.001679
      3 C                     0.069068       0.224454
      4 C                    -0.300706      -0.043587
      5 S                    -0.019791      -0.028587
      6 C                     0.478186       0.143057
      7 H                     0.141236      -0.009147
      8 C                    -0.032491       0.032047
      9 H                     0.115400      -0.005467
     10 C                    -0.061520       0.181807
     11 C                    -0.313930       0.058313
     12 S                    -0.141408      -0.056008
     13 C                     0.002841       0.033620
     14 H                     0.129578      -0.003199
     15 C                     0.020767       0.187430
     16 C                    -0.222728       0.031924
     17 H                     0.129340      -0.009070
     18 C                     0.431109       0.141377
     19 S                     0.056910      -0.031837
     20 C                    -0.373585      -0.047048
     21 C                     0.086465       0.218776
     22 H                     0.159876       0.002106
     23 H                     0.240058      -0.011410
  --------------------------------------------------------
  Sum of atomic charges =     1.000000
  Sum of spin   charges =     1.000000

 -----------------------------------------------------------------
                    Cartesian Multipole Moments
 -----------------------------------------------------------------
    Charge (ESU x 10^10)
                 4.8032
    Dipole Moment (Debye)
         X      29.0748      Y      -1.4727      Z      -0.6624
       Tot      29.1196
    Quadrupole Moments (Debye-Ang)
        XX     160.9644     XY      -2.5317     YY     -87.9946
        XZ      -2.6234     YZ       3.3361     ZZ    -110.1772
    Octopole Moments (Debye-Ang^2)
       XXX     795.1768    XXY      13.3555    XYY    -535.2158
       YYY     135.4578    XXZ      -4.6593    XYZ      10.5837
       YYZ       9.2859    XZZ    -668.6689    YZZ      50.6248
       ZZZ      47.5784
    Hexadecapole Moments (Debye-Ang^3)
      XXXX   -1005.6711   XXXY     231.7861   XXYY   -4346.4232
      XYYY     853.4437   YYYY    -892.4997   XXXZ      33.4812
      XXYZ      21.4905   XYYZ      64.6609   YYYZ     -45.7078
      XXZZ   -5355.4247   XYZZ     292.6587   YYZZ    -198.7574
      XZZZ     241.9116   YZZZ     -73.7956   ZZZZ    -172.9656
 -----------------------------------------------------------------
 Calculating analytic gradient of the SCF energy
 Gradient of SCF Energy
            1           2           3           4           5           6
    1   0.0031663   0.0014223  -0.0024166  -0.0027936   0.0003521   0.0094539
    2  -0.0014004   0.0020416   0.0001540   0.0039516  -0.0155931   0.0040228
    3  -0.0006717   0.0004447  -0.0002797   0.0018705  -0.0027916   0.0020991
            7           8           9          10          11          12
    1  -0.0010030  -0.0278566   0.0033394   0.0351134  -0.0290694   0.0008249
    2   0.0029980   0.0390713  -0.0029005  -0.0430468  -0.0074519   0.0281707
    3  -0.0001667   0.0068099  -0.0006299  -0.0094213  -0.0023444   0.0048218
           13          14          15          16          17          18
    1   0.0196395  -0.0011644  -0.0197837   0.0178179   0.0006828  -0.0076063
    2  -0.0061409  -0.0031306  -0.0015217  -0.0051478  -0.0036708  -0.0015648
    3  -0.0005174  -0.0005403   0.0022853  -0.0024551  -0.0000725  -0.0002316
           19          20          21          22          23
    1   0.0018393   0.0017714   0.0008918  -0.0018465  -0.0027747
    2   0.0148613  -0.0039756   0.0002814  -0.0018764   0.0018685
    3   0.0012035   0.0008442   0.0000270   0.0002204  -0.0005044
 Max gradient component =       4.305E-02
 RMS gradient           =       1.156E-02
 Gradient time:  CPU 4.27 s  wall 4.26 s
 Geometry Optimization Parameters
   NAtoms,    NIC,     NZ,  NCons,   NDum,   NFix, NCnnct, MaxDiis
       23     166       0       1       0       0       0       0

 Cartesian Hessian Update
 Hessian Updated using BFGS Update


** CONSTRAINED OPTIMIZATION IN DELOCALIZED INTERNAL COORDINATES **
   Searching for a Minimum

   Optimization Cycle:   2

                       Coordinates (Angstroms)
     ATOM                X               Y               Z
      1  H        -0.1307109811   -0.3584163155   -0.0550793495
      2  H         0.8226833699   -2.7449011954   -0.6378887661
      3  C         0.9069540397   -0.6329289607   -0.1521905187
      4  C         1.4311900233   -1.8718469408   -0.4561985936
      5  S         2.1247935535    0.5525944965    0.0822901366
      6  C         2.8341768600   -1.8511539051   -0.5084065817
      7  H         3.4424359154   -2.7101247212   -0.7515567405
      8  C         3.3863039737   -0.5942556593   -0.2423524760
      9  H         4.5658308316    1.7501123941    0.2193604781
     10  C         4.8155404489   -0.3871874438   -0.2058120598
     11  C         5.2422832519    0.9263741646    0.0675261199
     12  S         6.1764502621   -1.4206633934   -0.3857000424
     13  C         6.6296154683    1.0641996663    0.1360400062
     14  H         7.1321669917    1.9897473341    0.3613228005
     15  C         7.3054274349   -0.1393822033   -0.0847072111
     16  C         8.7392485676   -0.2591681872   -0.1134494258
     17  H         9.2638330971    1.8597251602   -0.1729949275
     18  C         9.6049434449    0.8391505543   -0.1252104739
     19  S         9.6441093953   -1.7368126935   -0.0662110014
     20  C        10.9602773485    0.4742439709   -0.1040823928
     21  C        11.1360155455   -0.8936218583   -0.0766227630
     22  H        11.7804452337    1.1759674876   -0.1162030554
     23  H        12.0628659236   -1.4434277012   -0.0633639019
   Point Group: c1    Number of degrees of freedom:    63


   Energy is  -1656.403256489

              Constraints and their Current Values
                                        Value     Constraint
   Dihedral:       13  15  16  18      -10.000      -10.000
 Hessian Updated using BFGS Update

 62 Hessian modes will be used to form the next step
  Hessian Eigenvalues:
     0.044934    0.045000    0.045000    0.045000    0.045000    0.045000
     0.045001    0.045001    0.045002    0.045002    0.045003    0.045006
     0.045011    0.045011    0.045012    0.045029    0.045033    0.045056
     0.045059    0.159713    0.159944    0.159952    0.159987    0.159993
     0.159996    0.160000    0.160831    0.201329    0.221308    0.221715
     0.228378    0.238004    0.239054    0.247124    0.249670    0.249704
     0.294203    0.323620    0.326451    0.327499    0.338906    0.340103
     0.340529    0.365131    0.365512    0.365732    0.366559    0.366889
     0.367357    0.369906    0.370100    0.399785    0.418836    0.434882
     0.435419    0.437269    0.463012    0.463411    0.470167    0.495122
     0.495501    0.568293

 Minimum Search - Taking Simple RFO Step
 Searching for Lamda that Minimizes Along All modes
 Value Taken    Lamda =  -0.02152205
 Calculated Step too Large.  Step scaled by  0.971532
 Step Taken.  Stepsize is  0.300000

                             Maximum     Tolerance    Cnvgd?
         Gradient           0.030937      0.000300      NO
         Displacement       0.114396      0.001200      NO
         Energy change     -0.032655      0.000001      NO


 New Cartesian Coordinates Obtained by Inverse Iteration

 Displacement from previous Coordinates is:  1.457232
 ----------------------------------------------------------------
             Standard Nuclear Orientation (Angstroms)
    I     Atom           X                Y                Z
 ----------------------------------------------------------------
    1      H      -0.0954774993    -0.5230167066    -0.0961757575
    2      H       0.9762260991    -2.8746774649    -0.6619844245
    3      C       0.9607309404    -0.7493456690    -0.1792411927
    4      C       1.5453580917    -1.9718495097    -0.4750913802
    5      S       2.1053840578     0.5126437299     0.0688839839
    6      C       2.9446179714    -1.8906520972    -0.5048175168
    7      H       3.5967990293    -2.7277050448    -0.7316339965
    8      C       3.4262728059    -0.5951360487    -0.2306270194
    9      H       4.5392177546     1.9402019435     0.2612595776
   10      C       4.7864426153    -0.2126108562    -0.1580429924
   11      C       5.2246988331     1.1126443166     0.1087637095
   12      S       6.1302226120    -1.2975682591    -0.3511853760
   13      C       6.5988187469     1.2321699226     0.1610093165
   14      H       7.1201653428     2.1575632934     0.3760456794
   15      C       7.2644772309     0.0039688039    -0.0643634068
   16      C       8.6688452901    -0.1856760282    -0.1039223776
   17      H       9.3675957790     1.8969946887    -0.1568129947
   18      C       9.6261397795     0.8442837619    -0.1232181199
   19      S       9.4416935452    -1.7572779256    -0.0855323251
   20      C      10.9430178515     0.3606358582    -0.1293663538
   21      C      10.9993698148    -1.0255208392    -0.1112266440
   22      H      11.8240385116     0.9911305782    -0.1509284226
   23      H      11.8822247964    -1.6529763976    -0.1132827065
 ----------------------------------------------------------------
 Nuclear Repulsion Energy =  1182.6507531385 hartrees
 There are       64 alpha and       63 beta electrons
 Applying Cartesian multipole field
    Component          Value
    ---------          -----
     (2,0,0)        1.00000E-12
     (0,2,0)        2.00000E-11
     (0,0,2)       -3.00000E-11
 Nucleus-field energy     =     0.0000000343 hartrees
 Requested basis set is 6-31++G(d,p)
 There are 110 shells and 345 basis functions
 A cutoff of  1.0D-12 yielded   4686 shell pairs
 There are     47704 function pairs

 Q-Chem warning in module /project/projectdirs/jcesr/qchem/qc44/cnl_qc441/compile/cori/qc_src/libqints/qchem/aobasis.C, line 68:

 Using reconstructed effective core potential

 Smallest overlap matrix eigenvalue = 5.81E-08
 Linear dependence detected in AO basis
 Number of orthogonalized atomic orbitals = 342
 Maximum deviation from orthogonality = 1.237E-10
 Guess MOs from SCF MO coefficient file
 Reading MOs from coefficient file
 Reading MOs from coefficient file
 An unrestricted hybrid HF-DFT SCF calculation will be
 performed using Pulay DIIS extrapolation
 Exchange:     0.2000 Hartree-Fock + 0.0800 Slater + 0.7200 B88
 Correlation:  0.1900 VWN1RPA + 0.8100 LYP
 Using SG-1 standard quadrature grid
 SCF converges when DIIS error is below 1.0E-08
 Geometry optimization detected.  Setting ReadMinima to 0
 Setting SaveMinima to 0
 ---------------------------------------
  Cycle       Energy         DIIS Error
 ---------------------------------------
    1   -1656.3226871939      4.13E-03
    2   -1656.4029397846      8.26E-04
    3   -1656.3653136579      1.68E-03
    4   -1656.4143332931      2.31E-04
    5   -1656.4151957134      7.92E-05
    6   -1656.4153033386      2.27E-05
    7   -1656.4153114391      9.80E-06
    8   -1656.4153130233      3.18E-06
    9   -1656.4153132414      1.44E-06
   10   -1656.4153133125      3.25E-07
   11   -1656.4153133441      2.61E-07
   12   -1656.4153133596      1.20E-07
   13   -1656.4153133678      8.15E-08
   14   -1656.4153133707      3.44E-08
   15   -1656.4153133713      1.48E-08
   16   -1656.4153133707      8.67E-09 Convergence criterion met
 ---------------------------------------
 <S^2> = 0.7712
 SCF time:  CPU 22.66 s  wall 21.02 s
 SCF   energy in the final basis set = -1656.4153133707
 Total energy in the final basis set = -1656.4153133707
 
 --------------------------------------------------------------
 
                    Orbital Energies (a.u.)
 --------------------------------------------------------------
 
 Alpha MOs
 -- Occupied --
-89.077 -89.066 -89.065 -10.409 -10.408 -10.389 -10.389 -10.378
-10.377 -10.365 -10.365 -10.357 -10.357 -10.344 -10.343  -8.136
 -8.125  -8.124  -6.101  -6.097  -6.093  -6.089  -6.088  -6.085
 -6.084  -6.082  -6.081  -1.066  -1.041  -1.027  -0.944  -0.915
 -0.894  -0.893  -0.884  -0.839  -0.771  -0.748  -0.710  -0.706
 -0.689  -0.676  -0.674  -0.643  -0.606  -0.574  -0.573  -0.568
 -0.558  -0.550  -0.547  -0.544  -0.534  -0.522  -0.519  -0.514
 -0.496  -0.491  -0.455  -0.423  -0.407  -0.405  -0.395  -0.345
 -- Virtual --
 -0.231  -0.176  -0.157  -0.132  -0.127  -0.113  -0.112  -0.103
 -0.096  -0.093  -0.091  -0.084  -0.081  -0.079  -0.071  -0.067
 -0.066  -0.064  -0.060  -0.050  -0.045  -0.041  -0.039  -0.032
 -0.029  -0.022  -0.014  -0.011  -0.007  -0.003   0.002   0.006
  0.011   0.013   0.015   0.018   0.023   0.028   0.029   0.031
  0.033   0.036   0.043   0.044   0.046   0.048   0.051   0.054
  0.057   0.061   0.066   0.069   0.072   0.078   0.081   0.084
  0.085   0.091   0.096   0.099   0.101   0.109   0.115   0.118
  0.120   0.122   0.129   0.132   0.137   0.142   0.151   0.154
  0.160   0.163   0.172   0.176   0.183   0.184   0.191   0.199
  0.202   0.211   0.221   0.233   0.239   0.242   0.247   0.251
  0.256   0.266   0.271   0.282   0.308   0.324   0.343   0.358
  0.375   0.382   0.397   0.402   0.427   0.435   0.448   0.456
  0.469   0.473   0.495   0.506   0.509   0.515   0.518   0.523
  0.526   0.529   0.542   0.551   0.567   0.574   0.585   0.588
  0.592   0.593   0.602   0.609   0.622   0.635   0.644   0.652
  0.667   0.674   0.683   0.696   0.699   0.710   0.736   0.758
  0.793   0.795   0.803   0.807   0.814   0.820   0.826   0.836
  0.844   0.847   0.859   0.868   0.877   0.879   0.892   0.906
  0.913   0.922   0.932   0.941   0.959   0.967   0.969   0.980
  1.007   1.024   1.033   1.053   1.073   1.077   1.095   1.108
  1.124   1.135   1.142   1.182   1.189   1.200   1.204   1.210
  1.216   1.219   1.220   1.295   1.312   1.334   1.344   1.374
  1.396   1.419   1.433   1.481   1.516   1.532   1.555   1.561
  1.658   1.683   1.713   1.729   1.753   1.771   1.779   1.794
  1.794   1.818   1.821   1.856   1.858   1.873   1.908   1.915
  1.933   1.944   1.976   2.003   2.011   2.037   2.050   2.067
  2.084   2.098   2.113   2.125   2.160   2.182   2.225   2.230
  2.258   2.292   2.303   2.305   2.324   2.330   2.350   2.366
  2.378   2.387   2.396   2.407   2.427   2.442   2.473   2.485
  2.521   2.545   2.565   2.573   2.583   2.655   2.718   2.732
  2.754   2.781   2.813   2.839   2.984   3.039   3.083   3.139
  3.142   3.174   3.269   3.273   3.525   3.597   3.607   3.800
  3.841   3.873   4.113   4.114   4.154   4.167   4.180   4.194
  4.234   4.320   4.405   4.493   4.559   4.592
 
 Beta MOs
 -- Occupied --
-89.077 -89.066 -89.065 -10.406 -10.405 -10.389 -10.389 -10.375
-10.374 -10.365 -10.364 -10.355 -10.355 -10.345 -10.344  -8.137
 -8.125  -8.124  -6.101  -6.097  -6.093  -6.089  -6.088  -6.085
 -6.084  -6.082  -6.081  -1.062  -1.038  -1.023  -0.939  -0.914
 -0.892  -0.890  -0.882  -0.831  -0.767  -0.745  -0.708  -0.704
 -0.687  -0.674  -0.672  -0.641  -0.605  -0.571  -0.566  -0.563
 -0.556  -0.548  -0.545  -0.537  -0.533  -0.521  -0.513  -0.508
 -0.495  -0.490  -0.436  -0.421  -0.402  -0.401  -0.378
 -- Virtual --
 -0.292  -0.215  -0.165  -0.155  -0.127  -0.122  -0.113  -0.104
 -0.101  -0.095  -0.092  -0.090  -0.081  -0.078  -0.075  -0.070
 -0.065  -0.063  -0.060  -0.059  -0.049  -0.043  -0.041  -0.038
 -0.032  -0.027  -0.021  -0.013  -0.010  -0.006  -0.003   0.004
  0.006   0.011   0.014   0.016   0.019   0.025   0.029   0.029
  0.031   0.034   0.036   0.043   0.045   0.047   0.049   0.052
  0.054   0.059   0.062   0.067   0.070   0.072   0.079   0.083
  0.085   0.087   0.092   0.097   0.100   0.102   0.110   0.116
  0.119   0.120   0.123   0.130   0.133   0.138   0.143   0.152
  0.156   0.161   0.164   0.173   0.176   0.183   0.186   0.193
  0.200   0.203   0.212   0.222   0.235   0.239   0.243   0.248
  0.252   0.257   0.267   0.272   0.283   0.309   0.325   0.344
  0.357   0.376   0.382   0.399   0.403   0.428   0.436   0.450
  0.457   0.470   0.474   0.497   0.511   0.514   0.517   0.522
  0.527   0.531   0.533   0.543   0.552   0.568   0.576   0.588
  0.590   0.593   0.594   0.605   0.615   0.624   0.640   0.645
  0.653   0.668   0.677   0.687   0.699   0.702   0.713   0.738
  0.759   0.795   0.798   0.804   0.809   0.816   0.824   0.829
  0.837   0.845   0.848   0.860   0.870   0.878   0.880   0.893
  0.907   0.915   0.923   0.933   0.942   0.960   0.967   0.970
  0.981   1.008   1.027   1.036   1.055   1.076   1.080   1.099
  1.111   1.128   1.138   1.147   1.184   1.192   1.203   1.207
  1.212   1.221   1.222   1.226   1.297   1.318   1.337   1.348
  1.378   1.402   1.423   1.437   1.485   1.523   1.537   1.565
  1.570   1.664   1.684   1.714   1.731   1.754   1.772   1.780
  1.795   1.799   1.821   1.825   1.859   1.862   1.876   1.914
  1.918   1.938   1.946   1.982   2.010   2.017   2.043   2.055
  2.073   2.089   2.102   2.118   2.132   2.163   2.187   2.228
  2.233   2.263   2.296   2.305   2.309   2.325   2.335   2.352
  2.369   2.382   2.389   2.399   2.410   2.430   2.445   2.475
  2.488   2.525   2.547   2.568   2.577   2.585   2.658   2.721
  2.735   2.757   2.782   2.815   2.841   2.984   3.040   3.084
  3.140   3.142   3.175   3.270   3.275   3.526   3.598   3.608
  3.800   3.841   3.873   4.117   4.117   4.156   4.171   4.182
  4.196   4.239   4.324   4.409   4.496   4.561   4.595
 --------------------------------------------------------------
 
          Ground-State Mulliken Net Atomic Charges

     Atom                 Charge (a.u.)    Spin (a.u.)
  --------------------------------------------------------
      1 H                     0.241190      -0.011507
      2 H                     0.162695       0.001724
      3 C                     0.045759       0.227534
      4 C                    -0.216898      -0.043303
      5 S                    -0.032374      -0.023945
      6 C                     0.492786       0.147539
      7 H                     0.147601      -0.009345
      8 C                    -0.160829       0.020386
      9 H                     0.139248      -0.005114
     10 C                    -0.088245       0.182399
     11 C                    -0.172643       0.053812
     12 S                    -0.354885      -0.062558
     13 C                     0.134270       0.045240
     14 H                     0.139639      -0.003860
     15 C                    -0.011525       0.183403
     16 C                    -0.193178       0.017419
     17 H                     0.134487      -0.009516
     18 C                     0.415485       0.152836
     19 S                     0.039323      -0.028432
     20 C                    -0.349236      -0.053231
     21 C                     0.086127       0.228004
     22 H                     0.160259       0.002312
     23 H                     0.240943      -0.011798
  --------------------------------------------------------
  Sum of atomic charges =     1.000000
  Sum of spin   charges =     1.000000

 -----------------------------------------------------------------
                    Cartesian Multipole Moments
 -----------------------------------------------------------------
    Charge (ESU x 10^10)
                 4.8032
    Dipole Moment (Debye)
         X      29.0395      Y      -1.4309      Z      -0.6718
       Tot      29.0824
    Quadrupole Moments (Debye-Ang)
        XX     157.7812     XY      -2.2444     YY     -86.2305
        XZ      -2.8738     YZ       3.6125     ZZ    -110.3885
    Octopole Moments (Debye-Ang^2)
       XXX     748.2550    XXY       8.6178    XYY    -521.4432
       YYY     128.5481    XXZ     -10.3353    XYZ      12.4812
       YYZ       8.9016    XZZ    -666.7314    YZZ      48.9844
       ZZZ      46.9299
    Hexadecapole Moments (Debye-Ang^3)
      XXXX   -1412.8359   XXXY     121.0972   XXYY   -4195.1550
      XYYY     796.4491   YYYY    -904.9899   XXXZ     -47.4289
      XXYZ      36.7170   XYYZ      63.7492   YYYZ     -43.8536
      XXZZ   -5283.6959   XYZZ     278.7928   YYZZ    -204.7316
      XZZZ     242.1069   YZZZ     -76.0376   ZZZZ    -172.6378
 -----------------------------------------------------------------
 Calculating analytic gradient of the SCF energy
 Gradient of SCF Energy
            1           2           3           4           5           6
    1  -0.0002592   0.0000304   0.0025527  -0.0002269   0.0035751   0.0018414
    2   0.0007059  -0.0004229  -0.0009052  -0.0016764   0.0003501  -0.0031212
    3  -0.0000543  -0.0000527  -0.0002132  -0.0000425   0.0005904   0.0002888
            7           8           9          10          11          12
    1   0.0004454  -0.0077701  -0.0005612   0.0118845  -0.0027584  -0.0009464
    2  -0.0002909   0.0159809   0.0013602  -0.0174746   0.0028318   0.0019565
    3  -0.0007518   0.0022798   0.0000851  -0.0039104   0.0003265  -0.0001837
           13          14          15          16          17          18
    1   0.0013231   0.0000303  -0.0066727   0.0031425  -0.0003925  -0.0020273
    2   0.0012640   0.0010032  -0.0006426  -0.0054515   0.0012097   0.0022344
    3   0.0006328   0.0005101   0.0020768  -0.0024116  -0.0003188  -0.0002879
           19          20          21          22          23
    1  -0.0017527  -0.0003796  -0.0012639   0.0000303   0.0001551
    2   0.0011388   0.0009979  -0.0011123   0.0005319  -0.0004676
    3   0.0009389   0.0002951   0.0004293   0.0001088  -0.0003353
 Max gradient component =       1.747E-02
 RMS gradient           =       3.739E-03
 Gradient time:  CPU 4.23 s  wall 4.23 s
 Geometry Optimization Parameters
   NAtoms,    NIC,     NZ,  NCons,   NDum,   NFix, NCnnct, MaxDiis
       23     166       0       1       0       0       0       0

 Cartesian Hessian Update
 Hessian Updated using BFGS Update


** CONSTRAINED OPTIMIZATION IN DELOCALIZED INTERNAL COORDINATES **
   Searching for a Minimum

   Optimization Cycle:   3

                       Coordinates (Angstroms)
     ATOM                X               Y               Z
      1  H        -0.0954774993   -0.5230167066   -0.0961757575
      2  H         0.9762260991   -2.8746774649   -0.6619844245
      3  C         0.9607309404   -0.7493456690   -0.1792411927
      4  C         1.5453580917   -1.9718495097   -0.4750913802
      5  S         2.1053840578    0.5126437299    0.0688839839
      6  C         2.9446179714   -1.8906520972   -0.5048175168
      7  H         3.5967990293   -2.7277050448   -0.7316339965
      8  C         3.4262728059   -0.5951360487   -0.2306270194
      9  H         4.5392177546    1.9402019435    0.2612595776
     10  C         4.7864426153   -0.2126108562   -0.1580429924
     11  C         5.2246988331    1.1126443166    0.1087637095
     12  S         6.1302226120   -1.2975682591   -0.3511853760
     13  C         6.5988187469    1.2321699226    0.1610093165
     14  H         7.1201653428    2.1575632934    0.3760456794
     15  C         7.2644772309    0.0039688039   -0.0643634068
     16  C         8.6688452901   -0.1856760282   -0.1039223776
     17  H         9.3675957790    1.8969946887   -0.1568129947
     18  C         9.6261397795    0.8442837619   -0.1232181199
     19  S         9.4416935452   -1.7572779256   -0.0855323251
     20  C        10.9430178515    0.3606358582   -0.1293663538
     21  C        10.9993698148   -1.0255208392   -0.1112266440
     22  H        11.8240385116    0.9911305782   -0.1509284226
     23  H        11.8822247964   -1.6529763976   -0.1132827065
   Point Group: c1    Number of degrees of freedom:    63


   Energy is  -1656.415313371

              Constraints and their Current Values
                                        Value     Constraint
   Dihedral:       13  15  16  18      -10.000      -10.000
 Hessian Updated using BFGS Update

 62 Hessian modes will be used to form the next step
  Hessian Eigenvalues:
     0.044351    0.045000    0.045000    0.045000    0.045000    0.045001
     0.045001    0.045001    0.045002    0.045002    0.045004    0.045008
     0.045011    0.045012    0.045012    0.045028    0.045033    0.045055
     0.045059    0.153917    0.159951    0.159954    0.159992    0.159995
     0.160000    0.160070    0.160237    0.176497    0.221349    0.222579
     0.229758    0.238047    0.240437    0.249519    0.249695    0.271262
     0.284671    0.322360    0.326439    0.327753    0.338944    0.340117
     0.341739    0.365511    0.365628    0.366069    0.366889    0.367207
     0.368166    0.370100    0.370902    0.399897    0.426443    0.435417
     0.435547    0.450486    0.462948    0.463823    0.479492    0.495500
     0.497939    0.564878

 Minimum Search - Taking Simple RFO Step
 Searching for Lamda that Minimizes Along All modes
 Value Taken    Lamda =  -0.00282067
 Step Taken.  Stepsize is  0.138782

                             Maximum     Tolerance    Cnvgd?
         Gradient           0.014471      0.000300      NO
         Displacement       0.055863      0.001200      NO
         Energy change     -0.012057      0.000001      NO


 New Cartesian Coordinates Obtained by Inverse Iteration

 Displacement from previous Coordinates is:  0.448056
 ----------------------------------------------------------------
             Standard Nuclear Orientation (Angstroms)
    I     Atom           X                Y                Z
 ----------------------------------------------------------------
    1      H      -0.1250558372    -0.5815108212    -0.1401922742
    2      H       0.9998725282    -2.9108824246    -0.6694283195
    3      C       0.9365135079    -0.7871098956    -0.2053884408
    4      C       1.5521064195    -1.9982021822    -0.4815493420
    5      S       2.0630269725     0.4878239447     0.0465858316
    6      C       2.9518756155    -1.9008203482    -0.4883650259
    7      H       3.6141712385    -2.7347250961    -0.6935904940
    8      C       3.4192763483    -0.6016517827    -0.2168626622
    9      H       4.5340539545     1.9922356844     0.2791102542
   10      C       4.7568975514    -0.1550913195    -0.1285909016
   11      C       5.2154592009     1.1624199549     0.1265724237
   12      S       6.1122177605    -1.2455245633    -0.3252810758
   13      C       6.5933473716     1.2727460493     0.1643329329
   14      H       7.1205307238     2.1968635002     0.3680643165
   15      C       7.2695859282     0.0475698280    -0.0597520518
   16      C       8.6709495310    -0.1571567104    -0.0965764518
   17      H       9.4285764713     1.9007845035    -0.1311482296
   18      C       9.6605699115     0.8423908792    -0.1128778991
   19      S       9.4174691582    -1.7498390147    -0.1062989058
   20      C      10.9664423903     0.3288428224    -0.1375706429
   21      C      10.9935436348    -1.0562932854    -0.1349526110
   22      H      11.8625472033     0.9372664042    -0.1597666525
   23      H      11.8629024153    -1.7019120770    -0.1479645186
 ----------------------------------------------------------------
 Nuclear Repulsion Energy =  1180.3667362780 hartrees
 There are       64 alpha and       63 beta electrons
 Applying Cartesian multipole field
    Component          Value
    ---------          -----
     (2,0,0)        1.00000E-12
     (0,2,0)        2.00000E-11
     (0,0,2)       -3.00000E-11
 Nucleus-field energy     =     0.0000000344 hartrees
 Requested basis set is 6-31++G(d,p)
 There are 110 shells and 345 basis functions
 A cutoff of  1.0D-12 yielded   4682 shell pairs
 There are     47727 function pairs

 Q-Chem warning in module /project/projectdirs/jcesr/qchem/qc44/cnl_qc441/compile/cori/qc_src/libqints/qchem/aobasis.C, line 68:

 Using reconstructed effective core potential

 Smallest overlap matrix eigenvalue = 4.31E-08
 Linear dependence detected in AO basis
 Number of orthogonalized atomic orbitals = 342
 Maximum deviation from orthogonality = 7.516E-11
 Guess MOs from SCF MO coefficient file
 Reading MOs from coefficient file
 Reading MOs from coefficient file
 An unrestricted hybrid HF-DFT SCF calculation will be
 performed using Pulay DIIS extrapolation
 Exchange:     0.2000 Hartree-Fock + 0.0800 Slater + 0.7200 B88
 Correlation:  0.1900 VWN1RPA + 0.8100 LYP
 Using SG-1 standard quadrature grid
 SCF converges when DIIS error is below 1.0E-08
 Geometry optimization detected.  Setting ReadMinima to 0
 Setting SaveMinima to 0
 ---------------------------------------
  Cycle       Energy         DIIS Error
 ---------------------------------------
    1   -1656.3761610039      1.36E-03
    2   -1656.4151753632      2.85E-04
    3   -1656.4114968623      5.37E-04
    4   -1656.4166561997      9.21E-05
    5   -1656.4167860525      2.88E-05
    6   -1656.4168001508      9.71E-06
    7   -1656.4168016930      3.63E-06
    8   -1656.4168019288      1.46E-06
    9   -1656.4168019919      6.48E-07
   10   -1656.4168020139      2.36E-07
   11   -1656.4168020262      1.32E-07
   12   -1656.4168020317      8.38E-08
   13   -1656.4168020344      3.48E-08
   14   -1656.4168020339      1.17E-08
   15   -1656.4168020346      6.14E-09 Convergence criterion met
 ---------------------------------------
 <S^2> = 0.7707
 SCF time:  CPU 20.62 s  wall 19.18 s
 SCF   energy in the final basis set = -1656.4168020346
 Total energy in the final basis set = -1656.4168020346
 
 --------------------------------------------------------------
 
                    Orbital Energies (a.u.)
 --------------------------------------------------------------
 
 Alpha MOs
 -- Occupied --
-89.074 -89.065 -89.064 -10.410 -10.409 -10.391 -10.390 -10.378
-10.378 -10.367 -10.366 -10.358 -10.358 -10.345 -10.344  -8.134
 -8.124  -8.124  -6.098  -6.094  -6.090  -6.088  -6.088  -6.084
 -6.084  -6.081  -6.081  -1.064  -1.041  -1.026  -0.945  -0.914
 -0.893  -0.892  -0.883  -0.841  -0.772  -0.749  -0.710  -0.707
 -0.688  -0.676  -0.673  -0.643  -0.608  -0.572  -0.571  -0.570
 -0.561  -0.550  -0.548  -0.544  -0.535  -0.520  -0.519  -0.511
 -0.494  -0.488  -0.456  -0.422  -0.407  -0.404  -0.395  -0.346
 -- Virtual --
 -0.232  -0.177  -0.156  -0.132  -0.127  -0.113  -0.112  -0.103
 -0.097  -0.092  -0.091  -0.082  -0.081  -0.079  -0.071  -0.067
 -0.065  -0.063  -0.061  -0.051  -0.045  -0.042  -0.039  -0.032
 -0.029  -0.022  -0.014  -0.011  -0.007  -0.004   0.002   0.006
  0.011   0.012   0.015   0.018   0.024   0.028   0.029   0.030
  0.033   0.036   0.042   0.044   0.047   0.048   0.050   0.054
  0.057   0.061   0.066   0.068   0.071   0.078   0.081   0.084
  0.085   0.091   0.095   0.098   0.101   0.108   0.113   0.118
  0.120   0.123   0.128   0.133   0.136   0.139   0.151   0.156
  0.160   0.164   0.172   0.176   0.183   0.187   0.192   0.198
  0.203   0.210   0.222   0.232   0.240   0.243   0.248   0.255
  0.256   0.267   0.273   0.284   0.308   0.324   0.343   0.359
  0.376   0.383   0.396   0.403   0.425   0.436   0.449   0.457
  0.470   0.471   0.494   0.507   0.509   0.514   0.517   0.521
  0.526   0.527   0.542   0.550   0.566   0.573   0.584   0.587
  0.590   0.592   0.600   0.609   0.622   0.633   0.642   0.651
  0.667   0.673   0.683   0.695   0.698   0.709   0.738   0.756
  0.792   0.795   0.802   0.807   0.816   0.820   0.827   0.835
  0.844   0.848   0.859   0.867   0.878   0.879   0.893   0.904
  0.913   0.922   0.935   0.940   0.958   0.966   0.972   0.981
  1.007   1.023   1.032   1.051   1.070   1.076   1.093   1.106
  1.121   1.134   1.139   1.182   1.189   1.199   1.201   1.208
  1.214   1.218   1.222   1.307   1.322   1.343   1.345   1.375
  1.397   1.419   1.436   1.476   1.521   1.531   1.555   1.563
  1.653   1.680   1.710   1.723   1.749   1.772   1.777   1.778
  1.792   1.813   1.819   1.853   1.853   1.871   1.902   1.918
  1.928   1.942   1.974   2.000   2.009   2.034   2.046   2.062
  2.082   2.091   2.114   2.123   2.156   2.186   2.225   2.230
  2.260   2.290   2.294   2.308   2.324   2.333   2.345   2.362
  2.380   2.389   2.396   2.407   2.427   2.443   2.468   2.490
  2.521   2.546   2.565   2.574   2.585   2.650   2.715   2.730
  2.766   2.792   2.815   2.843   2.983   3.041   3.085   3.142
  3.143   3.174   3.270   3.274   3.522   3.595   3.606   3.800
  3.840   3.873   4.112   4.117   4.151   4.172   4.179   4.193
  4.235   4.323   4.403   4.492   4.558   4.592
 
 Beta MOs
 -- Occupied --
-89.075 -89.065 -89.064 -10.408 -10.407 -10.390 -10.390 -10.375
-10.375 -10.366 -10.365 -10.356 -10.356 -10.345 -10.344  -8.134
 -8.124  -8.124  -6.098  -6.095  -6.091  -6.088  -6.088  -6.084
 -6.084  -6.081  -6.081  -1.060  -1.038  -1.022  -0.939  -0.912
 -0.891  -0.890  -0.881  -0.833  -0.768  -0.746  -0.708  -0.705
 -0.686  -0.674  -0.672  -0.641  -0.607  -0.570  -0.569  -0.562
 -0.559  -0.549  -0.546  -0.536  -0.533  -0.519  -0.510  -0.508
 -0.493  -0.487  -0.437  -0.419  -0.402  -0.400  -0.379
 -- Virtual --
 -0.293  -0.216  -0.166  -0.154  -0.126  -0.122  -0.112  -0.103
 -0.101  -0.096  -0.092  -0.090  -0.081  -0.078  -0.073  -0.070
 -0.065  -0.063  -0.060  -0.059  -0.050  -0.043  -0.042  -0.038
 -0.031  -0.028  -0.021  -0.014  -0.011  -0.006  -0.003   0.004
  0.006   0.011   0.013   0.016   0.018   0.025   0.028   0.029
  0.031   0.034   0.037   0.043   0.045   0.047   0.048   0.052
  0.054   0.059   0.061   0.066   0.069   0.072   0.079   0.082
  0.085   0.086   0.092   0.096   0.100   0.101   0.109   0.114
  0.119   0.121   0.124   0.129   0.134   0.137   0.140   0.151
  0.157   0.161   0.165   0.173   0.177   0.185   0.188   0.193
  0.199   0.205   0.212   0.223   0.234   0.241   0.244   0.249
  0.255   0.257   0.268   0.274   0.285   0.309   0.326   0.344
  0.359   0.377   0.383   0.398   0.404   0.426   0.437   0.451
  0.458   0.471   0.472   0.496   0.513   0.515   0.516   0.520
  0.526   0.529   0.532   0.543   0.551   0.568   0.575   0.587
  0.589   0.592   0.592   0.603   0.615   0.623   0.639   0.644
  0.652   0.669   0.676   0.688   0.698   0.701   0.713   0.739
  0.757   0.794   0.798   0.803   0.809   0.817   0.824   0.829
  0.836   0.845   0.849   0.860   0.868   0.878   0.880   0.894
  0.905   0.915   0.923   0.936   0.941   0.960   0.966   0.973
  0.982   1.008   1.026   1.035   1.054   1.074   1.079   1.096
  1.109   1.124   1.139   1.143   1.185   1.192   1.203   1.205
  1.210   1.221   1.223   1.225   1.309   1.328   1.345   1.349
  1.379   1.403   1.423   1.440   1.481   1.527   1.537   1.564
  1.571   1.658   1.681   1.711   1.726   1.751   1.773   1.779
  1.783   1.794   1.816   1.824   1.857   1.857   1.873   1.908
  1.920   1.933   1.943   1.980   2.006   2.015   2.040   2.050
  2.068   2.087   2.095   2.120   2.129   2.159   2.191   2.228
  2.232   2.264   2.291   2.298   2.313   2.325   2.337   2.347
  2.365   2.384   2.391   2.400   2.411   2.429   2.446   2.470
  2.493   2.524   2.547   2.568   2.578   2.586   2.653   2.718
  2.733   2.768   2.794   2.818   2.845   2.984   3.042   3.086
  3.142   3.143   3.174   3.271   3.275   3.523   3.597   3.607
  3.800   3.840   3.873   4.115   4.121   4.154   4.175   4.182
  4.195   4.240   4.327   4.407   4.495   4.561   4.595
 --------------------------------------------------------------
 
          Ground-State Mulliken Net Atomic Charges

     Atom                 Charge (a.u.)    Spin (a.u.)
  --------------------------------------------------------
      1 H                     0.242386      -0.011266
      2 H                     0.162938       0.001502
      3 C                     0.062617       0.222452
      4 C                    -0.218099      -0.039179
      5 S                    -0.037289      -0.020966
      6 C                     0.540975       0.141454
      7 H                     0.150355      -0.008985
      8 C                    -0.229779       0.022472
      9 H                     0.145438      -0.004805
     10 C                    -0.099796       0.183657
     11 C                    -0.105821       0.050172
     12 S                    -0.440670      -0.064587
     13 C                     0.165811       0.053784
     14 H                     0.142492      -0.004510
     15 C                    -0.005963       0.179803
     16 C                    -0.183372       0.019263
     17 H                     0.134475      -0.009505
     18 C                     0.381226       0.151598
     19 S                     0.044729      -0.028077
     20 C                    -0.346999      -0.051362
     21 C                     0.090780       0.226578
     22 H                     0.160834       0.002220
     23 H                     0.242731      -0.011713
  --------------------------------------------------------
  Sum of atomic charges =     1.000000
  Sum of spin   charges =     1.000000

 -----------------------------------------------------------------
                    Cartesian Multipole Moments
 -----------------------------------------------------------------
    Charge (ESU x 10^10)
                 4.8032
    Dipole Moment (Debye)
         X      29.0782      Y      -1.3969      Z      -0.6890
       Tot      29.1198
    Quadrupole Moments (Debye-Ang)
        XX     159.3348     XY      -1.8009     YY     -86.1833
        XZ      -2.9511     YZ       3.6256     ZZ    -110.5040
    Octopole Moments (Debye-Ang^2)
       XXX     775.0939    XXY       9.0040    XYY    -520.2484
       YYY     126.4545    XXZ     -13.3334    XYZ      13.1592
       YYZ       9.0814    XZZ    -666.2409    YZZ      48.3956
       ZZZ      47.1074
    Hexadecapole Moments (Debye-Ang^3)
      XXXX   -1056.7614   XXXY      86.1712   XXYY   -4185.0887
      XYYY     775.7636   YYYY    -904.8796   XXXZ     -93.9861
      XXYZ      46.9638   XYYZ      64.1072   YYYZ     -43.8435
      XXZZ   -5279.3356   XYZZ     272.2545   YYZZ    -205.6600
      XZZZ     243.4331   YZZZ     -76.8137   ZZZZ    -171.3645
 -----------------------------------------------------------------
 Calculating analytic gradient of the SCF energy
 Gradient of SCF Energy
            1           2           3           4           5           6
    1  -0.0004045  -0.0002882  -0.0012579  -0.0004652   0.0021776   0.0003087
    2   0.0003688   0.0001613  -0.0011598   0.0002965  -0.0013704  -0.0015057
    3  -0.0000334   0.0000885   0.0000400   0.0000771  -0.0001427   0.0002751
            7           8           9          10          11          12
    1   0.0003274   0.0012620  -0.0009772  -0.0006502   0.0005440  -0.0022115
    2   0.0001592   0.0041445  -0.0000353  -0.0044330   0.0019950   0.0018829
    3  -0.0004309   0.0002067  -0.0002244  -0.0010029   0.0002609  -0.0000522
           13          14          15          16          17          18
    1  -0.0007314   0.0004751   0.0022153  -0.0011918  -0.0003441  -0.0001769
    2   0.0001081  -0.0001116   0.0002279  -0.0016285   0.0002496   0.0002982
    3   0.0003995   0.0003274   0.0011935  -0.0013442  -0.0003206  -0.0001495
           19          20          21          22          23
    1  -0.0006403   0.0001414   0.0013853   0.0002372   0.0002652
    2   0.0010910  -0.0003187  -0.0002162  -0.0000718  -0.0001321
    3   0.0006053  -0.0000045   0.0004008   0.0000349  -0.0002045
 Max gradient component =       4.433E-03
 RMS gradient           =       1.109E-03
 Gradient time:  CPU 4.18 s  wall 4.18 s
 Geometry Optimization Parameters
   NAtoms,    NIC,     NZ,  NCons,   NDum,   NFix, NCnnct, MaxDiis
       23     166       0       1       0       0       0       0

 Cartesian Hessian Update
 Hessian Updated using BFGS Update


** CONSTRAINED OPTIMIZATION IN DELOCALIZED INTERNAL COORDINATES **
   Searching for a Minimum

   Optimization Cycle:   4

                       Coordinates (Angstroms)
     ATOM                X               Y               Z
      1  H        -0.1250558372   -0.5815108212   -0.1401922742
      2  H         0.9998725282   -2.9108824246   -0.6694283195
      3  C         0.9365135079   -0.7871098956   -0.2053884408
      4  C         1.5521064195   -1.9982021822   -0.4815493420
      5  S         2.0630269725    0.4878239447    0.0465858316
      6  C         2.9518756155   -1.9008203482   -0.4883650259
      7  H         3.6141712385   -2.7347250961   -0.6935904940
      8  C         3.4192763483   -0.6016517827   -0.2168626622
      9  H         4.5340539545    1.9922356844    0.2791102542
     10  C         4.7568975514   -0.1550913195   -0.1285909016
     11  C         5.2154592009    1.1624199549    0.1265724237
     12  S         6.1122177605   -1.2455245633   -0.3252810758
     13  C         6.5933473716    1.2727460493    0.1643329329
     14  H         7.1205307238    2.1968635002    0.3680643165
     15  C         7.2695859282    0.0475698280   -0.0597520518
     16  C         8.6709495310   -0.1571567104   -0.0965764518
     17  H         9.4285764713    1.9007845035   -0.1311482296
     18  C         9.6605699115    0.8423908792   -0.1128778991
     19  S         9.4174691582   -1.7498390147   -0.1062989058
     20  C        10.9664423903    0.3288428224   -0.1375706429
     21  C        10.9935436348   -1.0562932854   -0.1349526110
     22  H        11.8625472033    0.9372664042   -0.1597666525
     23  H        11.8629024153   -1.7019120770   -0.1479645186
   Point Group: c1    Number of degrees of freedom:    63


   Energy is  -1656.416802035

              Constraints and their Current Values
                                        Value     Constraint
   Dihedral:       13  15  16  18      -10.000      -10.000
 Hessian Updated using BFGS Update

 62 Hessian modes will be used to form the next step
  Hessian Eigenvalues:
     0.039792    0.045000    0.045000    0.045000    0.045000    0.045001
     0.045001    0.045001    0.045002    0.045003    0.045004    0.045011
     0.045011    0.045012    0.045017    0.045030    0.045042    0.045059
     0.045088    0.156244    0.159953    0.159966    0.159993    0.160000
     0.160010    0.160209    0.163319    0.169204    0.221506    0.222638
     0.229466    0.238051    0.241374    0.249684    0.250112    0.277682
     0.293835    0.322152    0.326420    0.327320    0.339914    0.340693
     0.340822    0.365511    0.365623    0.366110    0.366892    0.367210
     0.367726    0.370110    0.370430    0.400493    0.421984    0.435421
     0.435506    0.452707    0.462825    0.463764    0.479819    0.495501
     0.499438    0.569737

 Minimum Search - Taking Simple RFO Step
 Searching for Lamda that Minimizes Along All modes
 Value Taken    Lamda =  -0.00023061
 Step Taken.  Stepsize is  0.057456

                             Maximum     Tolerance    Cnvgd?
         Gradient           0.001927      0.000300      NO
         Displacement       0.024477      0.001200      NO
         Energy change     -0.001489      0.000001      NO


 New Cartesian Coordinates Obtained by Inverse Iteration

 Displacement from previous Coordinates is:  0.128736
 ----------------------------------------------------------------
             Standard Nuclear Orientation (Angstroms)
    I     Atom           X                Y                Z
 ----------------------------------------------------------------
    1      H      -0.1250312893    -0.5841911732    -0.1665081797
    2      H       1.0058241377    -2.9155276331    -0.6671783192
    3      C       0.9370445921    -0.7867576529    -0.2205097194
    4      C       1.5546477323    -2.0004096517    -0.4811921066
    5      S       2.0572569223     0.4911552079     0.0336962546
    6      C       2.9528069673    -1.9037224449    -0.4749433788
    7      H       3.6145682111    -2.7413736353    -0.6645812594
[...]
      2 H                     0.162758       0.001454
      3 C                     0.057786       0.220498
      4 C                    -0.213795      -0.037301
      5 S                    -0.025689      -0.019089
      6 C                     0.539600       0.138386
      7 H                     0.150382      -0.008882
      8 C                    -0.226629       0.023228
      9 H                     0.143485      -0.004703
     10 C                    -0.084449       0.187243
     11 C                    -0.139571       0.045541
     12 S                    -0.469844      -0.064776
     13 C                     0.171860       0.057161
     14 H                     0.140208      -0.004716
     15 C                     0.057263       0.177467
     16 C                    -0.165087       0.019251
     17 H                     0.128740      -0.009676
     18 C                     0.337586       0.150594
     19 S                     0.061422      -0.027595
     20 C                    -0.351176      -0.050805
     21 C                     0.078363       0.227561
     22 H                     0.161116       0.002251
     23 H                     0.243740      -0.011829
  --------------------------------------------------------
  Sum of atomic charges =     1.000000
  Sum of spin   charges =     1.000000

 -----------------------------------------------------------------
                    Cartesian Multipole Moments
 -----------------------------------------------------------------
    Charge (ESU x 10^10)
                 4.8032
    Dipole Moment (Debye)
         X      29.1174      Y      -1.3818      Z      -0.7188
       Tot      29.1590
    Quadrupole Moments (Debye-Ang)
        XX     159.7300     XY      -1.7321     YY     -85.9809
        XZ      -3.0735     YZ       3.7040     ZZ    -110.6200
    Octopole Moments (Debye-Ang^2)
       XXX     778.7606    XXY      10.0091    XYY    -519.3306
       YYY     125.6212    XXZ     -16.0668    XYZ      16.2934
       YYZ      10.9959    XZZ    -666.3746    YZZ      48.5246
       ZZZ      51.4854
    Hexadecapole Moments (Debye-Ang^3)
      XXXX   -1027.8373   XXXY      99.6367   XXYY   -4180.8842
      XYYY     773.7813   YYYY    -904.8698   XXXZ    -126.9661
      XXYZ      87.4284   XYYZ      72.2340   YYYZ     -47.5497
      XXZZ   -5276.4605   XYZZ     271.5591   YYZZ    -207.2672
      XZZZ     270.6417   YZZZ     -80.4384   ZZZZ    -170.2054
 -----------------------------------------------------------------
 Calculating analytic gradient of the SCF energy
 Gradient of SCF Energy
            1           2           3           4           5           6
    1  -0.0000011  -0.0000062  -0.0000379   0.0000209   0.0000703  -0.0000179
    2   0.0000106   0.0000048  -0.0000388   0.0000178  -0.0000309  -0.0000503
    3   0.0000106  -0.0000071  -0.0000315   0.0000176   0.0000166  -0.0000930
            7           8           9          10          11          12
    1   0.0000086   0.0000026  -0.0000308   0.0000016   0.0000509  -0.0000403
    2   0.0000010   0.0001160  -0.0000134  -0.0001229   0.0000795   0.0000519
    3   0.0000315   0.0000988  -0.0000002  -0.0000356  -0.0000521   0.0000700
           13          14          15          16          17          18
    1  -0.0000777   0.0000138   0.0000700  -0.0000223  -0.0000089  -0.0000034
    2  -0.0001889   0.0000009   0.0003246  -0.0002277   0.0000032   0.0000369
    3   0.0010711  -0.0000334  -0.0023922   0.0024048   0.0000024  -0.0010812
           19          20          21          22          23
    1  -0.0000293  -0.0000068   0.0000366   0.0000039   0.0000034
    2   0.0000332  -0.0000034  -0.0000001  -0.0000043   0.0000002
    3  -0.0000061  -0.0000043  -0.0000037   0.0000021   0.0000149
 Max gradient component =       2.405E-03
 RMS gradient           =       4.523E-04
 Gradient time:  CPU 4.18 s  wall 4.19 s
 Geometry Optimization Parameters
   NAtoms,    NIC,     NZ,  NCons,   NDum,   NFix, NCnnct, MaxDiis
       23     166       0       1       0       0       0       0

 Cartesian Hessian Update
 Hessian Updated using BFGS Update


** CONSTRAINED OPTIMIZATION IN DELOCALIZED INTERNAL COORDINATES **
   Searching for a Minimum

   Optimization Cycle:  10

                       Coordinates (Angstroms)
     ATOM                X               Y               Z
      1  H        -0.1253469602   -0.5702228746   -0.2229405441
      2  H         1.0027217045   -2.9198927125   -0.6320973189
      3  C         0.9368894812   -0.7775360692   -0.2528473296
      4  C         1.5523361122   -2.0016123564   -0.4652559015
      5  S         2.0579433350    0.5026001835   -0.0177395718
      6  C         2.9512604477   -1.9101749409   -0.4381527180
      7  H         3.6117464370   -2.7580880730   -0.5817891576
      8  C         3.4180433002   -0.6066255062   -0.2033706296
      9  H         4.5427219420    1.9944003102    0.2848084263
     10  C         4.7561730140   -0.1552952460   -0.1144976091
     11  C         5.2165087439    1.1601885094    0.1271592727
     12  S         6.1156376408   -1.2511618885   -0.3141712705
     13  C         6.5942067324    1.2729036373    0.1508495975
     14  H         7.1174699485    2.2029759947    0.3347519072
     15  C         7.2689739030    0.0485550744   -0.0748047849
     16  C         8.6715711360   -0.1540393198   -0.0843725035
     17  H         9.4359785948    1.9017183109   -0.0247202441
     18  C         9.6626221379    0.8433440672   -0.0672420574
     19  S         9.4146286491   -1.7474729003   -0.1832197527
     20  C        10.9662263510    0.3296274319   -0.1247404772
     21  C        10.9887738142   -1.0540282849   -0.1904774363
     22  H        11.8627975181    0.9372925485   -0.1218782998
     23  H        11.8569960165   -1.6992318458   -0.2347423371
   Point Group: c1    Number of degrees of freedom:    63


   Energy is  -1656.417063798

              Constraints and their Current Values
                                        Value     Constraint
   Dihedral:       13  15  16  18      -10.000      -10.000
 Hessian Updated using BFGS Update

 62 Hessian modes will be used to form the next step
  Hessian Eigenvalues:
     0.008453    0.015546    0.044950    0.045000    0.045000    0.045001
     0.045001    0.045001    0.045002    0.045004    0.045008    0.045009
     0.045012    0.045012    0.045024    0.045029    0.045052    0.045059
     0.046263    0.156640    0.159910    0.159990    0.160003    0.160087
     0.160162    0.160494    0.164766    0.170035    0.222379    0.223266
     0.229546    0.239134    0.247503    0.249452    0.250721    0.279735
     0.294229    0.324240    0.325552    0.326685    0.338908    0.340372
     0.341263    0.365519    0.365670    0.366143    0.366931    0.367252
     0.368444    0.370165    0.372022    0.402033    0.431228    0.436197
     0.440988    0.462984    0.464125    0.473967    0.491421    0.496845
     0.504124    0.575595

 Minimum Search - Taking Simple RFO Step
 Searching for Lamda that Minimizes Along All modes
 Value Taken    Lamda =   0.00000000
 Step Taken.  Stepsize is  0.007863

                             Maximum     Tolerance    Cnvgd?
         Gradient           0.000080      0.000300     YES
         Displacement       0.004745      0.001200      NO
         Energy change     -0.000001      0.000001     YES

 Final energy is   -1656.41706379772     


 ******************************
 **  OPTIMIZATION CONVERGED  **
 ******************************

                       Coordinates (Angstroms)
     ATOM                X               Y               Z
      1  H        -0.1253469602   -0.5702228746   -0.2229405441
      2  H         1.0027217045   -2.9198927125   -0.6320973189
      3  C         0.9368894812   -0.7775360692   -0.2528473296
      4  C         1.5523361122   -2.0016123564   -0.4652559015
      5  S         2.0579433350    0.5026001835   -0.0177395718
      6  C         2.9512604477   -1.9101749409   -0.4381527180
      7  H         3.6117464370   -2.7580880730   -0.5817891576
      8  C         3.4180433002   -0.6066255062   -0.2033706296
      9  H         4.5427219420    1.9944003102    0.2848084263
     10  C         4.7561730140   -0.1552952460   -0.1144976091
     11  C         5.2165087439    1.1601885094    0.1271592727
     12  S         6.1156376408   -1.2511618885   -0.3141712705
     13  C         6.5942067324    1.2729036373    0.1508495975
     14  H         7.1174699485    2.2029759947    0.3347519072
     15  C         7.2689739030    0.0485550744   -0.0748047849
     16  C         8.6715711360   -0.1540393198   -0.0843725035
     17  H         9.4359785948    1.9017183109   -0.0247202441
     18  C         9.6626221379    0.8433440672   -0.0672420574
     19  S         9.4146286491   -1.7474729003   -0.1832197527
     20  C        10.9662263510    0.3296274319   -0.1247404772
     21  C        10.9887738142   -1.0540282849   -0.1904774363
     22  H        11.8627975181    0.9372925485   -0.1218782998
     23  H        11.8569960165   -1.6992318458   -0.2347423371

Z-matrix Print:
$molecule
1 2
S 
C  1 1.754065
C  2 1.416072 1 110.431385
H  3 1.082894 2 122.642994 1 179.222371 0
C  3 1.382504 2 113.679979 1 -0.135914 0
H  5 1.083859 3 123.659129 2 179.729440 0
C  5 1.414498 3 113.769606 2 0.139045 0
C  7 1.414987 5 127.961469 3 -179.831722 0
C  8 1.404368 7 128.381286 5 -179.757490 0
H  9 1.084357 8 123.059252 7 0.177909 0
C  9 1.402171 8 113.289106 7 -179.919945 0
H  11 1.083121 9 124.369314 8 -179.983053 0
C  11 1.386454 9 112.478491 8 -0.006296 0
H  13 1.082691 11 127.502745 9 -179.909187 0
C  2 1.417186 1 122.949922 3 178.678177 0
C  15 1.406147 2 126.588450 1 171.543026 0
H  16 1.083204 15 123.096673 2 1.230501 0
C  16 1.402353 15 113.255680 2 -178.141724 0
H  18 1.083100 16 124.323223 15 -179.982038 0
C  18 1.385400 16 112.515790 15 0.200141 0
H  20 1.082616 18 127.604626 16 -179.446187 0
S  13 1.717785 11 112.905880 9 0.026810 0
S  20 1.720131 18 112.801094 16 0.010954 0
$end

 
 --------------------------------------------------------------
 
                    Orbital Energies (a.u.)
 --------------------------------------------------------------
 
 Alpha MOs
 -- Occupied --
-89.074 -89.065 -89.065 -10.410 -10.409 -10.391 -10.390 -10.378
-10.378 -10.367 -10.365 -10.358 -10.357 -10.344 -10.344  -8.133
 -8.124  -8.124  -6.098  -6.094  -6.090  -6.088  -6.088  -6.084
 -6.084  -6.081  -6.081  -1.064  -1.041  -1.026  -0.944  -0.914
 -0.894  -0.892  -0.883  -0.841  -0.772  -0.749  -0.711  -0.707
 -0.689  -0.677  -0.674  -0.643  -0.608  -0.572  -0.571  -0.570
 -0.561  -0.550  -0.547  -0.545  -0.535  -0.521  -0.519  -0.512
 -0.494  -0.488  -0.456  -0.422  -0.407  -0.404  -0.395  -0.345
 -- Virtual --
 -0.232  -0.177  -0.157  -0.132  -0.127  -0.113  -0.111  -0.103
 -0.097  -0.092  -0.091  -0.082  -0.081  -0.079  -0.071  -0.067
 -0.064  -0.063  -0.061  -0.050  -0.045  -0.042  -0.039  -0.032
 -0.029  -0.022  -0.014  -0.011  -0.008  -0.003   0.002   0.005
  0.011   0.012   0.016   0.018   0.024   0.027   0.028   0.030
  0.033   0.036   0.042   0.045   0.047   0.048   0.050   0.054
  0.057   0.060   0.066   0.066   0.071   0.078   0.083   0.085
  0.087   0.091   0.094   0.098   0.099   0.108   0.112   0.118
  0.121   0.124   0.130   0.133   0.136   0.139   0.152   0.156
  0.161   0.166   0.173   0.178   0.184   0.192   0.196   0.200
  0.208   0.211   0.225   0.233   0.241   0.243   0.251   0.257
  0.261   0.268   0.276   0.288   0.311   0.325   0.346   0.362
  0.377   0.382   0.397   0.403   0.425   0.439   0.450   0.461
  0.471   0.473   0.497   0.507   0.508   0.513   0.515   0.522
  0.526   0.526   0.542   0.558   0.562   0.571   0.581   0.588
  0.591   0.592   0.597   0.608   0.624   0.632   0.643   0.651
  0.668   0.671   0.683   0.694   0.698   0.708   0.737   0.756
  0.792   0.794   0.802   0.805   0.818   0.819   0.827   0.836
  0.845   0.848   0.862   0.867   0.880   0.882   0.893   0.904
  0.914   0.924   0.937   0.941   0.960   0.965   0.974   0.984
  1.010   1.024   1.033   1.052   1.071   1.077   1.093   1.108
  1.125   1.136   1.144   1.183   1.191   1.199   1.201   1.208
  1.215   1.218   1.220   1.314   1.323   1.342   1.345   1.376
  1.396   1.422   1.444   1.467   1.524   1.528   1.555   1.562
  1.653   1.679   1.709   1.723   1.751   1.774   1.777   1.780
  1.793   1.816   1.820   1.853   1.858   1.872   1.903   1.919
  1.931   1.942   1.971   2.000   2.008   2.034   2.047   2.064
  2.085   2.087   2.116   2.122   2.157   2.187   2.226   2.231
  2.260   2.291   2.296   2.309   2.324   2.335   2.345   2.363
  2.380   2.390   2.395   2.409   2.429   2.442   2.468   2.492
  2.521   2.546   2.565   2.575   2.587   2.650   2.717   2.733
  2.769   2.795   2.817   2.844   2.986   3.043   3.087   3.142
  3.143   3.177   3.271   3.276   3.522   3.597   3.608   3.799
  3.840   3.875   4.112   4.120   4.151   4.174   4.180   4.196
  4.235   4.325   4.403   4.493   4.560   4.594
 
 Beta MOs
 -- Occupied --
-89.075 -89.065 -89.065 -10.407 -10.407 -10.391 -10.390 -10.375
-10.375 -10.366 -10.365 -10.356 -10.355 -10.345 -10.344  -8.134
 -8.124  -8.124  -6.098  -6.094  -6.090  -6.088  -6.088  -6.084
 -6.084  -6.081  -6.081  -1.059  -1.037  -1.023  -0.939  -0.912
 -0.891  -0.890  -0.881  -0.833  -0.768  -0.746  -0.708  -0.704
 -0.687  -0.675  -0.672  -0.641  -0.606  -0.570  -0.568  -0.562
 -0.559  -0.548  -0.546  -0.536  -0.534  -0.519  -0.511  -0.508
 -0.493  -0.487  -0.438  -0.419  -0.402  -0.400  -0.379
 -- Virtual --
 -0.293  -0.216  -0.166  -0.155  -0.127  -0.121  -0.112  -0.102
 -0.102  -0.096  -0.091  -0.091  -0.081  -0.078  -0.072  -0.070
 -0.064  -0.063  -0.060  -0.058  -0.050  -0.043  -0.041  -0.038
 -0.031  -0.028  -0.021  -0.014  -0.011  -0.006  -0.003   0.004
  0.006   0.011   0.013   0.016   0.019   0.025   0.028   0.029
  0.031   0.034   0.037   0.043   0.046   0.048   0.049   0.052
  0.054   0.060   0.061   0.066   0.067   0.072   0.079   0.084
  0.086   0.088   0.092   0.096   0.100   0.100   0.108   0.113
  0.119   0.121   0.125   0.131   0.134   0.136   0.139   0.152
  0.157   0.161   0.167   0.174   0.179   0.185   0.193   0.197
  0.201   0.209   0.213   0.226   0.235   0.242   0.245   0.252
  0.257   0.262   0.269   0.278   0.289   0.311   0.327   0.347
  0.361   0.378   0.382   0.399   0.404   0.426   0.440   0.452
  0.462   0.471   0.474   0.499   0.513   0.513   0.516   0.520
  0.524   0.528   0.532   0.543   0.559   0.566   0.572   0.584
  0.590   0.592   0.593   0.599   0.614   0.625   0.638   0.644
  0.652   0.671   0.672   0.687   0.697   0.701   0.712   0.738
  0.757   0.793   0.797   0.802   0.807   0.820   0.823   0.829
  0.837   0.846   0.849   0.863   0.869   0.881   0.884   0.894
  0.905   0.916   0.925   0.938   0.942   0.961   0.966   0.975
  0.985   1.011   1.027   1.036   1.055   1.074   1.081   1.096
  1.111   1.128   1.142   1.148   1.186   1.194   1.202   1.204
  1.210   1.220   1.221   1.226   1.316   1.329   1.345   1.347
  1.380   1.402   1.426   1.448   1.470   1.531   1.532   1.565
  1.571   1.658   1.681   1.710   1.727   1.752   1.775   1.781
  1.782   1.795   1.818   1.825   1.856   1.862   1.875   1.910
  1.922   1.935   1.943   1.978   2.007   2.014   2.040   2.051
  2.070   2.088   2.091   2.123   2.127   2.160   2.191   2.228
  2.233   2.264   2.293   2.301   2.314   2.325   2.339   2.347
  2.365   2.384   2.391   2.399   2.413   2.431   2.445   2.470
  2.495   2.525   2.547   2.569   2.579   2.588   2.652   2.719
  2.736   2.771   2.797   2.820   2.846   2.986   3.044   3.088
  3.143   3.143   3.178   3.272   3.277   3.523   3.598   3.609
  3.799   3.840   3.875   4.115   4.124   4.154   4.178   4.184
  4.199   4.240   4.329   4.408   4.496   4.562   4.597
 --------------------------------------------------------------
 
          Ground-State Mulliken Net Atomic Charges

     Atom                 Charge (a.u.)    Spin (a.u.)
  --------------------------------------------------------
      1 H                     0.241931      -0.011263
      2 H                     0.162758       0.001454
      3 C                     0.057786       0.220498
      4 C                    -0.213795      -0.037301
      5 S                    -0.025689      -0.019089
      6 C                     0.539600       0.138386
      7 H                     0.150382      -0.008882
      8 C                    -0.226629       0.023228
      9 H                     0.143485      -0.004703
     10 C                    -0.084449       0.187243
     11 C                    -0.139571       0.045541
     12 S                    -0.469844      -0.064776
     13 C                     0.171860       0.057161
     14 H                     0.140208      -0.004716
     15 C                     0.057263       0.177467
     16 C                    -0.165087       0.019251
     17 H                     0.128740      -0.009676
     18 C                     0.337586       0.150594
     19 S                     0.061422      -0.027595
     20 C                    -0.351176      -0.050805
     21 C                     0.078363       0.227561
     22 H                     0.161116       0.002251
     23 H                     0.243740      -0.011829
  --------------------------------------------------------
  Sum of atomic charges =     1.000000
  Sum of spin   charges =     1.000000

 -----------------------------------------------------------------
                    Cartesian Multipole Moments
 -----------------------------------------------------------------
    Charge (ESU x 10^10)
                 4.8032
    Dipole Moment (Debye)
         X      29.1174      Y      -1.3818      Z      -0.7188
       Tot      29.1590
    Quadrupole Moments (Debye-Ang)
        XX     159.7300     XY      -1.7321     YY     -85.9809
        XZ      -3.0735     YZ       3.7040     ZZ    -110.6200
    Octopole Moments (Debye-Ang^2)
       XXX     778.7606    XXY      10.0091    XYY    -519.3306
       YYY     125.6212    XXZ     -16.0668    XYZ      16.2934
       YYZ      10.9959    XZZ    -666.3746    YZZ      48.5246
       ZZZ      51.4854
    Hexadecapole Moments (Debye-Ang^3)
      XXXX   -1027.8373   XXXY      99.6367   XXYY   -4180.8842
      XYYY     773.7813   YYYY    -904.8698   XXXZ    -126.9661
      XXYZ      87.4284   XYYZ      72.2340   YYYZ     -47.5497
      XXZZ   -5276.4605   XYZZ     271.5591   YYZZ    -207.2672
      XZZZ     270.6417   YZZZ     -80.4384   ZZZZ    -170.2054
 -----------------------------------------------------------------
Archival summary:
1\1\nid00539\OPT\ProcedureUnspecified\BasisUnspecified\3128(1+,2)\bwood\TueMay3011:02:292017TueMay3011:02:292017\0\\#,OPT,ProcedureUnspecified,BasisUnspecified,\\1,2\S\C,1,1.75407\C,2,1.41607,1,110.431\H,3,1.08289,2,122.643,1,179.222,0\C,3,1.3825,2,113.68,1,-0.135914,0\H,5,1.08386,3,123.659,2,179.729,0\C,5,1.4145,3,113.77,2,0.139045,0\C,7,1.41499,5,127.961,3,-179.832,0\C,8,1.40437,7,128.381,5,-179.757,0\H,9,1.08436,8,123.059,7,0.177909,0\C,9,1.40217,8,113.289,7,-179.92,0\H,11,1.08312,9,124.369,8,-179.983,0\C,11,1.38645,9,112.478,8,-0.0062957,0\H,13,1.08269,11,127.503,9,-179.909,0\C,2,1.41719,1,122.95,3,178.678,0\C,15,1.40615,2,126.588,1,171.543,0\H,16,1.0832,15,123.097,2,1.2305,0\C,16,1.40235,15,113.256,2,-178.142,0\H,18,1.0831,16,124.323,15,-179.982,0\C,18,1.3854,16,112.516,15,0.200141,0\H,20,1.08262,18,127.605,16,-179.446,0\S,13,1.71779,11,112.906,9,0.0268097,0\S,20,1.72013,18,112.801,16,0.0109543,0\\\@

 Total job time:  220.12s(wall), 233.15s(cpu) 
 Tue May 30 11:02:29 2017

        *************************************************************
        *                                                           *
        *  Thank you very much for using Q-Chem.  Have a nice day.  *
        *                                                           *
        *************************************************************


0 sent ACK to 0 
now end server 0 ... 
