srun -N 1 --ntasks-per-node 22 --cpus-per-task 2 --cpu_bind=cores --nodelist nid00478 /global/project/projectdirs/jcesr/qchem/qc44/cnl_qc441/dist/exe/qcprog.cori.haswell.exe .pt_nn_cation_-110.0.in.32611.qcin.1 /dev/shm/eg_qchem/qchem32611/
Process 4 of 22 is on nid00478 - thread support 0
Process 1 of 22 is on nid00478 - thread support 0
Process 2 of 22 is on nid00478 - thread support 0
Process 3 of 22 is on nid00478 - thread support 0
Process 5 of 22 is on nid00478 - thread support 0
Process 21 of 22 is on nid00478 - thread support 0
Process 6 of 22 is on nid00478 - thread support 0
Process 0 of 22 is on nid00478 - thread support 0
initial socket setup ...start
initial socket setup ...done 
now start server 0 ... 
nid00478 10.128.1
Q-Chem Developer Version! Running on 10.128.1.*
                  Welcome to Q-Chem
     A Quantum Leap Into The Future Of Chemistry


 Q-Chem 4.4, Q-Chem, Inc., Pleasanton, CA (2016)

 Y. Shao,  Z. Gan,  E. Epifanovsky,  A. T. B. Gilbert,  M. Wormit,  
 J. Kussmann,  A. W. Lange,  A. Behn,  J. Deng,  X. Feng,  D. Ghosh,  
 M. Goldey,  P. R. Horn,  L. D. Jacobson,  I. Kaliman,  F. Rob,  
 R. Z. Khaliullin,  T. Kus,  A. Landau,  J. Liu,  E. I. Proynov,  Y. M. Rhee,  
 R. M. Richard,  M. A. Rohrdanz,  R. P. Steele,  E. J. Sundstrom,  
 H. L. Woodcock III,  P. M. Zimmerman,  D. Zuev,  B. Albrecht,  E. Alguire,  
 B. Austin,  S. A. Baeppler,  G. J. O. Beran,  Y. A. Bernard,  
 E. J. Berquist,  K. Brandhorst,  K. B. Bravaya,  S. T. Brown,  D. Casanova,  
 C.-M. Chang,  Y. Chen,  S. H. Chien,  K. D. Closser,  M. P. Coons,  
 D. L. Crittenden,  S. Dasgupta,  M. Diedenhofen,  R. A. DiStasio Jr.,  
 H. Do,  A. D. Dutoi,  R. G. Edgar,  P.-T. Fang,  S. Fatehi,  Q. Feng,  
 L. Fusti-Molnar,  A. Ghysels,  A. Golubeva-Zadorozhnaya,  J. Gomes,  
 A. Gunina,  M. W. D. Hanson-Heine,  P. H. P. Harbach,  A. W. Hauser,  
 J. E. Herr,  E. G. Hohenstein,  Z. C. Holden,  K. Hui,  T.-C. Jagau,  H. Ji,  
 B. Kaduk,  K. Khistyaev,  Jaehoon Kim,  Jihan Kim,  R. A. King,  
 P. Klunzinger,  K. Koh,  D. Kosenkov,  T. Kowalczyk,  C. M. Krauter,  
 A. Kunitsa,  K. U. Lao,  A. Laurent,  K. V. Lawler,  J. Lee,  D. Lefrancois,  
 S. Lehtola,  S. V. Levchenko,  C. Y. Lin,  Y.-S. Lin,  F. Liu,  E. Livshits,  
 R. C. Lochan,  A. Luenser,  P. Manohar,  S. F. Manzer,  S.-P. Mao,  Y. Mao,  
 N. Mardirossian,  A. V. Marenich,  L. A. Martinez-Martinez,  S. A. Maurer,  
 N. J. Mayhall,  J.-M. Mewes,  A. F. Morrison,  K. Nanda,  T. S. Nguyen-Beck,  
 C. M. Oana,  R. Olivares-Amaya,  D. P. O'Neill,  J. A. Parkhill,  
 T. M. Perrine,  R. Peverati,  P. A. Pieniazek,  F. Plasser,  A. Prociuk,  
 D. R. Rehn,  E. Rosta,  N. J. Russ,  N. Sergueev,  S. M. Sharada,  
 S. Sharma,  D. W. Small,  A. Sodt,  T. Stauch,  T. Stein,  D. Stuck,  
 Y.-C. Su,  A. J. W. Thom,  T. Tsuchimochi,  L. Vogt,  O. Vydrov,  T. Wang,  
 M. A. Watson,  J. Wenzel,  A. White,  C. F. Williams,  V. Vanovschi,  
 K. Yao,  S. Yeganeh,  S. R. Yost,  Z.-Q. You,  I. Y. Zhang,  X. Zhang,  
 Y. Zhao,  B. R. Brooks,  G. K. L. Chan,  D. M. Chipman,  C. J. Cramer,  
 W. A. Goddard III,  M. S. Gordon,  W. J. Hehre,  A. Klamt,  
 H. F. Schaefer III,  M. W. Schmidt,  C. D. Sherrill,  D. G. Truhlar,  
 A. Warshel,  X. Xu,  A. Aspuru-Guzik,  R. Baer,  A. T. Bell,  N. A. Besley,  
 J.-D. Chai,  A. Dreuw,  B. D. Dunietz,  T. R. Furlani,  S. R. Gwaltney,  
 C.-P. Hsu,  Y. Jung,  J. Kong,  D. S. Lambrecht,  W. Liang,  C. Ochsenfeld,  
 V. A. Rassolov,  L. V. Slipchenko,  J. E. Subotnik,  T. Van Voorhis,  
 J. M. Herbert,  A. I. Krylov,  P. M. W. Gill,  M. Head-Gordon

 Contributors to earlier versions of Q-Chem not listed above: 
 R. D. Adamson,  J. Baker,  E. F. C. Byrd,  A. K. Chakraborty,  C.-L. Cheng,  
 H. Dachsel,  R. J. Doerksen,  G. Hawkins,  A. Heyden,  S. Hirata,  
 G. Kedziora,  F. J. Keil,  C. Kelley,  P. P. Korambath,  W. Kurlancheek,  
 A. M. Lee,  M. S. Lee,  D. Liotard,  I. Lotan,  P. E. Maslen,  N. Nair,  
 D. Neuhauser,  R. Olson,  B. Peters,  J. Ritchie,  N. E. Schultz,  
 N. Shenvi,  A. C. Simmonett,  K. S. Thanthiriwatte,  Q. Wu,  W. Zhang

 Please cite Q-Chem as follows:
 Y. Shao et al., Mol. Phys. 113, 184-215 (2015)
 DOI: 10.1080/00268976.2014.952696

 Q-Chem 4.4.2 for Intel X86 EM64T Linux

 Parts of Q-Chem use Armadillo 5.200.1 (Boston Tea Smuggler).
 http://arma.sourceforge.net/

 Q-Chem begins on Tue May 30 10:58:41 2017  

Host: nid00444
0

     Scratch files written to /dev/shm/eg_qchem/qchem32611.0//
 Parallel job on  22  processors

Checking the input file for inconsistencies... 	...done.

--------------------------------------------------------------
User input:
--------------------------------------------------------------
$molecule
 1  2
 H           0.00000000        0.00000000        0.00000000
 H           0.66366000       -2.46828000       -0.59127000
 C           0.99103000       -0.39106000       -0.11652000
 C           1.36812000       -1.67442000       -0.42485000
 S           2.34669000        0.62586000        0.08638000
 C           2.76167000       -1.82175000       -0.50822000
 H           3.26291000       -2.73877000       -0.76199000
 C           3.44671000       -0.65043000       -0.26057000
 H           4.55645000        1.43902671        0.15704385
 C           4.88382000       -0.65043000       -0.26057000
 C           5.26091000        0.64090194        0.01245390
 S           6.23948000       -1.67253113       -0.43550939
 C           6.65446000        0.79046248        0.09175311
 H           7.15570000        1.71409653        0.32028213
 C           7.33950000       -0.38720773       -0.12368600
 C           8.77661000       -0.38720773       -0.12368600
 H           8.96041000       -0.80423071       -2.23050261
 C           9.46165000       -0.58754818       -1.30401884
 S           9.87663000       -0.09186944        1.16552508
 C          10.85520000       -0.51017141       -1.15345477
 C          11.23229000       -0.25370571        0.14126716
 H          11.55966000       -0.64452805       -1.95336551
 H          12.22332000       -0.15300770        0.53669769
$end


$rem
         jobtype = opt
        exchange = b3lyp
           basis = 6-31++g**
  max_scf_cycles = 150
      mem_static = 281
       mem_total = 2818
      sym_ignore = true
        symmetry = false
          thresh = 12
$end


$opt
CONSTRAINT
tors 13 15 16 18 -110.0
ENDCONSTRAINT
$end

--------------------------------------------------------------
 ----------------------------------------------------------------
             Standard Nuclear Orientation (Angstroms)
    I     Atom           X                Y                Z
 ----------------------------------------------------------------
    1      H       0.0000000000     0.0000000000     0.0000000000
    2      H       0.6636600000    -2.4682800000    -0.5912700000
    3      C       0.9910300000    -0.3910600000    -0.1165200000
    4      C       1.3681200000    -1.6744200000    -0.4248500000
    5      S       2.3466900000     0.6258600000     0.0863800000
    6      C       2.7616700000    -1.8217500000    -0.5082200000
    7      H       3.2629100000    -2.7387700000    -0.7619900000
    8      C       3.4467100000    -0.6504300000    -0.2605700000
    9      H       4.5564500000     1.4390267100     0.1570438500
   10      C       4.8838200000    -0.6504300000    -0.2605700000
   11      C       5.2609100000     0.6409019400     0.0124539000
   12      S       6.2394800000    -1.6725311300    -0.4355093900
   13      C       6.6544600000     0.7904624800     0.0917531100
   14      H       7.1557000000     1.7140965300     0.3202821300
   15      C       7.3395000000    -0.3872077300    -0.1236860000
   16      C       8.7766100000    -0.3872077300    -0.1236860000
   17      H       8.9604100000    -0.8042307100    -2.2305026100
   18      C       9.4616500000    -0.5875481800    -1.3040188400
   19      S       9.8766300000    -0.0918694400     1.1655250800
   20      C      10.8552000000    -0.5101714100    -1.1534547700
   21      C      11.2322900000    -0.2537057100     0.1412671600
   22      H      11.5596600000    -0.6445280500    -1.9533655100
   23      H      12.2233200000    -0.1530077000     0.5366976900
 ----------------------------------------------------------------
 Nuclear Repulsion Energy =  1184.6902269245 hartrees
 There are       64 alpha and       63 beta electrons
 Requested basis set is 6-31++G(d,p)
 There are 110 shells and 345 basis functions

 Total QAlloc Memory Limit   2818 MB
 Mega-Array Size       275 MB
 MEM_STATIC part       281 MB
 A cutoff of  1.0D-12 yielded   4729 shell pairs
 There are     48128 function pairs

 Q-Chem warning in module /project/projectdirs/jcesr/qchem/qc44/cnl_qc441/compile/cori/qc_src/libqints/qchem/aobasis.C, line 68:

 Using reconstructed effective core potential

 
 -------------------------------------------------------
 OpenMP Integral Computing Module                       
 Release: version 1.0, May 2013, Q-Chem Inc. Pittsburgh 
 -------------------------------------------------------
 Integral Job Info:
 Integral job number is                      11
 Integral operator is                         1
 short-range coefficients                     0
 long-range coefficients              100000000
 Omega coefficients                           0
 if combine SR and LR in K                    0
 Integral screening is                        0
 Integral computing path is                   2
 max size of driver memory is            800000
 size of driver memory is                593474
 size of scratch memory is             15166112
 max col of scratch BK array               1296
 max len of scratch array in speh3          155
 max len of scratch index in speh4           18
 max int batch size is                      520
 min int batch size is                       52
 fixed nKL is                                52
 max L of basis functions is                  2
 order of int derivative is                   0
 number of shells is                        110
 number of basis is                         345
 number of cartesian basis is               345
 number of contracted shell pairs          4729
 number of primitive shell pairs          14795
 maxK2 (contraction) of shell pair           36
 max number of K2 of shell pair               1
 max number of CS2 of shell pair            512
 max number of PS2 of shell pair           3054
 mem total for path MDJ                  101288
 -------------------------------------------------------
 Smallest overlap matrix eigenvalue = 8.86E-08
 Linear dependence detected in AO basis
 Number of orthogonalized atomic orbitals = 342
 Maximum deviation from orthogonality = 5.247E-11

 Scale SEOQF with 1.000000e-02/1.000000e-01/1.000000e-01

 Standard Electronic Orientation quadrupole field applied
 Nucleus-field energy     =     0.0000000250 hartrees
 Guess from superposition of atomic densities
 Warning:  Energy on first SCF cycle will be non-variational
 An unrestricted hybrid HF-DFT SCF calculation will be
 performed using Pulay DIIS extrapolation
 Exchange:     0.2000 Hartree-Fock + 0.0800 Slater + 0.7200 B88
 Correlation:  0.1900 VWN1RPA + 0.8100 LYP
 Using SG-1 standard quadrature grid
 SCF converges when DIIS error is below 1.0E-08
 Inaccurate integrated density:
   Number of electrons =   127
   Numerical integral  =   127.999384679805
   Relative error      =     0.7869170707 %
 ---------------------------------------
  Cycle       Energy         DIIS Error
 ---------------------------------------
    1   -1660.7268127650      3.84E-02
    2   -1656.1412731059      3.60E-03
    3   -1655.7516577243      5.81E-03
    4   -1656.3319845449      1.20E-03
    5   -1656.3527114761      5.25E-04
    6   -1656.3570285902      2.05E-04
    7   -1656.3576700693      9.46E-05
    8   -1656.3578546311      2.82E-05
    9   -1656.3578846231      9.30E-06
   10   -1656.3578990655      4.80E-06
   11   -1656.3579070679      4.34E-06
   12   -1656.3579108333      1.82E-06
   13   -1656.3579121793      1.07E-06
   14   -1656.3579123587      3.81E-07
   15   -1656.3579124146      1.25E-07
   16   -1656.3579124189      8.32E-08
   17   -1656.3579124204      3.42E-08
   18   -1656.3579124210      2.47E-08
   19   -1656.3579124215      1.40E-08
   20   -1656.3579124214      6.66E-09 Convergence criterion met
 ---------------------------------------
 <S^2> = 0.7629
 SCF time:  CPU 27.69 s  wall 25.97 s
 SCF   energy in the final basis set = -1656.3579124214
 Total energy in the final basis set = -1656.3579124214
 
 --------------------------------------------------------------
 
                    Orbital Energies (a.u.)
 --------------------------------------------------------------
 
 Alpha MOs
 -- Occupied --
-89.089 -89.076 -89.053 -10.408 -10.408 -10.402 -10.389 -10.371
-10.363 -10.360 -10.356 -10.354 -10.352 -10.335 -10.324  -8.148
 -8.137  -8.112  -6.113  -6.108  -6.104  -6.101  -6.097  -6.094
 -6.077  -6.072  -6.069  -1.084  -1.057  -1.030  -0.958  -0.918
 -0.903  -0.897  -0.877  -0.848  -0.774  -0.751  -0.711  -0.697
 -0.694  -0.688  -0.676  -0.651  -0.609  -0.586  -0.583  -0.576
 -0.562  -0.555  -0.552  -0.534  -0.526  -0.524  -0.523  -0.508
 -0.499  -0.481  -0.451  -0.425  -0.414  -0.391  -0.386  -0.365
 -- Virtual --
 -0.220  -0.167  -0.154  -0.144  -0.121  -0.118  -0.113  -0.105
 -0.101  -0.097  -0.094  -0.087  -0.083  -0.079  -0.075  -0.073
 -0.068  -0.064  -0.057  -0.056  -0.048  -0.043  -0.036  -0.035
 -0.028  -0.021  -0.015  -0.013  -0.005  -0.000   0.001   0.006
  0.010   0.012   0.018   0.018   0.021   0.024   0.027   0.029
  0.034   0.038   0.039   0.042   0.045   0.046   0.052   0.053
  0.057   0.059   0.061   0.063   0.066   0.072   0.079   0.082
  0.083   0.093   0.100   0.102   0.107   0.108   0.115   0.117
  0.119   0.124   0.128   0.131   0.132   0.146   0.152   0.158
  0.162   0.164   0.170   0.172   0.174   0.177   0.189   0.195
  0.202   0.210   0.223   0.225   0.233   0.236   0.248   0.251
  0.259   0.263   0.274   0.285   0.309   0.339   0.348   0.360
  0.369   0.374   0.381   0.406   0.423   0.432   0.458   0.472
  0.475   0.487   0.493   0.496   0.507   0.509   0.515   0.517
  0.533   0.549   0.556   0.569   0.574   0.586   0.588   0.594
  0.596   0.605   0.615   0.625   0.641   0.647   0.653   0.661
  0.664   0.670   0.675   0.677   0.698   0.707   0.741   0.765
  0.790   0.797   0.802   0.810   0.817   0.826   0.830   0.840
  0.845   0.854   0.857   0.860   0.873   0.880   0.888   0.901
  0.909   0.915   0.934   0.939   0.953   0.958   0.969   0.986
  1.004   1.016   1.028   1.045   1.056   1.090   1.095   1.106
  1.139   1.148   1.162   1.179   1.185   1.201   1.208   1.219
  1.225   1.246   1.248   1.267   1.275   1.298   1.329   1.340
  1.380   1.386   1.447   1.475   1.498   1.550   1.575   1.633
  1.667   1.698   1.720   1.744   1.761   1.773   1.784   1.792
  1.813   1.838   1.849   1.870   1.873   1.889   1.910   1.942
  1.955   1.967   1.997   2.027   2.039   2.046   2.065   2.081
  2.087   2.118   2.139   2.165   2.187   2.211   2.227   2.255
  2.275   2.303   2.317   2.320   2.331   2.348   2.365   2.385
  2.389   2.392   2.412   2.433   2.447   2.475   2.484   2.509
  2.529   2.556   2.569   2.579   2.628   2.678   2.685   2.723
  2.744   2.782   2.796   2.813   3.026   3.062   3.083   3.153
  3.175   3.199   3.288   3.311   3.556   3.617   3.640   3.819
  3.845   3.852   4.097   4.152   4.173   4.179   4.187   4.214
  4.243   4.340   4.407   4.509   4.561   4.578
 
 Beta MOs
 -- Occupied --
-89.089 -89.077 -89.053 -10.405 -10.404 -10.401 -10.385 -10.370
-10.361 -10.358 -10.356 -10.353 -10.352 -10.334 -10.324  -8.148
 -8.137  -8.112  -6.113  -6.109  -6.105  -6.101  -6.097  -6.094
 -6.076  -6.072  -6.070  -1.079  -1.052  -1.027  -0.952  -0.916
 -0.899  -0.893  -0.876  -0.842  -0.770  -0.748  -0.708  -0.695
 -0.691  -0.686  -0.674  -0.650  -0.607  -0.582  -0.574  -0.572
 -0.560  -0.553  -0.543  -0.533  -0.524  -0.522  -0.516  -0.505
 -0.498  -0.480  -0.431  -0.422  -0.411  -0.388  -0.370
 -- Virtual --
 -0.313  -0.204  -0.161  -0.143  -0.142  -0.119  -0.116  -0.106
 -0.102  -0.096  -0.093  -0.089  -0.086  -0.082  -0.078  -0.074
 -0.070  -0.067  -0.063  -0.057  -0.055  -0.047  -0.042  -0.036
 -0.034  -0.027  -0.020  -0.014  -0.012  -0.005   0.000   0.002
  0.006   0.011   0.013   0.018   0.019   0.022   0.024   0.028
  0.029   0.035   0.038   0.041   0.042   0.046   0.046   0.052
  0.054   0.058   0.059   0.061   0.064   0.068   0.073   0.080
  0.083   0.084   0.094   0.100   0.102   0.108   0.109   0.117
  0.117   0.120   0.124   0.129   0.132   0.133   0.147   0.153
  0.159   0.163   0.165   0.171   0.173   0.174   0.178   0.191
  0.196   0.203   0.211   0.225   0.226   0.235   0.237   0.249
  0.252   0.260   0.264   0.276   0.287   0.310   0.341   0.349
  0.361   0.370   0.376   0.382   0.407   0.424   0.433   0.459
  0.473   0.477   0.493   0.495   0.497   0.510   0.515   0.518
  0.525   0.535   0.551   0.558   0.570   0.578   0.587   0.590
  0.598   0.599   0.607   0.615   0.627   0.643   0.649   0.656
  0.663   0.668   0.673   0.677   0.680   0.701   0.710   0.742
  0.767   0.791   0.800   0.804   0.812   0.818   0.830   0.832
  0.841   0.846   0.855   0.858   0.861   0.874   0.882   0.888
  0.902   0.910   0.917   0.935   0.941   0.955   0.960   0.970
  0.987   1.005   1.017   1.030   1.048   1.059   1.092   1.098
  1.109   1.142   1.154   1.164   1.183   1.188   1.205   1.214
  1.221   1.228   1.248   1.250   1.272   1.278   1.303   1.332
  1.345   1.383   1.390   1.450   1.481   1.503   1.561   1.580
  1.639   1.669   1.702   1.722   1.749   1.763   1.775   1.787
  1.793   1.817   1.843   1.852   1.874   1.877   1.891   1.914
  1.945   1.959   1.973   2.003   2.034   2.044   2.055   2.068
  2.086   2.092   2.123   2.145   2.168   2.192   2.215   2.230
  2.257   2.281   2.306   2.319   2.325   2.334   2.350   2.368
  2.388   2.393   2.394   2.414   2.436   2.450   2.478   2.486
  2.512   2.532   2.558   2.572   2.580   2.630   2.682   2.690
  2.724   2.746   2.784   2.798   2.815   3.027   3.063   3.084
  3.153   3.175   3.200   3.289   3.311   3.557   3.619   3.641
  3.819   3.845   3.852   4.102   4.157   4.176   4.182   4.190
  4.216   4.248   4.343   4.411   4.512   4.564   4.580
 --------------------------------------------------------------
 
          Ground-State Mulliken Net Atomic Charges

     Atom                 Charge (a.u.)    Spin (a.u.)
  --------------------------------------------------------
      1 H                     0.252425      -0.013315
      2 H                     0.159592       0.001123
      3 C                     0.099038       0.269748
      4 C                    -0.402105      -0.040578
      5 S                    -0.096325      -0.038866
      6 C                     0.567513       0.148073
      7 H                     0.144964      -0.009383
      8 C                     0.132221       0.082264
      9 H                     0.066765      -0.007734
     10 C                    -0.174841       0.153360
     11 C                    -0.490133       0.111567
     12 S                     0.318698      -0.043722
     13 C                    -0.070561      -0.009649
     14 H                     0.173002       0.000642
     15 C                    -0.076413       0.229432
     16 C                    -0.026407       0.046372
     17 H                     0.148599      -0.004115
     18 C                     0.060690       0.048488
     19 S                     0.200762      -0.015836
     20 C                    -0.341297      -0.011341
     21 C                    -0.023898       0.106684
     22 H                     0.149569       0.001210
     23 H                     0.228144      -0.004423
  --------------------------------------------------------
  Sum of atomic charges =     1.000000
  Sum of spin   charges =     1.000000

 -----------------------------------------------------------------
                    Cartesian Multipole Moments
 -----------------------------------------------------------------
    Charge (ESU x 10^10)
                 4.8032
    Dipole Moment (Debye)
         X      26.5098      Y      -2.2459      Z      -1.3665
       Tot      26.6399
    Quadrupole Moments (Debye-Ang)
        XX     126.6220     XY      -8.0155     YY     -95.3170
        XZ      -8.5322     YZ       5.0119     ZZ    -102.8371
    Octopole Moments (Debye-Ang^2)
       XXX     383.0418    XXY     -12.8153    XYY    -619.7760
       YYY     126.2231    XXZ     -54.8154    XYZ      28.1705
       YYZ       7.6311    XZZ    -604.1404    YZZ      43.4164
       ZZZ      34.0192
    Hexadecapole Moments (Debye-Ang^3)
      XXXX   -5765.6263   XXXY     176.0149   XXYY   -5223.9150
      XYYY     764.3520   YYYY    -654.3223   XXXZ    -404.1982
      XXYZ     196.5694   XYYZ      46.0320   YYYZ     -72.3081
      XXZZ   -4732.7290   XYZZ     219.6730   YYZZ    -187.8420
      XZZZ     103.6881   YZZZ     -86.8089   ZZZZ    -377.3473
 -----------------------------------------------------------------
 Calculating analytic gradient of the SCF energy
 Gradient of SCF Energy
            1           2           3           4           5           6
    1   0.0070537   0.0045245  -0.0051057  -0.0029376   0.0033591   0.0274991
    2  -0.0034663   0.0048880  -0.0005453   0.0152925  -0.0282781   0.0139752
    3  -0.0011100   0.0011260  -0.0007486   0.0045982  -0.0061019   0.0038311
            7           8           9          10          11          12
    1  -0.0015217  -0.0243956  -0.0021151   0.0475932  -0.0610806   0.0000690
    2   0.0061163   0.0599286  -0.0062744  -0.0456779  -0.0335885   0.0408285
    3   0.0006002   0.0108722  -0.0000544  -0.0066766  -0.0080113   0.0105649
           13          14          15          16          17          18
    1   0.0278753  -0.0034381  -0.0054191   0.0018860   0.0019860  -0.0085927
    2  -0.0168484  -0.0048518  -0.0241458   0.0193082   0.0002992   0.0118702
    3  -0.0133545   0.0001229  -0.0148873   0.0215904   0.0059588   0.0047258
           19          20          21          22          23
    1   0.0057299  -0.0057282   0.0035354  -0.0040622  -0.0067147
    2  -0.0076072  -0.0009221  -0.0002580  -0.0000744   0.0000315
    3  -0.0243773   0.0039775   0.0056564   0.0053122  -0.0036148
 Max gradient component =       6.108E-02
 RMS gradient           =       1.778E-02
 Gradient time:  CPU 4.36 s  wall 4.27 s
 Geometry Optimization Parameters
   NAtoms,    NIC,     NZ,  NCons,   NDum,   NFix, NCnnct, MaxDiis
       23     166       0       1       0       0       0       0


** CONSTRAINED OPTIMIZATION IN DELOCALIZED INTERNAL COORDINATES **
   Searching for a Minimum

   Optimization Cycle:   1

                       Coordinates (Angstroms)
     ATOM                X               Y               Z
      1  H         0.0000000000    0.0000000000    0.0000000000
      2  H         0.6636600000   -2.4682800000   -0.5912700000
      3  C         0.9910300000   -0.3910600000   -0.1165200000
      4  C         1.3681200000   -1.6744200000   -0.4248500000
      5  S         2.3466900000    0.6258600000    0.0863800000
      6  C         2.7616700000   -1.8217500000   -0.5082200000
      7  H         3.2629100000   -2.7387700000   -0.7619900000
      8  C         3.4467100000   -0.6504300000   -0.2605700000
      9  H         4.5564500000    1.4390267100    0.1570438500
     10  C         4.8838200000   -0.6504300000   -0.2605700000
     11  C         5.2609100000    0.6409019400    0.0124539000
     12  S         6.2394800000   -1.6725311300   -0.4355093900
     13  C         6.6544600000    0.7904624800    0.0917531100
     14  H         7.1557000000    1.7140965300    0.3202821300
     15  C         7.3395000000   -0.3872077300   -0.1236860000
     16  C         8.7766100000   -0.3872077300   -0.1236860000
     17  H         8.9604100000   -0.8042307100   -2.2305026100
     18  C         9.4616500000   -0.5875481800   -1.3040188400
     19  S         9.8766300000   -0.0918694400    1.1655250800
     20  C        10.8552000000   -0.5101714100   -1.1534547700
     21  C        11.2322900000   -0.2537057100    0.1412671600
     22  H        11.5596600000   -0.6445280500   -1.9533655100
     23  H        12.2233200000   -0.1530077000    0.5366976900
   Point Group: c1    Number of degrees of freedom:    63


   Energy is  -1656.357912421

              Constraints and their Current Values
                                        Value     Constraint
   Dihedral:       13  15  16  18     -110.000     -110.000

 Attempting to Generate Delocalized Internal Coordinates

 62 Hessian modes will be used to form the next step
  Hessian Eigenvalues:
     0.045000    0.045000    0.045000    0.045000    0.045000    0.045000
     0.045001    0.045001    0.045001    0.045002    0.045003    0.045003
     0.045011    0.045012    0.045012    0.045025    0.045032    0.045058
     0.045059    0.159944    0.159945    0.159945    0.159992    0.159993
     0.159993    0.160000    0.160000    0.221307    0.221308    0.227041
     0.237995    0.238010    0.245411    0.249662    0.249670    0.249670
     0.249825    0.326317    0.326319    0.326962    0.340043    0.340044
     0.340629    0.365512    0.365512    0.365513    0.366888    0.366889
     0.366889    0.370099    0.370100    0.399845    0.399845    0.435419
     0.435419    0.435422    0.463117    0.463122    0.464282    0.495500
     0.495500    0.495533

 Minimum Search - Taking Simple RFO Step
 Searching for Lamda that Minimizes Along All modes
 Value Taken    Lamda =  -0.06639100
 Calculated Step too Large.  Step scaled by  0.678577
 Step Taken.  Stepsize is  0.300000

                             Maximum     Tolerance    Cnvgd?
         Gradient           0.068583      0.000300      NO
         Displacement       0.138340      0.001200      NO
         Energy change     *********      0.000001      NO


 New Cartesian Coordinates Obtained by Inverse Iteration

 Displacement from previous Coordinates is:  1.712650
 ----------------------------------------------------------------
             Standard Nuclear Orientation (Angstroms)
    I     Atom           X                Y                Z
 ----------------------------------------------------------------
    1      H      -0.1068985248    -0.2731697572    -0.0388002363
    2      H       0.7912077711    -2.6770803550    -0.6468385286
    3      C       0.9247624759    -0.5691203459    -0.1423422670
    4      C       1.4198752616    -1.8191385675    -0.4599066623
    5      S       2.1670351092     0.5903912749     0.0975228500
    6      C       2.8208575193    -1.8285014994    -0.5175411956
    7      H       3.4092844361    -2.6986408206    -0.7706251554
    8      C       3.4021849380    -0.5830603340    -0.2427429745
    9      H       4.6483187695     1.7397033238     0.2310890475
   10      C       4.8345104343    -0.4056285399    -0.2103129068
   11      C       5.2993763887     0.8964057110     0.0729803530
   12      S       6.1654475886    -1.4792194858    -0.4065662611
   13      C       6.6929975875     0.9907423526     0.1368074174
   14      H       7.2414290173     1.8945673873     0.3585816117
   15      C       7.3249321289    -0.2282251917    -0.1000118582
   16      C       8.7639409027    -0.3645519794    -0.1501951765
   17      H       8.9309491182    -0.8067406778    -2.2710898058
   18      C       9.4418891429    -0.6269498417    -1.3361320909
   19      S       9.8769007675    -0.1428300951     1.1564561886
   20      C      10.8414850860    -0.6491555089    -1.1774206347
   21      C      11.2218188225    -0.4141312107     0.1253691214
   22      H      11.5442109265    -0.8366638898    -1.9755350360
   23      H      12.2203643324    -0.3858020790     0.5304440002
 ----------------------------------------------------------------
 Nuclear Repulsion Energy =  1174.9567125505 hartrees
 There are       64 alpha and       63 beta electrons
 Applying Cartesian multipole field
    Component          Value
    ---------          -----
     (2,0,0)        1.00000E-12
     (0,2,0)        2.00000E-11
     (0,0,2)       -3.00000E-11
 Nucleus-field energy     =     0.0000000249 hartrees
 Requested basis set is 6-31++G(d,p)
 There are 110 shells and 345 basis functions
 A cutoff of  1.0D-12 yielded   4703 shell pairs
 There are     47918 function pairs

 Q-Chem warning in module /project/projectdirs/jcesr/qchem/qc44/cnl_qc441/compile/cori/qc_src/libqints/qchem/aobasis.C, line 68:

 Using reconstructed effective core potential

 Smallest overlap matrix eigenvalue = 8.35E-08
 Linear dependence detected in AO basis
 Number of orthogonalized atomic orbitals = 342
 Maximum deviation from orthogonality = 1.093E-10
 Guess MOs from SCF MO coefficient file
 Reading MOs from coefficient file
 Reading MOs from coefficient file
 An unrestricted hybrid HF-DFT SCF calculation will be
 performed using Pulay DIIS extrapolation
 Exchange:     0.2000 Hartree-Fock + 0.0800 Slater + 0.7200 B88
 Correlation:  0.1900 VWN1RPA + 0.8100 LYP
 Using SG-1 standard quadrature grid
 SCF converges when DIIS error is below 1.0E-08
 Geometry optimization detected.  Setting ReadMinima to 0
 Setting SaveMinima to 0
 Inaccurate integrated density:
   Number of electrons =   127
   Numerical integral  =   126.847885948215
   Relative error      =    -0.1197748439 %
 ---------------------------------------
  Cycle       Energy         DIIS Error
 ---------------------------------------
    1   -1656.1594346040      4.49E-03
    2   -1656.3704158105      1.01E-03
    3   -1656.3267378111      1.87E-03
    4   -1656.3879994885      2.57E-04
    5   -1656.3889718199      9.31E-05
    6   -1656.3890949292      4.41E-05
    7   -1656.3891246370      1.64E-05
    8   -1656.3891293297      5.15E-06
    9   -1656.3891299218      2.14E-06
   10   -1656.3891301264      1.25E-06
   11   -1656.3891302202      6.48E-07
   12   -1656.3891302510      2.16E-07
   13   -1656.3891302568      1.36E-07
   14   -1656.3891302589      4.79E-08
   15   -1656.3891302604      2.91E-08
   16   -1656.3891302601      1.22E-08
   17   -1656.3891302599      8.13E-09 Convergence criterion met
 ---------------------------------------
 <S^2> = 0.7642
 SCF time:  CPU 24.23 s  wall 22.51 s
 SCF   energy in the final basis set = -1656.3891302599
 Total energy in the final basis set = -1656.3891302599
 
 --------------------------------------------------------------
 
                    Orbital Energies (a.u.)
 --------------------------------------------------------------
 
 Alpha MOs
 -- Occupied --
-89.085 -89.077 -89.053 -10.413 -10.410 -10.404 -10.390 -10.373
-10.368 -10.365 -10.360 -10.356 -10.354 -10.338 -10.326  -8.144
 -8.136  -8.112  -6.109  -6.105  -6.101  -6.101  -6.097  -6.093
 -6.076  -6.072  -6.069  -1.073  -1.049  -1.024  -0.947  -0.915
 -0.900  -0.893  -0.876  -0.844  -0.770  -0.746  -0.712  -0.697
 -0.691  -0.685  -0.670  -0.649  -0.608  -0.578  -0.575  -0.573
 -0.559  -0.553  -0.548  -0.534  -0.530  -0.523  -0.521  -0.509
 -0.500  -0.482  -0.447  -0.424  -0.414  -0.391  -0.385  -0.363
 -- Virtual --
 -0.225  -0.169  -0.156  -0.141  -0.126  -0.118  -0.114  -0.104
 -0.101  -0.097  -0.094  -0.086  -0.083  -0.080  -0.075  -0.073
 -0.069  -0.063  -0.057  -0.055  -0.049  -0.043  -0.035  -0.033
 -0.028  -0.020  -0.016  -0.012  -0.005   0.000   0.002   0.006
  0.010   0.013   0.016   0.018   0.021   0.024   0.027   0.030
  0.033   0.038   0.040   0.042   0.045   0.046   0.050   0.054
  0.056   0.059   0.061   0.063   0.065   0.071   0.075   0.082
  0.084   0.090   0.097   0.101   0.102   0.109   0.114   0.114
  0.117   0.121   0.125   0.130   0.132   0.144   0.149   0.151
  0.155   0.162   0.165   0.171   0.173   0.176   0.188   0.194
  0.204   0.208   0.218   0.226   0.230   0.232   0.242   0.247
  0.256   0.260   0.263   0.278   0.312   0.330   0.339   0.361
  0.369   0.374   0.385   0.409   0.417   0.425   0.454   0.465
  0.468   0.487   0.493   0.495   0.505   0.509   0.512   0.514
  0.524   0.548   0.552   0.563   0.573   0.579   0.584   0.590
  0.597   0.602   0.613   0.615   0.640   0.644   0.655   0.662
  0.667   0.669   0.672   0.678   0.696   0.707   0.728   0.762
  0.788   0.792   0.802   0.809   0.814   0.822   0.824   0.840
  0.841   0.844   0.852   0.854   0.863   0.878   0.885   0.892
  0.901   0.912   0.928   0.934   0.952   0.956   0.964   0.980
  0.992   1.018   1.023   1.036   1.052   1.083   1.089   1.103
  1.134   1.141   1.152   1.179   1.189   1.193   1.203   1.207
  1.225   1.240   1.248   1.271   1.284   1.302   1.317   1.345
  1.379   1.386   1.418   1.471   1.500   1.547   1.569   1.624
  1.665   1.687   1.721   1.730   1.754   1.763   1.778   1.789
  1.806   1.816   1.829   1.855   1.869   1.885   1.889   1.926
  1.929   1.958   1.988   2.009   2.023   2.030   2.054   2.063
  2.079   2.104   2.109   2.143   2.167   2.190   2.221   2.250
  2.269   2.295   2.305   2.308   2.321   2.341   2.347   2.373
  2.376   2.382   2.392   2.425   2.429   2.463   2.473   2.479
  2.513   2.542   2.559   2.571   2.618   2.670   2.687   2.719
  2.741   2.761   2.768   2.791   2.997   3.047   3.064   3.139
  3.161   3.190   3.270   3.296   3.534   3.595   3.622   3.817
  3.836   3.849   4.089   4.147   4.164   4.168   4.180   4.203
  4.240   4.332   4.396   4.501   4.552   4.571
 
 Beta MOs
 -- Occupied --
-89.086 -89.077 -89.053 -10.411 -10.407 -10.403 -10.387 -10.372
-10.366 -10.363 -10.360 -10.354 -10.354 -10.337 -10.326  -8.144
 -8.136  -8.112  -6.109  -6.105  -6.101  -6.101  -6.097  -6.093
 -6.076  -6.072  -6.069  -1.068  -1.045  -1.021  -0.941  -0.913
 -0.898  -0.888  -0.875  -0.837  -0.767  -0.742  -0.709  -0.694
 -0.689  -0.683  -0.668  -0.647  -0.606  -0.574  -0.571  -0.565
 -0.557  -0.551  -0.540  -0.533  -0.529  -0.520  -0.513  -0.506
 -0.499  -0.481  -0.426  -0.421  -0.411  -0.388  -0.370
 -- Virtual --
 -0.310  -0.208  -0.162  -0.145  -0.139  -0.123  -0.115  -0.109
 -0.101  -0.097  -0.093  -0.088  -0.085  -0.082  -0.078  -0.075
 -0.071  -0.068  -0.062  -0.057  -0.054  -0.048  -0.043  -0.035
 -0.032  -0.027  -0.019  -0.015  -0.011  -0.004   0.001   0.002
  0.007   0.010   0.013   0.016   0.019   0.022   0.025   0.027
  0.030   0.034   0.039   0.041   0.042   0.045   0.047   0.051
  0.055   0.057   0.060   0.062   0.063   0.066   0.072   0.076
  0.083   0.085   0.091   0.099   0.102   0.103   0.109   0.114
  0.115   0.118   0.121   0.127   0.131   0.133   0.144   0.150
  0.152   0.156   0.163   0.166   0.172   0.174   0.177   0.189
  0.195   0.205   0.209   0.219   0.227   0.231   0.233   0.244
  0.248   0.258   0.261   0.266   0.279   0.313   0.331   0.341
  0.362   0.370   0.375   0.385   0.410   0.418   0.426   0.456
  0.467   0.469   0.489   0.495   0.500   0.508   0.511   0.518
  0.521   0.526   0.551   0.553   0.565   0.576   0.581   0.586
  0.593   0.600   0.606   0.614   0.615   0.642   0.646   0.658
  0.664   0.670   0.671   0.676   0.681   0.700   0.709   0.729
  0.763   0.791   0.794   0.804   0.811   0.816   0.825   0.828
  0.841   0.843   0.845   0.853   0.855   0.864   0.880   0.885
  0.893   0.902   0.913   0.930   0.935   0.954   0.956   0.965
  0.981   0.993   1.020   1.026   1.039   1.054   1.086   1.091
  1.106   1.141   1.144   1.154   1.181   1.192   1.196   1.208
  1.213   1.228   1.241   1.250   1.273   1.289   1.308   1.321
  1.349   1.382   1.390   1.421   1.475   1.507   1.557   1.574
  1.630   1.668   1.690   1.724   1.735   1.757   1.764   1.779
  1.791   1.810   1.821   1.833   1.859   1.873   1.887   1.892
  1.930   1.937   1.961   1.994   2.016   2.030   2.037   2.057
  2.068   2.085   2.109   2.114   2.146   2.172   2.195   2.224
  2.251   2.275   2.298   2.309   2.312   2.323   2.344   2.349
  2.376   2.380   2.385   2.394   2.428   2.432   2.466   2.475
  2.482   2.516   2.545   2.563   2.573   2.620   2.673   2.691
  2.720   2.744   2.763   2.769   2.793   2.998   3.048   3.066
  3.139   3.162   3.190   3.271   3.297   3.535   3.596   3.623
  3.817   3.836   3.850   4.094   4.153   4.167   4.171   4.183
  4.204   4.245   4.335   4.400   4.504   4.555   4.573
 --------------------------------------------------------------
 
          Ground-State Mulliken Net Atomic Charges

     Atom                 Charge (a.u.)    Spin (a.u.)
  --------------------------------------------------------
      1 H                     0.248519      -0.013486
      2 H                     0.165219       0.001484
      3 C                     0.073405       0.265548
      4 C                    -0.347734      -0.043149
      5 S                    -0.017578      -0.040325
      6 C                     0.455961       0.147251
      7 H                     0.141906      -0.009704
      8 C                    -0.058887       0.077354
      9 H                     0.120186      -0.007541
     10 C                    -0.061550       0.156499
     11 C                    -0.315085       0.115956
     12 S                     0.174762      -0.052452
     13 C                     0.034494      -0.004346
     14 H                     0.173520       0.000096
     15 C                    -0.180814       0.237855
     16 C                    -0.093844       0.044975
     17 H                     0.152545      -0.004261
     18 C                     0.113147       0.052987
     19 S                     0.181242      -0.017171
     20 C                    -0.322572      -0.014047
     21 C                    -0.016577       0.109758
     22 H                     0.151854       0.001324
     23 H                     0.227881      -0.004606
  --------------------------------------------------------
  Sum of atomic charges =     1.000000
  Sum of spin   charges =     1.000000

 -----------------------------------------------------------------
                    Cartesian Multipole Moments
 -----------------------------------------------------------------
    Charge (ESU x 10^10)
                 4.8032
    Dipole Moment (Debye)
         X      26.4975      Y      -2.1588      Z      -1.3531
       Tot      26.6197
    Quadrupole Moments (Debye-Ang)
        XX     126.9316     XY      -7.3966     YY     -94.5081
        XZ      -8.4176     YZ       5.3914     ZZ    -102.9408
    Octopole Moments (Debye-Ang^2)
       XXX     392.8325    XXY     -27.6415    XYY    -612.8153
       YYY     121.3674    XXZ     -55.9436    XYZ      30.1658
       YYZ       7.0730    XZZ    -600.3851    YZZ      40.2556
       ZZZ      32.1844
    Hexadecapole Moments (Debye-Ang^3)
      XXXX   -5658.8054   XXXY    -146.8307   XXYY   -5168.5338
      XYYY     753.7469   YYYY    -650.8437   XXXZ    -428.3516
      XXYZ     211.4222   XYYZ      45.2171   YYYZ     -70.6112
      XXZZ   -4697.8860   XYZZ     198.8643   YYZZ    -188.7235
      XZZZ      94.3552   YZZZ     -87.0703   ZZZZ    -380.0790
 -----------------------------------------------------------------
 Calculating analytic gradient of the SCF energy
 Gradient of SCF Energy
            1           2           3           4           5           6
    1   0.0030426   0.0013831  -0.0020603  -0.0042508   0.0002410   0.0108289
    2  -0.0013319   0.0017555  -0.0010707   0.0047617  -0.0148053   0.0049290
    3  -0.0005127   0.0004518  -0.0006623   0.0019265  -0.0030743   0.0023306
            7           8           9          10          11          12
    1  -0.0009693  -0.0283777   0.0036163   0.0339457  -0.0248861  -0.0015782
    2   0.0027315   0.0366599  -0.0029817  -0.0439479  -0.0056441   0.0255986
    3  -0.0001179   0.0063550   0.0004188  -0.0078251  -0.0020335   0.0077648
           13          14          15          16          17          18
    1   0.0189323  -0.0012071  -0.0080903   0.0049587   0.0009173  -0.0022207
    2  -0.0031468  -0.0019072  -0.0159004   0.0121684  -0.0005553   0.0097471
    3  -0.0101641   0.0007313  -0.0077030   0.0197704   0.0024296  -0.0016382
           19          20          21          22          23
    1   0.0021670  -0.0026023   0.0004260  -0.0014540  -0.0027622
    2  -0.0061196  -0.0006332  -0.0008016  -0.0003005   0.0007943
    3  -0.0123750  -0.0003969   0.0040242   0.0020427  -0.0017424
 Max gradient component =       4.395E-02
 RMS gradient           =       1.139E-02
 Gradient time:  CPU 4.21 s  wall 4.21 s
 Geometry Optimization Parameters
   NAtoms,    NIC,     NZ,  NCons,   NDum,   NFix, NCnnct, MaxDiis
       23     166       0       1       0       0       0       0

 Cartesian Hessian Update
 Hessian Updated using BFGS Update


** CONSTRAINED OPTIMIZATION IN DELOCALIZED INTERNAL COORDINATES **
   Searching for a Minimum

   Optimization Cycle:   2

                       Coordinates (Angstroms)
     ATOM                X               Y               Z
      1  H        -0.1068985248   -0.2731697572   -0.0388002363
      2  H         0.7912077711   -2.6770803550   -0.6468385286
      3  C         0.9247624759   -0.5691203459   -0.1423422670
      4  C         1.4198752616   -1.8191385675   -0.4599066623
      5  S         2.1670351092    0.5903912749    0.0975228500
      6  C         2.8208575193   -1.8285014994   -0.5175411956
      7  H         3.4092844361   -2.6986408206   -0.7706251554
      8  C         3.4021849380   -0.5830603340   -0.2427429745
      9  H         4.6483187695    1.7397033238    0.2310890475
     10  C         4.8345104343   -0.4056285399   -0.2103129068
     11  C         5.2993763887    0.8964057110    0.0729803530
     12  S         6.1654475886   -1.4792194858   -0.4065662611
     13  C         6.6929975875    0.9907423526    0.1368074174
     14  H         7.2414290173    1.8945673873    0.3585816117
     15  C         7.3249321289   -0.2282251917   -0.1000118582
     16  C         8.7639409027   -0.3645519794   -0.1501951765
     17  H         8.9309491182   -0.8067406778   -2.2710898058
     18  C         9.4418891429   -0.6269498417   -1.3361320909
     19  S         9.8769007675   -0.1428300951    1.1564561886
     20  C        10.8414850860   -0.6491555089   -1.1774206347
     21  C        11.2218188225   -0.4141312107    0.1253691214
     22  H        11.5442109265   -0.8366638898   -1.9755350360
     23  H        12.2203643324   -0.3858020790    0.5304440002
   Point Group: c1    Number of degrees of freedom:    63


   Energy is  -1656.389130260

              Constraints and their Current Values
                                        Value     Constraint
   Dihedral:       13  15  16  18     -110.000     -110.000
 Hessian Updated using BFGS Update

 62 Hessian modes will be used to form the next step
  Hessian Eigenvalues:
     0.044685    0.045000    0.045000    0.045000    0.045000    0.045000
     0.045001    0.045001    0.045001    0.045002    0.045003    0.045003
     0.045008    0.045012    0.045012    0.045026    0.045047    0.045058
     0.045059    0.159331    0.159945    0.159946    0.159976    0.159993
     0.159994    0.160000    0.160206    0.189284    0.221308    0.221927
     0.229905    0.238054    0.238715    0.246455    0.249670    0.249672
     0.283506    0.324672    0.326585    0.327321    0.338559    0.340068
     0.340390    0.365198    0.365513    0.365521    0.366546    0.366889
     0.367336    0.369913    0.370100    0.399191    0.414794    0.434755
     0.435420    0.437191    0.462686    0.463119    0.471281    0.495014
     0.495504    0.577596

 Minimum Search - Taking Simple RFO Step
 Searching for Lamda that Minimizes Along All modes
 Value Taken    Lamda =  -0.02305579
 Calculated Step too Large.  Step scaled by  0.871359
 Step Taken.  Stepsize is  0.300000

                             Maximum     Tolerance    Cnvgd?
         Gradient           0.031809      0.000300      NO
         Displacement       0.124564      0.001200      NO
         Energy change     -0.031218      0.000001      NO


 New Cartesian Coordinates Obtained by Inverse Iteration

 Displacement from previous Coordinates is:  1.072033
 ----------------------------------------------------------------
             Standard Nuclear Orientation (Angstroms)
    I     Atom           X                Y                Z
 ----------------------------------------------------------------
    1      H      -0.0795722771    -0.3940917962    -0.0672206547
    2      H       0.9111052505    -2.7641943682    -0.7026478839
    3      C       0.9684125374    -0.6513062360    -0.1628217683
    4      C       1.5113346255    -1.8865652125    -0.4958637666
    5      S       2.1545824199     0.5654197906     0.1104438711
    6      C       2.9090379213    -1.8503018097    -0.5356950017
    7      H       3.5324128271    -2.7004771178    -0.7909771065
    8      C       3.4369234793    -0.5758516893    -0.2312785772
    9      H       4.6335998144     1.9030796135     0.2959380201
   10      C       4.8108908173    -0.2494762418    -0.1606028539
   11      C       5.2901487322     1.0539833664     0.1359625380
   12      S       6.1225041904    -1.3713443199    -0.3812945015
   13      C       6.6747084027     1.1191008614     0.1894508012
   14      H       7.2423952398     2.0169824182     0.4013840540
   15      C       7.2949310549    -0.1198514375    -0.0685069214
   16      C       8.7183670062    -0.3629631200    -0.1839663380
   17      H       8.8774663310    -0.8559241691    -2.3027544706
   18      C       9.3908650486    -0.6831695833    -1.3635458992
   19      S       9.8379451525    -0.1398790399     1.1339567763
   20      C      10.7926247602    -0.7511084827    -1.1942684809
   21      C      11.1754183341    -0.4973008174     0.1062905784
   22      H      11.4940850496    -0.9805000903    -1.9873144008
   23      H      12.1766932822    -0.5010606485     0.5185217862
 ----------------------------------------------------------------
 Nuclear Repulsion Energy =  1175.8887421673 hartrees
 There are       64 alpha and       63 beta electrons
 Applying Cartesian multipole field
    Component          Value
    ---------          -----
     (2,0,0)        1.00000E-12
     (0,2,0)        2.00000E-11
     (0,0,2)       -3.00000E-11
 Nucleus-field energy     =     0.0000000250 hartrees
 Requested basis set is 6-31++G(d,p)
 There are 110 shells and 345 basis functions
 A cutoff of  1.0D-12 yielded   4700 shell pairs
 There are     47885 function pairs

 Q-Chem warning in module /project/projectdirs/jcesr/qchem/qc44/cnl_qc441/compile/cori/qc_src/libqints/qchem/aobasis.C, line 68:

 Using reconstructed effective core potential

 Smallest overlap matrix eigenvalue = 7.59E-08
 Linear dependence detected in AO basis
 Number of orthogonalized atomic orbitals = 343
 Maximum deviation from orthogonality = 1.592E-10
 No. of orbitals has changed due to linear dependencies.  Generating new SCF guess.
 Guess from superposition of atomic densities
 Warning:  Energy on first SCF cycle will be non-variational
 An unrestricted hybrid HF-DFT SCF calculation will be
 performed using Pulay DIIS extrapolation
 Exchange:     0.2000 Hartree-Fock + 0.0800 Slater + 0.7200 B88
 Correlation:  0.1900 VWN1RPA + 0.8100 LYP
 Using SG-1 standard quadrature grid
 SCF converges when DIIS error is below 1.0E-08
 Geometry optimization detected.  Setting ReadMinima to 0
 Setting SaveMinima to 0
 Inaccurate integrated density:
   Number of electrons =   127
   Numerical integral  =   127.999928025575
   Relative error      =     0.7873449020 %
 ---------------------------------------
  Cycle       Energy         DIIS Error
 ---------------------------------------
    1   -1660.3190370397      3.68E-02
    2   -1656.2055783666      3.40E-03
    3   -1655.7942088326      5.74E-03
    4   -1656.3722470347      1.26E-03
    5   -1656.3970430157      4.98E-04
    6   -1656.4008379412      2.19E-04
    7   -1656.4016116226      9.89E-05
    8   -1656.4018188975      2.48E-05
    9   -1656.4018453474      8.93E-06
   10   -1656.4018594453      4.57E-06
   11   -1656.4018680359      3.98E-06
   12   -1656.4018722534      1.78E-06
   13   -1656.4018740257      9.59E-07
   14   -1656.4018742122      4.11E-07
   15   -1656.4018742805      1.45E-07
   16   -1656.4018742886      9.63E-08
   17   -1656.4018742912      4.29E-08
   18   -1656.4018742913      2.99E-08
   19   -1656.4018742936      1.56E-08
   20   -1656.4018742943      8.82E-09 Convergence criterion met
 ---------------------------------------
 <S^2> = 0.7655
 SCF time:  CPU 27.92 s  wall 25.81 s
 SCF   energy in the final basis set = -1656.4018742943
 Total energy in the final basis set = -1656.4018742943
 
 --------------------------------------------------------------
 
                    Orbital Energies (a.u.)
 --------------------------------------------------------------
 
 Alpha MOs
 -- Occupied --
-89.082 -89.076 -89.052 -10.413 -10.412 -10.403 -10.391 -10.374
-10.371 -10.368 -10.365 -10.357 -10.356 -10.341 -10.327  -8.141
 -8.136  -8.111  -6.105  -6.101  -6.100  -6.097  -6.096  -6.093
 -6.075  -6.071  -6.068  -1.069  -1.045  -1.020  -0.945  -0.917
 -0.901  -0.887  -0.875  -0.840  -0.771  -0.747  -0.713  -0.697
 -0.690  -0.684  -0.666  -0.644  -0.607  -0.576  -0.573  -0.572
 -0.560  -0.552  -0.547  -0.535  -0.531  -0.522  -0.519  -0.508
 -0.502  -0.482  -0.447  -0.425  -0.416  -0.390  -0.384  -0.359
 -- Virtual --
 -0.229  -0.170  -0.157  -0.143  -0.132  -0.120  -0.114  -0.103
 -0.098  -0.095  -0.092  -0.087  -0.083  -0.080  -0.075  -0.073
 -0.069  -0.063  -0.057  -0.054  -0.049  -0.043  -0.035  -0.029
 -0.027  -0.020  -0.016  -0.011  -0.004   0.000   0.001   0.004
  0.009   0.013   0.016   0.019   0.020   0.023   0.026   0.030
  0.032   0.037   0.040   0.043   0.043   0.047   0.049   0.052
  0.055   0.058   0.062   0.063   0.066   0.072   0.073   0.081
  0.085   0.089   0.096   0.100   0.101   0.107   0.111   0.113
  0.116   0.120   0.122   0.128   0.132   0.142   0.143   0.145
  0.151   0.158   0.162   0.166   0.172   0.175   0.185   0.188
  0.193   0.206   0.208   0.221   0.224   0.231   0.233   0.244
  0.251   0.257   0.260   0.264   0.279   0.319   0.331   0.342
  0.365   0.373   0.376   0.388   0.416   0.421   0.430   0.450
  0.461   0.464   0.487   0.494   0.497   0.500   0.509   0.511
  0.514   0.530   0.549   0.556   0.561   0.572   0.580   0.585
  0.597   0.599   0.602   0.613   0.615   0.639   0.642   0.656
  0.662   0.669   0.675   0.680   0.686   0.696   0.710   0.731
  0.764   0.780   0.791   0.801   0.814   0.817   0.821   0.823
  0.839   0.842   0.846   0.849   0.854   0.862   0.881   0.883
  0.895   0.910   0.915   0.918   0.934   0.946   0.955   0.959
  0.979   0.996   1.023   1.026   1.038   1.050   1.089   1.098
  1.116   1.123   1.141   1.148   1.170   1.190   1.192   1.200
  1.205   1.224   1.236   1.258   1.277   1.302   1.312   1.335
  1.363   1.385   1.394   1.421   1.471   1.511   1.546   1.564
  1.609   1.664   1.694   1.705   1.720   1.748   1.761   1.782
  1.785   1.792   1.802   1.818   1.861   1.872   1.882   1.902
  1.908   1.929   1.961   1.984   1.999   2.017   2.028   2.049
  2.056   2.086   2.092   2.107   2.133   2.157   2.183   2.218
  2.248   2.270   2.287   2.294   2.304   2.311   2.338   2.340
  2.368   2.372   2.383   2.386   2.412   2.435   2.456   2.466
  2.472   2.512   2.535   2.557   2.565   2.606   2.663   2.710
  2.719   2.740   2.761   2.769   2.782   2.983   3.039   3.058
  3.131   3.153   3.172   3.260   3.286   3.531   3.587   3.611
  3.819   3.832   3.849   4.093   4.146   4.159   4.168   4.186
  4.199   4.246   4.332   4.394   4.504   4.552   4.573
 
 Beta MOs
 -- Occupied --
-89.082 -89.076 -89.052 -10.410 -10.409 -10.402 -10.388 -10.373
-10.369 -10.366 -10.365 -10.356 -10.355 -10.340 -10.328  -8.141
 -8.136  -8.111  -6.105  -6.102  -6.100  -6.098  -6.096  -6.093
 -6.075  -6.071  -6.068  -1.064  -1.040  -1.017  -0.939  -0.915
 -0.900  -0.882  -0.874  -0.834  -0.767  -0.744  -0.710  -0.694
 -0.688  -0.683  -0.664  -0.642  -0.606  -0.572  -0.570  -0.564
 -0.558  -0.550  -0.538  -0.534  -0.530  -0.520  -0.511  -0.504
 -0.501  -0.481  -0.426  -0.423  -0.412  -0.388  -0.369
 -- Virtual --
 -0.305  -0.212  -0.163  -0.146  -0.141  -0.129  -0.116  -0.110
 -0.098  -0.096  -0.094  -0.087  -0.084  -0.081  -0.077  -0.075
 -0.071  -0.068  -0.062  -0.057  -0.053  -0.048  -0.043  -0.034
 -0.028  -0.026  -0.019  -0.015  -0.010  -0.004   0.000   0.002
  0.005   0.009   0.013   0.016   0.020   0.021   0.024   0.027
  0.030   0.033   0.038   0.041   0.043   0.044   0.047   0.050
  0.053   0.056   0.059   0.062   0.064   0.067   0.072   0.074
  0.082   0.086   0.091   0.097   0.101   0.102   0.108   0.112
  0.115   0.117   0.121   0.123   0.130   0.133   0.143   0.144
  0.146   0.152   0.159   0.163   0.167   0.173   0.176   0.186
  0.189   0.194   0.208   0.209   0.223   0.225   0.232   0.234
  0.244   0.252   0.259   0.261   0.266   0.280   0.320   0.332
  0.343   0.367   0.374   0.377   0.388   0.417   0.422   0.431
  0.452   0.462   0.465   0.489   0.497   0.502   0.503   0.511
  0.517   0.522   0.532   0.552   0.556   0.563   0.576   0.581
  0.588   0.599   0.600   0.608   0.614   0.615   0.642   0.643
  0.658   0.664   0.673   0.679   0.683   0.687   0.700   0.712
  0.733   0.766   0.783   0.792   0.803   0.816   0.820   0.823
  0.826   0.840   0.843   0.848   0.850   0.855   0.863   0.882
  0.884   0.896   0.911   0.916   0.919   0.935   0.948   0.956
  0.961   0.980   0.997   1.025   1.029   1.041   1.053   1.092
  1.101   1.120   1.131   1.143   1.150   1.172   1.193   1.195
  1.204   1.212   1.227   1.238   1.260   1.279   1.308   1.317
  1.339   1.367   1.389   1.398   1.425   1.475   1.519   1.557
  1.569   1.615   1.669   1.697   1.708   1.725   1.751   1.763
  1.784   1.787   1.796   1.805   1.821   1.865   1.875   1.884
  1.906   1.915   1.934   1.963   1.989   2.006   2.026   2.034
  2.052   2.060   2.091   2.098   2.113   2.137   2.163   2.187
  2.221   2.249   2.275   2.291   2.298   2.308   2.314   2.341
  2.342   2.369   2.377   2.385   2.388   2.415   2.438   2.458
  2.468   2.475   2.514   2.538   2.561   2.567   2.608   2.666
  2.714   2.721   2.743   2.763   2.771   2.784   2.984   3.040
  3.059   3.131   3.153   3.172   3.261   3.287   3.532   3.588
  3.612   3.819   3.833   3.849   4.097   4.151   4.162   4.171
  4.189   4.201   4.251   4.335   4.398   4.507   4.555   4.575
 --------------------------------------------------------------
 
          Ground-State Mulliken Net Atomic Charges

     Atom                 Charge (a.u.)    Spin (a.u.)
  --------------------------------------------------------
      1 H                     0.248157      -0.013517
      2 H                     0.167023       0.001471
      3 C                     0.077690       0.272475
      4 C                    -0.344027      -0.044932
      5 S                    -0.063391      -0.039208
      6 C                     0.553290       0.152796
      7 H                     0.146880      -0.010043
      8 C                    -0.201470       0.067499
      9 H                     0.139813      -0.007253
     10 C                     0.005676       0.158853
     11 C                    -0.318259       0.099370
     12 S                     0.036735      -0.055015
     13 C                     0.236971       0.012384
     14 H                     0.175328      -0.001023
     15 C                    -0.192978       0.241368
     16 C                    -0.206316       0.038699
     17 H                     0.156251      -0.004534
     18 C                     0.178372       0.055720
     19 S                     0.151952      -0.016970
     20 C                    -0.331771      -0.015492
     21 C                     0.004152       0.110627
     22 H                     0.152780       0.001470
     23 H                     0.227142      -0.004743
  --------------------------------------------------------
  Sum of atomic charges =     1.000000
  Sum of spin   charges =     1.000000

 -----------------------------------------------------------------
                    Cartesian Multipole Moments
 -----------------------------------------------------------------
    Charge (ESU x 10^10)
                 4.8032
    Dipole Moment (Debye)
         X      26.4582      Y      -2.0965      Z      -1.3870
       Tot      26.5774
    Quadrupole Moments (Debye-Ang)
        XX     124.4302     XY      -7.2791     YY     -93.4498
        XZ      -8.6489     YZ       5.9752     ZZ    -102.8969
    Octopole Moments (Debye-Ang^2)
       XXX     357.5542    XXY     -36.6441    XYY    -605.6345
       YYY     117.4631    XXZ     -59.3876    XYZ      33.8064
       YYZ       6.2006    XZZ    -599.2384    YZZ      37.8970
       ZZZ      30.5724
    Hexadecapole Moments (Debye-Ang^3)
      XXXX   -5973.4921   XXXY    -318.8966   XXYY   -5089.7303
      XYYY     741.1055   YYYY    -660.4845   XXXZ    -464.2125
      XXYZ     238.2723   XYYZ      42.5612   YYYZ     -73.8343
      XXZZ   -4663.4270   XYZZ     184.8782   YYZZ    -190.4511
      XZZZ      90.3385   YZZZ     -92.6111   ZZZZ    -381.5335
 -----------------------------------------------------------------
 Calculating analytic gradient of the SCF energy
 Gradient of SCF Energy
            1           2           3           4           5           6
    1  -0.0000233   0.0001844   0.0019679  -0.0007846   0.0035677   0.0026543
    2   0.0006090  -0.0002438  -0.0013521  -0.0009452  -0.0005762  -0.0023414
    3   0.0000474  -0.0000200  -0.0004632   0.0000213   0.0000322   0.0006637
            7           8           9          10          11          12
    1   0.0002787  -0.0084124  -0.0007059   0.0123359  -0.0054835  -0.0027822
    2  -0.0001236   0.0170397   0.0008131  -0.0191755   0.0032757   0.0034001
    3  -0.0006897   0.0024320   0.0007939  -0.0028262   0.0001395   0.0031556
           13          14          15          16          17          18
    1   0.0014241  -0.0006261  -0.0060890   0.0033677  -0.0002031   0.0010276
    2   0.0033357   0.0000160  -0.0059942   0.0003025  -0.0008170   0.0076016
    3  -0.0080342   0.0007294   0.0016296   0.0089183   0.0000949  -0.0041636
           19          20          21          22          23
    1  -0.0006885  -0.0003797  -0.0010818   0.0001966   0.0002553
    2  -0.0039480  -0.0001798  -0.0013217  -0.0003552   0.0009804
    3  -0.0024508  -0.0016329   0.0015638   0.0000953  -0.0000361
 Max gradient component =       1.918E-02
 RMS gradient           =       4.431E-03
 Gradient time:  CPU 4.35 s  wall 4.22 s
 Geometry Optimization Parameters
   NAtoms,    NIC,     NZ,  NCons,   NDum,   NFix, NCnnct, MaxDiis
       23     166       0       1       0       0       0       0

 Cartesian Hessian Update
 Hessian Updated using BFGS Update


** CONSTRAINED OPTIMIZATION IN DELOCALIZED INTERNAL COORDINATES **
   Searching for a Minimum

   Optimization Cycle:   3

                       Coordinates (Angstroms)
     ATOM                X               Y               Z
      1  H        -0.0795722771   -0.3940917962   -0.0672206547
      2  H         0.9111052505   -2.7641943682   -0.7026478839
      3  C         0.9684125374   -0.6513062360   -0.1628217683
      4  C         1.5113346255   -1.8865652125   -0.4958637666
      5  S         2.1545824199    0.5654197906    0.1104438711
      6  C         2.9090379213   -1.8503018097   -0.5356950017
      7  H         3.5324128271   -2.7004771178   -0.7909771065
      8  C         3.4369234793   -0.5758516893   -0.2312785772
      9  H         4.6335998144    1.9030796135    0.2959380201
     10  C         4.8108908173   -0.2494762418   -0.1606028539
     11  C         5.2901487322    1.0539833664    0.1359625380
     12  S         6.1225041904   -1.3713443199   -0.3812945015
     13  C         6.6747084027    1.1191008614    0.1894508012
     14  H         7.2423952398    2.0169824182    0.4013840540
     15  C         7.2949310549   -0.1198514375   -0.0685069214
     16  C         8.7183670062   -0.3629631200   -0.1839663380
     17  H         8.8774663310   -0.8559241691   -2.3027544706
     18  C         9.3908650486   -0.6831695833   -1.3635458992
     19  S         9.8379451525   -0.1398790399    1.1339567763
     20  C        10.7926247602   -0.7511084827   -1.1942684809
     21  C        11.1754183341   -0.4973008174    0.1062905784
     22  H        11.4940850496   -0.9805000903   -1.9873144008
     23  H        12.1766932822   -0.5010606485    0.5185217862
   Point Group: c1    Number of degrees of freedom:    63


   Energy is  -1656.401874294

              Constraints and their Current Values
                                        Value     Constraint
   Dihedral:       13  15  16  18     -110.000     -110.000
 Hessian Updated using BFGS Update

 62 Hessian modes will be used to form the next step
  Hessian Eigenvalues:
     0.042455    0.045000    0.045000    0.045000    0.045000    0.045001
     0.045001    0.045001    0.045002    0.045002    0.045003    0.045005
     0.045008    0.045012    0.045012    0.045026    0.045056    0.045059
     0.045136    0.155410    0.159945    0.159955    0.159979    0.159993
     0.159998    0.160026    0.160488    0.171559    0.221308    0.223478
     0.229925    0.238124    0.240409    0.249476    0.249672    0.260745
     0.279432    0.323533    0.326581    0.327943    0.338069    0.340082
     0.341502    0.365512    0.365516    0.365826    0.366889    0.367244
     0.367887    0.370099    0.370893    0.401650    0.423300    0.435420
     0.435513    0.442182    0.463052    0.464720    0.481670    0.495067
     0.497291    0.578281

 Minimum Search - Taking Simple RFO Step
 Searching for Lamda that Minimizes Along All modes
 Value Taken    Lamda =  -0.00432488
 Step Taken.  Stepsize is  0.219255

                             Maximum     Tolerance    Cnvgd?
         Gradient           0.011216      0.000300      NO
         Displacement       0.080196      0.001200      NO
         Energy change     -0.012744      0.000001      NO


 New Cartesian Coordinates Obtained by Inverse Iteration

 Displacement from previous Coordinates is:  0.570245
 ----------------------------------------------------------------
             Standard Nuclear Orientation (Angstroms)
    I     Atom           X                Y                Z
 ----------------------------------------------------------------
    1      H      -0.0994631859    -0.4464360981    -0.1206978729
    2      H       0.9458637458    -2.7845474391    -0.7645687882
    3      C       0.9553047957    -0.6818707145    -0.1984826612
    4      C       1.5303178408    -1.9016921961    -0.5359186949
    5      S       2.1225148840     0.5421333786     0.1089949858
    6      C       2.9286468971    -1.8504157241    -0.5482685986
    7      H       3.5631219953    -2.6935034677    -0.7982640508
    8      C       3.4427724884    -0.5773325356    -0.2176488061
    9      H       4.6590649737     1.9632095316     0.3444972227
   10      C       4.7932829000    -0.1830167830    -0.1144372912
   11      C       5.3036081565     1.1045301617     0.1914949129
   12      S       6.1080763363    -1.3217098764    -0.3419944636
   13      C       6.6893766829     1.1499772492     0.2443241225
   14      H       7.2705928451     2.0428263655     0.4432803096
   15      C       7.3038494617    -0.0914907837    -0.0169955965
   16      C       8.7096714396    -0.3816718406    -0.1831922384
   17      H       8.8361212041    -0.9449805839    -2.2834286404
   18      C       9.3629886922    -0.7434947035    -1.3574090407
   19      S       9.8593158479    -0.0747214186     1.1025066503
   20      C      10.7691147484    -0.7967971747    -1.2095996110
   21      C      11.1792625186    -0.4811772849     0.0671663938
   22      H      11.4549422170    -1.0542020687    -2.0077348771
   23      H      12.1885325148    -0.4704161235     0.4595664341
 ----------------------------------------------------------------
 Nuclear Repulsion Energy =  1174.8722115578 hartrees
 There are       64 alpha and       63 beta electrons
 Applying Cartesian multipole field
    Component          Value
    ---------          -----
     (2,0,0)        1.00000E-12
     (0,2,0)        2.00000E-11
     (0,0,2)       -3.00000E-11
 Nucleus-field energy     =     0.0000000251 hartrees
 Requested basis set is 6-31++G(d,p)
 There are 110 shells and 345 basis functions
 A cutoff of  1.0D-12 yielded   4697 shell pairs
 There are     47862 function pairs

 Q-Chem warning in module /project/projectdirs/jcesr/qchem/qc44/cnl_qc441/compile/cori/qc_src/libqints/qchem/aobasis.C, line 68:

 Using reconstructed effective core potential

 Smallest overlap matrix eigenvalue = 8.71E-08
 Linear dependence detected in AO basis
 Number of orthogonalized atomic orbitals = 343
 Maximum deviation from orthogonality = 2.177E-10
 Guess MOs from SCF MO coefficient file
 Reading MOs from coefficient file
 Reading MOs from coefficient file
 An unrestricted hybrid HF-DFT SCF calculation will be
 performed using Pulay DIIS extrapolation
 Exchange:     0.2000 Hartree-Fock + 0.0800 Slater + 0.7200 B88
 Correlation:  0.1900 VWN1RPA + 0.8100 LYP
 Using SG-1 standard quadrature grid
 SCF converges when DIIS error is below 1.0E-08
 Geometry optimization detected.  Setting ReadMinima to 0
 Setting SaveMinima to 0
 ---------------------------------------
  Cycle       Energy         DIIS Error
 ---------------------------------------
    1   -1656.3615962011      1.67E-03
    2   -1656.4030256172      2.63E-04
    3   -1656.4004269734      4.67E-04
    4   -1656.4042820938      8.11E-05
    5   -1656.4043835101      2.40E-05
    6   -1656.4043929441      1.16E-05
    7   -1656.4043952206      5.19E-06
    8   -1656.4043958337      1.96E-06
    9   -1656.4043959978      1.03E-06
   10   -1656.4043960773      5.35E-07
   11   -1656.4043961324      2.85E-07
   12   -1656.4043961528      1.42E-07
   13   -1656.4043961583      4.50E-08
   14   -1656.4043961583      2.04E-08
   15   -1656.4043961584      9.17E-09 Convergence criterion met
 ---------------------------------------
 <S^2> = 0.7651
 SCF time:  CPU 21.09 s  wall 19.62 s
 SCF   energy in the final basis set = -1656.4043961584
 Total energy in the final basis set = -1656.4043961584
 
 --------------------------------------------------------------
 
                    Orbital Energies (a.u.)
 --------------------------------------------------------------
 
 Alpha MOs
 -- Occupied --
-89.078 -89.074 -89.053 -10.413 -10.412 -10.403 -10.390 -10.377
-10.372 -10.368 -10.367 -10.359 -10.355 -10.344 -10.330  -8.137
 -8.133  -8.111  -6.101  -6.098  -6.097  -6.094  -6.094  -6.090
 -6.076  -6.072  -6.069  -1.067  -1.043  -1.021  -0.945  -0.916
 -0.900  -0.885  -0.876  -0.842  -0.771  -0.748  -0.714  -0.698
 -0.690  -0.683  -0.666  -0.644  -0.608  -0.575  -0.573  -0.572
 -0.560  -0.555  -0.547  -0.537  -0.533  -0.520  -0.518  -0.507
 -0.498  -0.483  -0.448  -0.424  -0.414  -0.392  -0.386  -0.358
 -- Virtual --
 -0.229  -0.172  -0.156  -0.141  -0.131  -0.120  -0.114  -0.104
 -0.097  -0.095  -0.089  -0.087  -0.083  -0.081  -0.075  -0.073
 -0.069  -0.063  -0.057  -0.054  -0.050  -0.043  -0.035  -0.028
 -0.027  -0.020  -0.016  -0.011  -0.004   0.000   0.001   0.004
  0.008   0.012   0.016   0.019   0.021   0.024   0.026   0.030
  0.033   0.037   0.040   0.043   0.043   0.047   0.048   0.052
  0.055   0.058   0.062   0.064   0.067   0.072   0.074   0.080
  0.085   0.089   0.095   0.100   0.102   0.106   0.109   0.113
  0.115   0.121   0.122   0.127   0.134   0.138   0.142   0.146
  0.151   0.158   0.162   0.166   0.172   0.177   0.184   0.188
  0.194   0.203   0.208   0.221   0.224   0.230   0.235   0.243
  0.252   0.259   0.260   0.266   0.278   0.319   0.329   0.345
  0.368   0.375   0.377   0.391   0.417   0.423   0.432   0.448
  0.460   0.462   0.486   0.495   0.497   0.498   0.509   0.511
  0.514   0.528   0.548   0.554   0.559   0.573   0.579   0.585
  0.596   0.599   0.603   0.613   0.615   0.638   0.642   0.653
  0.663   0.667   0.677   0.680   0.688   0.697   0.710   0.731
  0.762   0.778   0.790   0.799   0.812   0.816   0.822   0.824
  0.837   0.840   0.846   0.849   0.855   0.862   0.881   0.884
  0.893   0.912   0.914   0.916   0.932   0.945   0.956   0.960
  0.978   0.992   1.020   1.029   1.036   1.049   1.087   1.095
  1.116   1.118   1.136   1.146   1.169   1.188   1.191   1.197
  1.205   1.221   1.231   1.256   1.288   1.309   1.320   1.340
  1.367   1.395   1.397   1.426   1.470   1.518   1.550   1.557
  1.596   1.661   1.691   1.704   1.712   1.743   1.760   1.772
  1.782   1.784   1.797   1.816   1.856   1.873   1.883   1.899
  1.906   1.938   1.961   1.980   1.993   2.017   2.029   2.039
  2.054   2.082   2.088   2.104   2.131   2.155   2.188   2.219
  2.247   2.270   2.288   2.292   2.303   2.307   2.336   2.338
  2.368   2.373   2.384   2.389   2.406   2.440   2.453   2.465
  2.475   2.513   2.534   2.559   2.564   2.603   2.657   2.711
  2.721   2.745   2.764   2.785   2.790   2.984   3.038   3.059
  3.133   3.151   3.171   3.261   3.285   3.528   3.586   3.609
  3.822   3.831   3.848   4.092   4.144   4.157   4.169   4.187
  4.198   4.248   4.333   4.393   4.504   4.551   4.574
 
 Beta MOs
 -- Occupied --
-89.078 -89.074 -89.053 -10.410 -10.409 -10.402 -10.387 -10.376
-10.370 -10.366 -10.366 -10.358 -10.356 -10.343 -10.330  -8.137
 -8.133  -8.111  -6.102  -6.098  -6.098  -6.094  -6.094  -6.091
 -6.076  -6.072  -6.069  -1.062  -1.039  -1.018  -0.939  -0.914
 -0.898  -0.881  -0.875  -0.835  -0.768  -0.745  -0.711  -0.695
 -0.688  -0.682  -0.664  -0.642  -0.607  -0.572  -0.570  -0.563
 -0.558  -0.553  -0.539  -0.536  -0.531  -0.517  -0.510  -0.504
 -0.497  -0.482  -0.428  -0.421  -0.410  -0.389  -0.372
 -- Virtual --
 -0.305  -0.213  -0.164  -0.145  -0.140  -0.129  -0.116  -0.111
 -0.098  -0.096  -0.094  -0.086  -0.084  -0.081  -0.076  -0.075
 -0.071  -0.068  -0.062  -0.057  -0.053  -0.049  -0.043  -0.034
 -0.027  -0.025  -0.019  -0.015  -0.010  -0.004   0.001   0.002
  0.005   0.009   0.013   0.017   0.020   0.021   0.025   0.027
  0.030   0.034   0.037   0.041   0.043   0.044   0.048   0.049
  0.054   0.056   0.058   0.062   0.064   0.068   0.073   0.075
  0.081   0.086   0.090   0.096   0.101   0.103   0.107   0.110
  0.114   0.117   0.122   0.123   0.129   0.135   0.140   0.142
  0.147   0.152   0.159   0.163   0.167   0.173   0.178   0.185
  0.189   0.195   0.205   0.210   0.223   0.225   0.231   0.236
  0.243   0.253   0.260   0.262   0.267   0.279   0.321   0.331
  0.346   0.369   0.375   0.378   0.391   0.418   0.424   0.433
  0.449   0.461   0.464   0.487   0.496   0.499   0.504   0.512
  0.517   0.522   0.531   0.551   0.556   0.561   0.576   0.581
  0.587   0.597   0.600   0.609   0.613   0.616   0.641   0.643
  0.655   0.665   0.670   0.681   0.683   0.690   0.701   0.712
  0.733   0.765   0.782   0.791   0.800   0.815   0.819   0.825
  0.826   0.838   0.842   0.848   0.849   0.856   0.863   0.882
  0.885   0.894   0.913   0.915   0.918   0.933   0.947   0.957
  0.961   0.979   0.994   1.022   1.031   1.039   1.052   1.090
  1.098   1.121   1.125   1.138   1.148   1.171   1.191   1.195
  1.201   1.212   1.224   1.234   1.258   1.290   1.313   1.326
  1.344   1.371   1.398   1.402   1.429   1.473   1.526   1.558
  1.563   1.602   1.666   1.694   1.705   1.717   1.746   1.761
  1.777   1.785   1.787   1.798   1.818   1.861   1.875   1.886
  1.906   1.909   1.942   1.963   1.985   2.000   2.025   2.034
  2.043   2.058   2.087   2.093   2.109   2.136   2.160   2.192
  2.222   2.248   2.274   2.291   2.297   2.306   2.312   2.339
  2.340   2.370   2.378   2.386   2.391   2.409   2.443   2.456
  2.467   2.478   2.515   2.536   2.563   2.566   2.606   2.661
  2.713   2.724   2.747   2.766   2.788   2.791   2.985   3.039
  3.060   3.133   3.151   3.172   3.262   3.286   3.529   3.588
  3.610   3.822   3.832   3.848   4.097   4.148   4.161   4.172
  4.189   4.201   4.253   4.336   4.397   4.507   4.554   4.577
 --------------------------------------------------------------
 
          Ground-State Mulliken Net Atomic Charges

     Atom                 Charge (a.u.)    Spin (a.u.)
  --------------------------------------------------------
      1 H                     0.248232      -0.013193
      2 H                     0.166656       0.001243
      3 C                     0.095085       0.264073
      4 C                    -0.349680      -0.040382
      5 S                    -0.074358      -0.034163
      6 C                     0.622599       0.145662
      7 H                     0.150564      -0.009611
      8 C                    -0.312133       0.065316
      9 H                     0.149560      -0.006495
     10 C                    -0.033291       0.159933
     11 C                    -0.171001       0.095095
     12 S                    -0.059288      -0.055602
     13 C                     0.235698       0.023694
     14 H                     0.176702      -0.002192
     15 C                    -0.185533       0.227370
     16 C                    -0.223058       0.039794
     17 H                     0.159421      -0.004974
     18 C                     0.219484       0.061090
     19 S                     0.138555      -0.017450
     20 C                    -0.357368      -0.015937
     21 C                     0.022476       0.120664
     22 H                     0.152900       0.001541
     23 H                     0.227779      -0.005476
  --------------------------------------------------------
  Sum of atomic charges =     1.000000
  Sum of spin   charges =     1.000000

 -----------------------------------------------------------------
                    Cartesian Multipole Moments
 -----------------------------------------------------------------
    Charge (ESU x 10^10)
                 4.8032
    Dipole Moment (Debye)
         X      26.7743      Y      -2.0281      Z      -1.4629
       Tot      26.8908
    Quadrupole Moments (Debye-Ang)
        XX     129.0328     XY      -6.7001     YY     -93.4060
        XZ      -9.0621     YZ       6.4576     ZZ    -102.9732
    Octopole Moments (Debye-Ang^2)
       XXX     412.9188    XXY     -34.4685    XYY    -603.6480
       YYY     114.7893    XXZ     -65.9071    XYZ      37.6218
       YYZ       5.2547    XZZ    -599.9372    YZZ      36.3180
       ZZZ      28.7702
    Hexadecapole Moments (Debye-Ang^3)
      XXXX   -5339.1884   XXXY    -328.8401   XXYY   -5068.0081
      XYYY     713.9410   YYYY    -663.2883   XXXZ    -547.4219
      XXYZ     273.2853   XYYZ      36.4159   YYYZ     -80.1500
      XXZZ   -4672.2139   XYZZ     171.9243   YYZZ    -188.4432
      XZZZ      77.8264   YZZZ     -99.2716   ZZZZ    -378.5786
 -----------------------------------------------------------------
 Calculating analytic gradient of the SCF energy
 Gradient of SCF Energy
            1           2           3           4           5           6
    1  -0.0004042  -0.0002953  -0.0016141  -0.0001193   0.0020333  -0.0003135
    2   0.0003504   0.0001657  -0.0009799   0.0001684  -0.0012858  -0.0019364
    3   0.0000169   0.0000918  -0.0000648   0.0000687  -0.0004260   0.0003445
            7           8           9          10          11          12
    1   0.0003158   0.0024254  -0.0008938  -0.0009640   0.0010979  -0.0020687
    2   0.0002060   0.0037672  -0.0002470  -0.0038741   0.0022913   0.0013472
    3  -0.0003937  -0.0001825   0.0001569   0.0002549   0.0003848   0.0019449
           13          14          15          16          17          18
    1  -0.0017222   0.0004525   0.0009196   0.0010840  -0.0002831   0.0000412
    2   0.0017771  -0.0002956   0.0014910  -0.0078778  -0.0002916   0.0081753
    3  -0.0081505   0.0000943   0.0085661  -0.0010201   0.0000655  -0.0018572
           19          20          21          22          23
    1  -0.0012237   0.0008193   0.0002383   0.0001959   0.0002785
    2  -0.0020671   0.0003471  -0.0019229  -0.0000308   0.0007222
    3  -0.0004606   0.0009640  -0.0005847   0.0000959   0.0000911
 Max gradient component =       8.566E-03
 RMS gradient           =       2.298E-03
 Gradient time:  CPU 4.32 s  wall 4.21 s
 Geometry Optimization Parameters
   NAtoms,    NIC,     NZ,  NCons,   NDum,   NFix, NCnnct, MaxDiis
       23     166       0       1       0       0       0       0

 Cartesian Hessian Update
 Hessian Updated using BFGS Update


** CONSTRAINED OPTIMIZATION IN DELOCALIZED INTERNAL COORDINATES **
   Searching for a Minimum

   Optimization Cycle:   4

                       Coordinates (Angstroms)
     ATOM                X               Y               Z
      1  H        -0.0994631859   -0.4464360981   -0.1206978729
      2  H         0.9458637458   -2.7845474391   -0.7645687882
      3  C         0.9553047957   -0.6818707145   -0.1984826612
      4  C         1.5303178408   -1.9016921961   -0.5359186949
      5  S         2.1225148840    0.5421333786    0.1089949858
      6  C         2.9286468971   -1.8504157241   -0.5482685986
      7  H         3.5631219953   -2.6935034677   -0.7982640508
      8  C         3.4427724884   -0.5773325356   -0.2176488061
      9  H         4.6590649737    1.9632095316    0.3444972227
     10  C         4.7932829000   -0.1830167830   -0.1144372912
     11  C         5.3036081565    1.1045301617    0.1914949129
     12  S         6.1080763363   -1.3217098764   -0.3419944636
     13  C         6.6893766829    1.1499772492    0.2443241225
     14  H         7.2705928451    2.0428263655    0.4432803096
     15  C         7.3038494617   -0.0914907837   -0.0169955965
     16  C         8.7096714396   -0.3816718406   -0.1831922384
     17  H         8.8361212041   -0.9449805839   -2.2834286404
     18  C         9.3629886922   -0.7434947035   -1.3574090407
     19  S         9.8593158479   -0.0747214186    1.1025066503
     20  C        10.7691147484   -0.7967971747   -1.2095996110
     21  C        11.1792625186   -0.4811772849    0.0671663938
     22  H        11.4549422170   -1.0542020687   -2.0077348771
     23  H        12.1885325148   -0.4704161235    0.4595664341
   Point Group: c1    Number of degrees of freedom:    63


   Energy is  -1656.404396158

              Constraints and their Current Values
                                        Value     Constraint
   Dihedral:       13  15  16  18     -110.000     -110.000
 Hessian Updated using BFGS Update

 62 Hessian modes will be used to form the next step
  Hessian Eigenvalues:
     0.030890    0.045000    0.045000    0.045000    0.045000    0.045001
     0.045001    0.045002    0.045002    0.045003    0.045004    0.045006
     0.045011    0.045012    0.045023    0.045054    0.045058    0.045122
     0.045206    0.158846    0.159945    0.159972    0.159979    0.159998
     0.160011    0.160361    0.162325    0.188726    0.221321    0.223485
     0.229772    0.238125    0.241622    0.249667    0.250820    0.263078
     0.284944    0.322780    0.326655    0.327791    0.338147    0.340277
     0.341265    0.365512    0.365521    0.365821    0.366889    0.367238
     0.367895    0.370109    0.370788    0.401511    0.421203    0.435440
     0.436039    0.442845    0.463661    0.464295    0.480768    0.495670
     0.499734    0.582050

 Minimum Search - Taking Simple RFO Step
 Searching for Lamda that Minimizes Along All modes
 Value Taken    Lamda =  -0.00081078
 Step Taken.  Stepsize is  0.148405

                             Maximum     Tolerance    Cnvgd?
         Gradient           0.002716      0.000300      NO
         Displacement       0.056444      0.001200      NO
         Energy change     -0.002522      0.000001      NO


 New Cartesian Coordinates Obtained by Inverse Iteration

 Displacement from previous Coordinates is:  0.468664
 ----------------------------------------------------------------
             Standard Nuclear Orientation (Angstroms)
    I     Atom           X                Y                Z
 ----------------------------------------------------------------
[...]
      2 H                     0.164811       0.001237
      3 C                     0.085376       0.248186
      4 C                    -0.341645      -0.036933
      5 S                    -0.061890      -0.028589
      6 C                     0.620476       0.139751
      7 H                     0.149529      -0.009302
      8 C                    -0.321726       0.055705
      9 H                     0.148473      -0.005558
     10 C                    -0.112862       0.161744
     11 C                    -0.078528       0.095021
     12 S                    -0.064233      -0.055295
     13 C                     0.139746       0.030496
     14 H                     0.175265      -0.003241
     15 C                    -0.076412       0.208276
     16 C                    -0.178742       0.037744
     17 H                     0.160235      -0.006335
     18 C                     0.169572       0.078490
     19 S                     0.163213      -0.020037
     20 C                    -0.387025      -0.019570
     21 C                     0.018375       0.146289
     22 H                     0.153426       0.002012
     23 H                     0.229201      -0.007442
  --------------------------------------------------------
  Sum of atomic charges =     1.000000
  Sum of spin   charges =     1.000000

 -----------------------------------------------------------------
                    Cartesian Multipole Moments
 -----------------------------------------------------------------
    Charge (ESU x 10^10)
                 4.8032
    Dipole Moment (Debye)
         X      27.5281      Y      -1.9023      Z      -1.6025
       Tot      27.6403
    Quadrupole Moments (Debye-Ang)
        XX     138.7750     XY      -5.4426     YY     -93.5312
        XZ      -9.8778     YZ       7.3467     ZZ    -103.2228
    Octopole Moments (Debye-Ang^2)
       XXX     522.1147    XXY     -11.1608    XYY    -602.7384
       YYY     111.9733    XXZ     -82.6690    XYZ      45.1642
       YYZ       3.3710    XZZ    -604.2599    YZZ      35.1297
       ZZZ      26.0292
    Hexadecapole Moments (Debye-Ang^3)
      XXXX   -4149.2867   XXXY       5.6796   XXYY   -5059.5476
      XYYY     665.9223   YYYY    -670.5171   XXXZ    -805.6333
      XXYZ     345.5507   XYYZ      20.8361   YYYZ     -90.6189
      XXZZ   -4719.3091   XYZZ     158.4923   YYZZ    -183.3073
      XZZZ      47.5749   YZZZ    -109.7294   ZZZZ    -372.8637
 -----------------------------------------------------------------
 Calculating analytic gradient of the SCF energy
 Gradient of SCF Energy
            1           2           3           4           5           6
    1   0.0000009  -0.0000027  -0.0000152   0.0000016   0.0000268  -0.0000021
    2   0.0000091   0.0000077  -0.0000128   0.0000169  -0.0000078  -0.0000070
    3  -0.0000018  -0.0000110  -0.0000083  -0.0000052   0.0000040  -0.0000236
            7           8           9          10          11          12
    1   0.0000001  -0.0000053  -0.0000103   0.0000164   0.0000120  -0.0000049
    2   0.0000050   0.0000294  -0.0000072  -0.0000184   0.0000080   0.0000274
    3  -0.0000056   0.0000277   0.0000111  -0.0000253  -0.0000056   0.0000127
           13          14          15          16          17          18
    1  -0.0012526   0.0000069   0.0028926  -0.0032369  -0.0000052   0.0015762
    2   0.0012424  -0.0000075   0.0035179  -0.0141654   0.0000247   0.0093519
    3  -0.0096222   0.0000005   0.0140347  -0.0019582  -0.0000049  -0.0024137
           19          20          21          22          23
    1  -0.0000008  -0.0000036   0.0000003   0.0000035   0.0000023
    2  -0.0000180   0.0000090   0.0000144  -0.0000039  -0.0000158
    3  -0.0000189  -0.0000064   0.0000069   0.0000064   0.0000068
 Max gradient component =       1.417E-02
 RMS gradient           =       3.008E-03
 Gradient time:  CPU 4.23 s  wall 4.24 s
 Geometry Optimization Parameters
   NAtoms,    NIC,     NZ,  NCons,   NDum,   NFix, NCnnct, MaxDiis
       23     166       0       1       0       0       0       0

 Cartesian Hessian Update
 Hessian Updated using BFGS Update


** CONSTRAINED OPTIMIZATION IN DELOCALIZED INTERNAL COORDINATES **
   Searching for a Minimum

   Optimization Cycle:  10

                       Coordinates (Angstroms)
     ATOM                X               Y               Z
      1  H        -0.0867640021   -0.3655219250   -0.2458508635
      2  H         0.9230295047   -2.7209423353   -0.8743254405
      3  C         0.9641594587   -0.6235028968   -0.2864305110
      4  C         1.5182555344   -1.8546235288   -0.6130457794
      5  S         2.1452807514    0.5670963140    0.0814471890
      6  C         2.9172887314   -1.8401805349   -0.5677787452
      7  H         3.5358762506   -2.7019565010   -0.7923493033
      8  C         3.4490055849   -0.5889808136   -0.2042409402
      9  H         4.7117988468    1.9268749755    0.3894591017
     10  C         4.8072542232   -0.2224198851   -0.0627077670
     11  C         5.3347713700    1.0488614492    0.2616201243
     12  S         6.1092155083   -1.3911483163   -0.2538209894
     13  C         6.7179919802    1.0696219675    0.3558885356
     14  H         7.3028808182    1.9586670644    0.5608258901
     15  C         7.3188878847   -0.1841835014    0.1193970723
     16  C         8.7103630502   -0.4723275445   -0.0952246571
     17  H         8.7500073712   -1.2095876321   -2.1479553780
     18  C         9.3173198304   -0.8803459373   -1.2846840594
     19  S         9.9213412231    0.0967793481    1.0467678424
     20  C        10.7237943702   -0.7845120120   -1.2509585001
     21  C        11.1919747174   -0.2882412588   -0.0509695813
     22  H        11.3706035869   -1.0592958095   -2.0752738343
     23  H        12.2225434052   -0.1569308164    0.2534003942
   Point Group: c1    Number of degrees of freedom:    63


   Energy is  -1656.405422713

              Constraints and their Current Values
                                        Value     Constraint
   Dihedral:       13  15  16  18     -110.000     -110.000
 Hessian Updated using BFGS Update

 62 Hessian modes will be used to form the next step
  Hessian Eigenvalues:
     0.012849    0.025714    0.043732    0.045000    0.045000    0.045001
     0.045001    0.045001    0.045002    0.045003    0.045009    0.045011
     0.045012    0.045014    0.045023    0.045053    0.045061    0.045142
     0.045399    0.153457    0.159794    0.159930    0.159965    0.159987
     0.160209    0.160481    0.161671    0.173322    0.221500    0.222871
     0.225207    0.237109    0.240339    0.246963    0.249938    0.267706
     0.282093    0.301968    0.324953    0.325640    0.334265    0.338850
     0.341275    0.365501    0.365526    0.365870    0.366903    0.367281
     0.367924    0.370143    0.371031    0.399310    0.424464    0.434779
     0.438290    0.452309    0.462847    0.463648    0.477975    0.491370
     0.498662    0.559217

 Minimum Search - Taking Simple RFO Step
 Searching for Lamda that Minimizes Along All modes
 Value Taken    Lamda =   0.00000000
 Step Taken.  Stepsize is  0.001021

                             Maximum     Tolerance    Cnvgd?
         Gradient           0.000027      0.000300     YES
         Displacement       0.000481      0.001200     YES
         Energy change     -0.000000      0.000001     YES

 Final energy is   -1656.40542271259     


 ******************************
 **  OPTIMIZATION CONVERGED  **
 ******************************

                       Coordinates (Angstroms)
     ATOM                X               Y               Z
      1  H        -0.0867640021   -0.3655219250   -0.2458508635
      2  H         0.9230295047   -2.7209423353   -0.8743254405
      3  C         0.9641594587   -0.6235028968   -0.2864305110
      4  C         1.5182555344   -1.8546235288   -0.6130457794
      5  S         2.1452807514    0.5670963140    0.0814471890
      6  C         2.9172887314   -1.8401805349   -0.5677787452
      7  H         3.5358762506   -2.7019565010   -0.7923493033
      8  C         3.4490055849   -0.5889808136   -0.2042409402
      9  H         4.7117988468    1.9268749755    0.3894591017
     10  C         4.8072542232   -0.2224198851   -0.0627077670
     11  C         5.3347713700    1.0488614492    0.2616201243
     12  S         6.1092155083   -1.3911483163   -0.2538209894
     13  C         6.7179919802    1.0696219675    0.3558885356
     14  H         7.3028808182    1.9586670644    0.5608258901
     15  C         7.3188878847   -0.1841835014    0.1193970723
     16  C         8.7103630502   -0.4723275445   -0.0952246571
     17  H         8.7500073712   -1.2095876321   -2.1479553780
     18  C         9.3173198304   -0.8803459373   -1.2846840594
     19  S         9.9213412231    0.0967793481    1.0467678424
     20  C        10.7237943702   -0.7845120120   -1.2509585001
     21  C        11.1919747174   -0.2882412588   -0.0509695813
     22  H        11.3706035869   -1.0592958095   -2.0752738343
     23  H        12.2225434052   -0.1569308164    0.2534003942

Z-matrix Print:
$molecule
1 2
S 
C  1 1.749103
C  2 1.410331 1 110.767503
H  3 1.083741 2 122.077469 1 -177.266731 0
C  3 1.386585 2 113.598360 1 1.010691 0
H  5 1.084133 3 123.579293 2 -178.475062 0
C  5 1.414079 3 113.652900 2 -0.466315 0
C  7 1.413944 5 127.906730 3 178.498126 0
C  8 1.407261 7 128.265820 5 177.790114 0
H  9 1.084316 8 122.995858 7 -0.174027 0
C  9 1.399840 8 113.275175 7 -179.978753 0
H  11 1.083083 9 124.423349 8 179.822482 0
C  11 1.389013 9 112.453589 8 -0.029054 0
H  13 1.082886 11 127.380461 9 179.980503 0
C  2 1.437113 1 119.961036 3 -168.183629 0
C  15 1.396313 2 127.350461 1 55.935128 0
H  16 1.084196 15 122.653756 2 -12.197622 0
C  16 1.410139 15 113.161457 2 166.244145 0
H  18 1.083219 16 124.064503 15 179.677036 0
C  18 1.380381 16 112.551282 15 -0.869762 0
H  20 1.082569 18 127.654382 16 177.004688 0
S  13 1.716947 11 112.990369 9 -0.048727 0
S  20 1.722724 18 112.589602 16 -1.034771 0
$end

 
 --------------------------------------------------------------
 
                    Orbital Energies (a.u.)
 --------------------------------------------------------------
 
 Alpha MOs
 -- Occupied --
-89.077 -89.071 -89.056 -10.412 -10.411 -10.399 -10.387 -10.382
-10.369 -10.367 -10.365 -10.364 -10.352 -10.350 -10.334  -8.135
 -8.131  -8.115  -6.100  -6.096  -6.095  -6.092  -6.091  -6.088
 -6.079  -6.075  -6.072  -1.065  -1.042  -1.023  -0.944  -0.915
 -0.898  -0.886  -0.881  -0.842  -0.771  -0.748  -0.713  -0.700
 -0.690  -0.682  -0.669  -0.645  -0.608  -0.574  -0.572  -0.571
 -0.559  -0.555  -0.547  -0.540  -0.534  -0.520  -0.518  -0.507
 -0.496  -0.485  -0.448  -0.422  -0.411  -0.397  -0.390  -0.355
 -- Virtual --
 -0.228  -0.175  -0.153  -0.142  -0.130  -0.121  -0.113  -0.104
 -0.097  -0.095  -0.089  -0.086  -0.082  -0.082  -0.075  -0.074
 -0.070  -0.063  -0.058  -0.054  -0.050  -0.044  -0.036  -0.028
 -0.027  -0.021  -0.014  -0.010  -0.004  -0.000   0.002   0.005
  0.008   0.012   0.016   0.020   0.021   0.024   0.027   0.029
  0.035   0.035   0.040   0.043   0.044   0.047   0.050   0.052
  0.055   0.056   0.062   0.063   0.068   0.072   0.076   0.079
  0.084   0.088   0.095   0.098   0.104   0.106   0.111   0.113
  0.115   0.120   0.122   0.124   0.135   0.139   0.141   0.149
  0.153   0.159   0.161   0.168   0.173   0.181   0.184   0.186
  0.197   0.199   0.209   0.222   0.228   0.229   0.235   0.242
  0.251   0.258   0.260   0.267   0.275   0.320   0.327   0.346
  0.369   0.373   0.378   0.397   0.421   0.425   0.434   0.441
  0.462   0.465   0.475   0.497   0.500   0.501   0.509   0.513
  0.518   0.528   0.543   0.552   0.555   0.574   0.580   0.585
  0.591   0.595   0.605   0.608   0.617   0.634   0.644   0.648
  0.655   0.673   0.679   0.681   0.692   0.699   0.707   0.730
  0.759   0.777   0.791   0.800   0.809   0.815   0.821   0.823
  0.832   0.840   0.846   0.850   0.858   0.862   0.878   0.881
  0.893   0.909   0.912   0.917   0.931   0.945   0.956   0.961
  0.976   0.983   1.021   1.033   1.034   1.046   1.091   1.102
  1.106   1.116   1.131   1.142   1.172   1.189   1.192   1.197
  1.208   1.216   1.221   1.248   1.272   1.304   1.323   1.335
  1.364   1.389   1.404   1.447   1.470   1.518   1.537   1.555
  1.582   1.670   1.692   1.704   1.714   1.738   1.763   1.773
  1.782   1.784   1.796   1.818   1.855   1.871   1.877   1.900
  1.910   1.947   1.955   1.975   1.992   2.016   2.022   2.040
  2.062   2.071   2.086   2.101   2.128   2.157   2.189   2.223
  2.244   2.269   2.291   2.298   2.299   2.310   2.335   2.337
  2.364   2.375   2.385   2.390   2.408   2.440   2.453   2.462
  2.475   2.515   2.533   2.562   2.564   2.605   2.647   2.712
  2.720   2.742   2.768   2.786   2.793   2.988   3.036   3.062
  3.135   3.147   3.175   3.265   3.280   3.526   3.590   3.603
  3.824   3.832   3.846   4.095   4.143   4.159   4.170   4.179
  4.197   4.247   4.329   4.392   4.507   4.551   4.572
 
 Beta MOs
 -- Occupied --
-89.077 -89.071 -89.056 -10.409 -10.409 -10.398 -10.383 -10.381
-10.368 -10.366 -10.363 -10.362 -10.352 -10.348 -10.334  -8.136
 -8.131  -8.115  -6.100  -6.096  -6.095  -6.093  -6.091  -6.088
 -6.079  -6.075  -6.072  -1.061  -1.038  -1.020  -0.939  -0.913
 -0.896  -0.883  -0.878  -0.835  -0.767  -0.745  -0.710  -0.698
 -0.687  -0.680  -0.667  -0.643  -0.606  -0.570  -0.569  -0.563
 -0.556  -0.553  -0.541  -0.537  -0.533  -0.516  -0.510  -0.505
 -0.495  -0.485  -0.429  -0.420  -0.408  -0.393  -0.375
 -- Virtual --
 -0.302  -0.212  -0.166  -0.143  -0.140  -0.128  -0.117  -0.112
 -0.098  -0.096  -0.093  -0.085  -0.084  -0.081  -0.076  -0.074
 -0.072  -0.069  -0.063  -0.057  -0.053  -0.049  -0.043  -0.035
 -0.027  -0.025  -0.020  -0.014  -0.009  -0.004   0.000   0.002
  0.006   0.009   0.013   0.017   0.021   0.022   0.025   0.028
  0.029   0.035   0.036   0.041   0.044   0.045   0.048   0.051
  0.054   0.056   0.057   0.063   0.064   0.069   0.073   0.077
  0.080   0.085   0.090   0.097   0.099   0.105   0.107   0.112
  0.114   0.117   0.121   0.123   0.126   0.135   0.140   0.143
  0.149   0.153   0.160   0.161   0.169   0.174   0.183   0.184
  0.186   0.198   0.201   0.211   0.224   0.229   0.231   0.236
  0.243   0.252   0.259   0.261   0.269   0.276   0.321   0.328
  0.347   0.370   0.375   0.379   0.397   0.421   0.426   0.435
  0.442   0.463   0.466   0.477   0.499   0.502   0.506   0.513
  0.515   0.525   0.531   0.545   0.555   0.557   0.578   0.581
  0.587   0.592   0.596   0.608   0.611   0.619   0.639   0.645
  0.650   0.658   0.677   0.682   0.683   0.694   0.703   0.710
  0.731   0.761   0.780   0.792   0.802   0.811   0.817   0.823
  0.825   0.834   0.842   0.848   0.851   0.859   0.863   0.879
  0.882   0.894   0.911   0.913   0.919   0.932   0.946   0.956
  0.963   0.977   0.984   1.023   1.035   1.036   1.049   1.094
  1.105   1.110   1.122   1.134   1.144   1.174   1.191   1.196
  1.201   1.215   1.218   1.224   1.250   1.275   1.308   1.329
  1.339   1.369   1.392   1.408   1.451   1.474   1.526   1.543
  1.564   1.588   1.673   1.695   1.706   1.718   1.741   1.765
  1.777   1.785   1.787   1.798   1.821   1.860   1.874   1.879
  1.906   1.913   1.951   1.959   1.979   1.999   2.020   2.029
  2.045   2.066   2.077   2.090   2.108   2.132   2.162   2.194
  2.225   2.245   2.272   2.294   2.301   2.304   2.315   2.337
  2.340   2.366   2.379   2.388   2.392   2.411   2.443   2.455
  2.465   2.478   2.517   2.536   2.565   2.567   2.608   2.650
  2.714   2.723   2.745   2.769   2.789   2.795   2.988   3.037
  3.064   3.136   3.147   3.176   3.266   3.281   3.527   3.591
  3.604   3.824   3.832   3.846   4.099   4.148   4.162   4.173
  4.181   4.200   4.252   4.332   4.396   4.510   4.554   4.575
 --------------------------------------------------------------
 
          Ground-State Mulliken Net Atomic Charges

     Atom                 Charge (a.u.)    Spin (a.u.)
  --------------------------------------------------------
      1 H                     0.245364      -0.012649
      2 H                     0.164811       0.001237
      3 C                     0.085376       0.248186
      4 C                    -0.341645      -0.036933
      5 S                    -0.061890      -0.028589
      6 C                     0.620476       0.139751
      7 H                     0.149529      -0.009302
      8 C                    -0.321726       0.055705
      9 H                     0.148473      -0.005558
     10 C                    -0.112862       0.161744
     11 C                    -0.078528       0.095021
     12 S                    -0.064233      -0.055295
     13 C                     0.139746       0.030496
     14 H                     0.175265      -0.003241
     15 C                    -0.076412       0.208276
     16 C                    -0.178742       0.037744
     17 H                     0.160235      -0.006335
     18 C                     0.169572       0.078490
     19 S                     0.163213      -0.020037
     20 C                    -0.387025      -0.019570
     21 C                     0.018375       0.146289
     22 H                     0.153426       0.002012
     23 H                     0.229201      -0.007442
  --------------------------------------------------------
  Sum of atomic charges =     1.000000
  Sum of spin   charges =     1.000000

 -----------------------------------------------------------------
                    Cartesian Multipole Moments
 -----------------------------------------------------------------
    Charge (ESU x 10^10)
                 4.8032
    Dipole Moment (Debye)
         X      27.5281      Y      -1.9023      Z      -1.6025
       Tot      27.6403
    Quadrupole Moments (Debye-Ang)
        XX     138.7750     XY      -5.4426     YY     -93.5312
        XZ      -9.8778     YZ       7.3467     ZZ    -103.2228
    Octopole Moments (Debye-Ang^2)
       XXX     522.1147    XXY     -11.1608    XYY    -602.7384
       YYY     111.9733    XXZ     -82.6690    XYZ      45.1642
       YYZ       3.3710    XZZ    -604.2599    YZZ      35.1297
       ZZZ      26.0292
    Hexadecapole Moments (Debye-Ang^3)
      XXXX   -4149.2867   XXXY       5.6796   XXYY   -5059.5476
      XYYY     665.9223   YYYY    -670.5171   XXXZ    -805.6333
      XXYZ     345.5507   XYYZ      20.8361   YYYZ     -90.6189
      XXZZ   -4719.3091   XYZZ     158.4923   YYZZ    -183.3073
      XZZZ      47.5749   YZZZ    -109.7294   ZZZZ    -372.8637
 -----------------------------------------------------------------
Archival summary:
1\1\nid00478\OPT\ProcedureUnspecified\BasisUnspecified\3128(1+,2)\bwood\TueMay3011:02:382017TueMay3011:02:382017\0\\#,OPT,ProcedureUnspecified,BasisUnspecified,\\1,2\S\C,1,1.7491\C,2,1.41033,1,110.768\H,3,1.08374,2,122.077,1,-177.267,0\C,3,1.38658,2,113.598,1,1.01069,0\H,5,1.08413,3,123.579,2,-178.475,0\C,5,1.41408,3,113.653,2,-0.466315,0\C,7,1.41394,5,127.907,3,178.498,0\C,8,1.40726,7,128.266,5,177.79,0\H,9,1.08432,8,122.996,7,-0.174027,0\C,9,1.39984,8,113.275,7,-179.979,0\H,11,1.08308,9,124.423,8,179.822,0\C,11,1.38901,9,112.454,8,-0.0290536,0\H,13,1.08289,11,127.38,9,179.981,0\C,2,1.43711,1,119.961,3,-168.184,0\C,15,1.39631,2,127.35,1,55.9351,0\H,16,1.0842,15,122.654,2,-12.1976,0\C,16,1.41014,15,113.161,2,166.244,0\H,18,1.08322,16,124.065,15,179.677,0\C,18,1.38038,16,112.551,15,-0.869762,0\H,20,1.08257,18,127.654,16,177.005,0\S,13,1.71695,11,112.99,9,-0.0487271,0\S,20,1.72272,18,112.59,16,-1.03477,0\\\@

 Total job time:  236.95s(wall), 251.34s(cpu) 
 Tue May 30 11:02:38 2017

        *************************************************************
        *                                                           *
        *  Thank you very much for using Q-Chem.  Have a nice day.  *
        *                                                           *
        *************************************************************


0 sent ACK to 0 
now end server 0 ... 
