srun -N 1 --ntasks-per-node 22 --cpus-per-task 2 --cpu_bind=cores --nodelist nid00501 /global/project/projectdirs/jcesr/qchem/qc44/cnl_qc441/dist/exe/qcprog.cori.haswell.exe .pt_nn_cation_-60.0.in.33032.qcin.1 /dev/shm/eg_qchem/qchem33032/
Process 4 of 22 is on nid00501 - thread support 0
Process 6 of 22 is on nid00501 - thread support 0
Process 0 of 22 is on nid00501 - thread support 0
Process 1 of 22 is on nid00501 - thread support 0
Process 2 of 22 is on nid00501 - thread support 0
Process 3 of 22 is on nid00501 - thread support 0
Process 5 of 22 is on nid00501 - thread support 0
Process 21 of 22 is on nid00501 - thread support 0
initial socket setup ...start
initial socket setup ...done 
now start server 0 ... 
nid00501 10.128.1
Q-Chem Developer Version! Running on 10.128.1.*
                  Welcome to Q-Chem
     A Quantum Leap Into The Future Of Chemistry


 Q-Chem 4.4, Q-Chem, Inc., Pleasanton, CA (2016)

 Y. Shao,  Z. Gan,  E. Epifanovsky,  A. T. B. Gilbert,  M. Wormit,  
 J. Kussmann,  A. W. Lange,  A. Behn,  J. Deng,  X. Feng,  D. Ghosh,  
 M. Goldey,  P. R. Horn,  L. D. Jacobson,  I. Kaliman,  F. Rob,  
 R. Z. Khaliullin,  T. Kus,  A. Landau,  J. Liu,  E. I. Proynov,  Y. M. Rhee,  
 R. M. Richard,  M. A. Rohrdanz,  R. P. Steele,  E. J. Sundstrom,  
 H. L. Woodcock III,  P. M. Zimmerman,  D. Zuev,  B. Albrecht,  E. Alguire,  
 B. Austin,  S. A. Baeppler,  G. J. O. Beran,  Y. A. Bernard,  
 E. J. Berquist,  K. Brandhorst,  K. B. Bravaya,  S. T. Brown,  D. Casanova,  
 C.-M. Chang,  Y. Chen,  S. H. Chien,  K. D. Closser,  M. P. Coons,  
 D. L. Crittenden,  S. Dasgupta,  M. Diedenhofen,  R. A. DiStasio Jr.,  
 H. Do,  A. D. Dutoi,  R. G. Edgar,  P.-T. Fang,  S. Fatehi,  Q. Feng,  
 L. Fusti-Molnar,  A. Ghysels,  A. Golubeva-Zadorozhnaya,  J. Gomes,  
 A. Gunina,  M. W. D. Hanson-Heine,  P. H. P. Harbach,  A. W. Hauser,  
 J. E. Herr,  E. G. Hohenstein,  Z. C. Holden,  K. Hui,  T.-C. Jagau,  H. Ji,  
 B. Kaduk,  K. Khistyaev,  Jaehoon Kim,  Jihan Kim,  R. A. King,  
 P. Klunzinger,  K. Koh,  D. Kosenkov,  T. Kowalczyk,  C. M. Krauter,  
 A. Kunitsa,  K. U. Lao,  A. Laurent,  K. V. Lawler,  J. Lee,  D. Lefrancois,  
 S. Lehtola,  S. V. Levchenko,  C. Y. Lin,  Y.-S. Lin,  F. Liu,  E. Livshits,  
 R. C. Lochan,  A. Luenser,  P. Manohar,  S. F. Manzer,  S.-P. Mao,  Y. Mao,  
 N. Mardirossian,  A. V. Marenich,  L. A. Martinez-Martinez,  S. A. Maurer,  
 N. J. Mayhall,  J.-M. Mewes,  A. F. Morrison,  K. Nanda,  T. S. Nguyen-Beck,  
 C. M. Oana,  R. Olivares-Amaya,  D. P. O'Neill,  J. A. Parkhill,  
 T. M. Perrine,  R. Peverati,  P. A. Pieniazek,  F. Plasser,  A. Prociuk,  
 D. R. Rehn,  E. Rosta,  N. J. Russ,  N. Sergueev,  S. M. Sharada,  
 S. Sharma,  D. W. Small,  A. Sodt,  T. Stauch,  T. Stein,  D. Stuck,  
 Y.-C. Su,  A. J. W. Thom,  T. Tsuchimochi,  L. Vogt,  O. Vydrov,  T. Wang,  
 M. A. Watson,  J. Wenzel,  A. White,  C. F. Williams,  V. Vanovschi,  
 K. Yao,  S. Yeganeh,  S. R. Yost,  Z.-Q. You,  I. Y. Zhang,  X. Zhang,  
 Y. Zhao,  B. R. Brooks,  G. K. L. Chan,  D. M. Chipman,  C. J. Cramer,  
 W. A. Goddard III,  M. S. Gordon,  W. J. Hehre,  A. Klamt,  
 H. F. Schaefer III,  M. W. Schmidt,  C. D. Sherrill,  D. G. Truhlar,  
 A. Warshel,  X. Xu,  A. Aspuru-Guzik,  R. Baer,  A. T. Bell,  N. A. Besley,  
 J.-D. Chai,  A. Dreuw,  B. D. Dunietz,  T. R. Furlani,  S. R. Gwaltney,  
 C.-P. Hsu,  Y. Jung,  J. Kong,  D. S. Lambrecht,  W. Liang,  C. Ochsenfeld,  
 V. A. Rassolov,  L. V. Slipchenko,  J. E. Subotnik,  T. Van Voorhis,  
 J. M. Herbert,  A. I. Krylov,  P. M. W. Gill,  M. Head-Gordon

 Contributors to earlier versions of Q-Chem not listed above: 
 R. D. Adamson,  J. Baker,  E. F. C. Byrd,  A. K. Chakraborty,  C.-L. Cheng,  
 H. Dachsel,  R. J. Doerksen,  G. Hawkins,  A. Heyden,  S. Hirata,  
 G. Kedziora,  F. J. Keil,  C. Kelley,  P. P. Korambath,  W. Kurlancheek,  
 A. M. Lee,  M. S. Lee,  D. Liotard,  I. Lotan,  P. E. Maslen,  N. Nair,  
 D. Neuhauser,  R. Olson,  B. Peters,  J. Ritchie,  N. E. Schultz,  
 N. Shenvi,  A. C. Simmonett,  K. S. Thanthiriwatte,  Q. Wu,  W. Zhang

 Please cite Q-Chem as follows:
 Y. Shao et al., Mol. Phys. 113, 184-215 (2015)
 DOI: 10.1080/00268976.2014.952696

 Q-Chem 4.4.2 for Intel X86 EM64T Linux

 Parts of Q-Chem use Armadillo 5.200.1 (Boston Tea Smuggler).
 http://arma.sourceforge.net/

 Q-Chem begins on Tue May 30 10:58:45 2017  

Host: nid00444
0

     Scratch files written to /dev/shm/eg_qchem/qchem33032.0//
 Parallel job on  22  processors

Checking the input file for inconsistencies... 	...done.

--------------------------------------------------------------
User input:
--------------------------------------------------------------
$molecule
 1  2
 H           0.00000000        0.00000000        0.00000000
 H           0.66366000       -2.46828000       -0.59127000
 C           0.99103000       -0.39106000       -0.11652000
 C           1.36812000       -1.67442000       -0.42485000
 S           2.34669000        0.62586000        0.08638000
 C           2.76167000       -1.82175000       -0.50822000
 H           3.26291000       -2.73877000       -0.76199000
 C           3.44671000       -0.65043000       -0.26057000
 H           4.55645000        1.43902671        0.15704385
 C           4.88382000       -0.65043000       -0.26057000
 C           5.26091000        0.64090194        0.01245390
 S           6.23948000       -1.67253113       -0.43550939
 C           6.65446000        0.79046248        0.09175311
 H           7.15570000        1.71409653        0.32028213
 C           7.33950000       -0.38720773       -0.12368600
 C           8.77661000       -0.38720773       -0.12368600
 H           8.96041000        0.95865023       -1.79737975
 C           9.46165000        0.38820333       -1.03585901
 S           9.87663000       -1.18496091        0.93124516
 C          10.85520000        0.32260139       -0.87980425
 C          11.23229000       -0.50436017        0.14889109
 H          11.55966000        0.84900578       -1.49690013
 H          12.22332000       -0.74255011        0.48020808
$end


$rem
         jobtype = opt
        exchange = b3lyp
           basis = 6-31++g**
  max_scf_cycles = 150
      mem_static = 281
       mem_total = 2818
      sym_ignore = true
        symmetry = false
          thresh = 12
$end


$opt
CONSTRAINT
tors 13 15 16 18 -60.0
ENDCONSTRAINT
$end

--------------------------------------------------------------
 ----------------------------------------------------------------
             Standard Nuclear Orientation (Angstroms)
    I     Atom           X                Y                Z
 ----------------------------------------------------------------
    1      H       0.0000000000     0.0000000000     0.0000000000
    2      H       0.6636600000    -2.4682800000    -0.5912700000
    3      C       0.9910300000    -0.3910600000    -0.1165200000
    4      C       1.3681200000    -1.6744200000    -0.4248500000
    5      S       2.3466900000     0.6258600000     0.0863800000
    6      C       2.7616700000    -1.8217500000    -0.5082200000
    7      H       3.2629100000    -2.7387700000    -0.7619900000
    8      C       3.4467100000    -0.6504300000    -0.2605700000
    9      H       4.5564500000     1.4390267100     0.1570438500
   10      C       4.8838200000    -0.6504300000    -0.2605700000
   11      C       5.2609100000     0.6409019400     0.0124539000
   12      S       6.2394800000    -1.6725311300    -0.4355093900
   13      C       6.6544600000     0.7904624800     0.0917531100
   14      H       7.1557000000     1.7140965300     0.3202821300
   15      C       7.3395000000    -0.3872077300    -0.1236860000
   16      C       8.7766100000    -0.3872077300    -0.1236860000
   17      H       8.9604100000     0.9586502300    -1.7973797500
   18      C       9.4616500000     0.3882033300    -1.0358590100
   19      S       9.8766300000    -1.1849609100     0.9312451600
   20      C      10.8552000000     0.3226013900    -0.8798042500
   21      C      11.2322900000    -0.5043601700     0.1488910900
   22      H      11.5596600000     0.8490057800    -1.4969001300
   23      H      12.2233200000    -0.7425501100     0.4802080800
 ----------------------------------------------------------------
 Nuclear Repulsion Energy =  1184.9492335670 hartrees
 There are       64 alpha and       63 beta electrons
 Requested basis set is 6-31++G(d,p)
 There are 110 shells and 345 basis functions

 Total QAlloc Memory Limit   2818 MB
 Mega-Array Size       275 MB
 MEM_STATIC part       281 MB
 A cutoff of  1.0D-12 yielded   4722 shell pairs
 There are     48136 function pairs

 Q-Chem warning in module /project/projectdirs/jcesr/qchem/qc44/cnl_qc441/compile/cori/qc_src/libqints/qchem/aobasis.C, line 68:

 Using reconstructed effective core potential

 
 -------------------------------------------------------
 OpenMP Integral Computing Module                       
 Release: version 1.0, May 2013, Q-Chem Inc. Pittsburgh 
 -------------------------------------------------------
 Integral Job Info:
 Integral job number is                      11
 Integral operator is                         1
 short-range coefficients                     0
 long-range coefficients              100000000
 Omega coefficients                           0
 if combine SR and LR in K                    0
 Integral screening is                        0
 Integral computing path is                   2
 max size of driver memory is            800000
 size of driver memory is                593474
 size of scratch memory is             15166112
 max col of scratch BK array               1296
 max len of scratch array in speh3          155
 max len of scratch index in speh4           18
 max int batch size is                      520
 min int batch size is                       52
 fixed nKL is                                52
 max L of basis functions is                  2
 order of int derivative is                   0
 number of shells is                        110
 number of basis is                         345
 number of cartesian basis is               345
 number of contracted shell pairs          4722
 number of primitive shell pairs          14785
 maxK2 (contraction) of shell pair           36
 max number of K2 of shell pair               1
 max number of CS2 of shell pair            506
 max number of PS2 of shell pair           3036
 mem total for path MDJ                  101288
 -------------------------------------------------------
 Smallest overlap matrix eigenvalue = 1.31E-07
 Linear dependence detected in AO basis
 Number of orthogonalized atomic orbitals = 342
 Maximum deviation from orthogonality = 7.774E-11

 Scale SEOQF with 1.000000e-02/1.000000e-01/1.000000e-01

 Standard Electronic Orientation quadrupole field applied
 Nucleus-field energy     =     0.0000000286 hartrees
 Guess from superposition of atomic densities
 Warning:  Energy on first SCF cycle will be non-variational
 An unrestricted hybrid HF-DFT SCF calculation will be
 performed using Pulay DIIS extrapolation
 Exchange:     0.2000 Hartree-Fock + 0.0800 Slater + 0.7200 B88
 Correlation:  0.1900 VWN1RPA + 0.8100 LYP
 Using SG-1 standard quadrature grid
 SCF converges when DIIS error is below 1.0E-08
 Inaccurate integrated density:
   Number of electrons =   127
   Numerical integral  =   127.999471083351
   Relative error      =     0.7869851050 %
 ---------------------------------------
  Cycle       Energy         DIIS Error
 ---------------------------------------
    1   -1660.7276569214      3.84E-02
    2   -1656.1524763164      3.54E-03
    3   -1655.8111637719      5.59E-03
    4   -1656.3471897837      8.62E-04
    5   -1656.3558623711      5.13E-04
    6   -1656.3598955859      1.80E-04
    7   -1656.3604010564      7.70E-05
    8   -1656.3605187257      2.18E-05
    9   -1656.3605393775      8.59E-06
   10   -1656.3605508898      3.57E-06
   11   -1656.3605587308      3.15E-06
   12   -1656.3605616327      1.34E-06
   13   -1656.3605625321      9.60E-07
   14   -1656.3605626767      3.32E-07
   15   -1656.3605627042      1.11E-07
   16   -1656.3605627084      6.07E-08
   17   -1656.3605627098      3.12E-08
   18   -1656.3605627094      2.25E-08
   19   -1656.3605627107      1.27E-08
   20   -1656.3605627099      6.81E-09 Convergence criterion met
 ---------------------------------------
 <S^2> = 0.7627
 SCF time:  CPU 27.40 s  wall 25.50 s
 SCF   energy in the final basis set = -1656.3605627099
 Total energy in the final basis set = -1656.3605627099
 
 --------------------------------------------------------------
 
                    Orbital Energies (a.u.)
 --------------------------------------------------------------
 
 Alpha MOs
 -- Occupied --
-89.087 -89.076 -89.052 -10.407 -10.407 -10.401 -10.388 -10.372
-10.363 -10.359 -10.356 -10.355 -10.351 -10.336 -10.326  -8.146
 -8.136  -8.112  -6.111  -6.106  -6.102  -6.101  -6.097  -6.093
 -6.076  -6.072  -6.069  -1.083  -1.056  -1.030  -0.958  -0.918
 -0.903  -0.896  -0.878  -0.848  -0.774  -0.751  -0.709  -0.703
 -0.694  -0.685  -0.675  -0.651  -0.609  -0.584  -0.584  -0.575
 -0.562  -0.554  -0.552  -0.535  -0.527  -0.525  -0.522  -0.509
 -0.499  -0.481  -0.451  -0.425  -0.414  -0.391  -0.388  -0.365
 -- Virtual --
 -0.220  -0.168  -0.149  -0.143  -0.121  -0.117  -0.109  -0.104
 -0.103  -0.097  -0.094  -0.090  -0.081  -0.080  -0.075  -0.073
 -0.068  -0.062  -0.059  -0.055  -0.049  -0.042  -0.036  -0.034
 -0.027  -0.020  -0.016  -0.013  -0.006  -0.003   0.003   0.007
  0.009   0.013   0.015   0.017   0.021   0.024   0.027   0.031
  0.034   0.038   0.042   0.042   0.044   0.049   0.051   0.053
  0.055   0.060   0.061   0.063   0.067   0.075   0.076   0.082
  0.085   0.095   0.098   0.101   0.106   0.110   0.114   0.118
  0.122   0.125   0.128   0.129   0.135   0.148   0.149   0.154
  0.162   0.167   0.170   0.170   0.176   0.179   0.185   0.192
  0.208   0.214   0.217   0.227   0.233   0.242   0.245   0.251
  0.256   0.264   0.275   0.288   0.310   0.331   0.343   0.352
  0.370   0.390   0.396   0.405   0.421   0.434   0.460   0.466
  0.485   0.488   0.495   0.501   0.505   0.506   0.511   0.517
  0.530   0.543   0.551   0.555   0.571   0.574   0.588   0.594
  0.600   0.601   0.613   0.616   0.629   0.646   0.650   0.657
  0.661   0.667   0.677   0.680   0.699   0.723   0.740   0.769
  0.788   0.797   0.806   0.811   0.821   0.825   0.839   0.842
  0.845   0.852   0.858   0.869   0.873   0.890   0.894   0.897
  0.905   0.913   0.918   0.939   0.951   0.965   0.971   0.983
  1.009   1.013   1.034   1.041   1.054   1.083   1.093   1.110
  1.136   1.149   1.157   1.179   1.185   1.198   1.209   1.215
  1.222   1.237   1.247   1.264   1.271   1.313   1.322   1.353
  1.383   1.402   1.447   1.480   1.502   1.550   1.572   1.643
  1.665   1.698   1.716   1.745   1.745   1.775   1.781   1.789
  1.792   1.839   1.842   1.846   1.882   1.901   1.909   1.941
  1.946   1.974   1.986   2.032   2.046   2.064   2.074   2.079
  2.090   2.120   2.141   2.154   2.178   2.192   2.227   2.255
  2.276   2.305   2.316   2.323   2.333   2.349   2.364   2.387
  2.387   2.401   2.418   2.442   2.447   2.470   2.479   2.517
  2.532   2.535   2.569   2.583   2.619   2.677   2.689   2.716
  2.752   2.783   2.797   2.815   3.027   3.062   3.081   3.153
  3.175   3.200   3.288   3.311   3.555   3.618   3.640   3.817
  3.843   3.852   4.098   4.148   4.172   4.181   4.196   4.220
  4.243   4.333   4.406   4.506   4.559   4.579
 
 Beta MOs
 -- Occupied --
-89.087 -89.076 -89.052 -10.405 -10.404 -10.400 -10.385 -10.371
-10.362 -10.357 -10.356 -10.354 -10.352 -10.335 -10.326  -8.146
 -8.136  -8.112  -6.111  -6.107  -6.103  -6.101  -6.097  -6.093
 -6.076  -6.072  -6.069  -1.078  -1.051  -1.028  -0.952  -0.916
 -0.900  -0.893  -0.877  -0.841  -0.770  -0.748  -0.706  -0.700
 -0.692  -0.683  -0.673  -0.650  -0.608  -0.582  -0.574  -0.572
 -0.560  -0.552  -0.543  -0.533  -0.524  -0.521  -0.516  -0.506
 -0.498  -0.480  -0.431  -0.421  -0.410  -0.389  -0.372
 -- Virtual --
 -0.312  -0.204  -0.161  -0.143  -0.138  -0.118  -0.116  -0.104
 -0.102  -0.097  -0.093  -0.089  -0.088  -0.080  -0.079  -0.074
 -0.071  -0.068  -0.061  -0.058  -0.054  -0.048  -0.042  -0.036
 -0.034  -0.026  -0.019  -0.015  -0.012  -0.006  -0.003   0.004
  0.008   0.009   0.014   0.015   0.018   0.022   0.025   0.028
  0.031   0.035   0.039   0.042   0.043   0.046   0.050   0.051
  0.054   0.056   0.061   0.062   0.064   0.068   0.075   0.078
  0.083   0.086   0.096   0.099   0.102   0.107   0.111   0.114
  0.118   0.122   0.126   0.129   0.131   0.136   0.149   0.150
  0.155   0.163   0.167   0.171   0.172   0.177   0.180   0.186
  0.193   0.209   0.215   0.218   0.228   0.234   0.243   0.246
  0.253   0.258   0.266   0.277   0.289   0.311   0.332   0.345
  0.353   0.370   0.392   0.398   0.407   0.421   0.435   0.462
  0.467   0.489   0.490   0.499   0.502   0.507   0.510   0.517
  0.520   0.534   0.545   0.554   0.557   0.575   0.577   0.591
  0.595   0.603   0.605   0.617   0.620   0.631   0.648   0.653
  0.659   0.664   0.669   0.681   0.682   0.702   0.726   0.741
  0.770   0.789   0.799   0.809   0.813   0.825   0.827   0.840
  0.844   0.846   0.853   0.858   0.870   0.874   0.891   0.896
  0.899   0.906   0.914   0.920   0.941   0.952   0.966   0.972
  0.984   1.011   1.014   1.037   1.045   1.057   1.085   1.096
  1.113   1.140   1.154   1.161   1.184   1.188   1.202   1.216
  1.217   1.225   1.239   1.249   1.267   1.277   1.317   1.325
  1.356   1.386   1.407   1.451   1.487   1.507   1.561   1.577
  1.650   1.667   1.702   1.719   1.747   1.750   1.777   1.783
  1.790   1.794   1.843   1.846   1.850   1.886   1.904   1.913
  1.944   1.950   1.979   1.991   2.038   2.055   2.070   2.079
  2.085   2.096   2.123   2.147   2.158   2.182   2.197   2.230
  2.257   2.282   2.308   2.320   2.326   2.339   2.351   2.366
  2.389   2.392   2.404   2.419   2.446   2.450   2.472   2.481
  2.519   2.535   2.538   2.573   2.585   2.621   2.681   2.693
  2.718   2.753   2.785   2.799   2.817   3.028   3.063   3.082
  3.154   3.175   3.201   3.289   3.311   3.556   3.619   3.641
  3.817   3.844   3.852   4.103   4.154   4.175   4.184   4.199
  4.222   4.248   4.336   4.411   4.509   4.562   4.582
 --------------------------------------------------------------
 
          Ground-State Mulliken Net Atomic Charges

     Atom                 Charge (a.u.)    Spin (a.u.)
  --------------------------------------------------------
      1 H                     0.252437      -0.013185
      2 H                     0.159335       0.001099
      3 C                     0.098507       0.267225
      4 C                    -0.393772      -0.038553
      5 S                    -0.101402      -0.038116
      6 C                     0.554198       0.148255
      7 H                     0.145848      -0.009195
      8 C                     0.131593       0.080188
      9 H                     0.072814      -0.008052
     10 C                    -0.166366       0.150167
     11 C                    -0.402220       0.112883
     12 S                     0.278411      -0.051337
     13 C                    -0.070436      -0.008633
     14 H                     0.184943      -0.000484
     15 C                    -0.168865       0.234855
     16 C                    -0.166346       0.041149
     17 H                     0.167923      -0.004071
     18 C                     0.265434       0.052758
     19 S                     0.162728      -0.014783
     20 C                    -0.382001      -0.008092
     21 C                    -0.005333       0.110061
     22 H                     0.154435       0.000611
     23 H                     0.228136      -0.004750
  --------------------------------------------------------
  Sum of atomic charges =     1.000000
  Sum of spin   charges =     1.000000

 -----------------------------------------------------------------
                    Cartesian Multipole Moments
 -----------------------------------------------------------------
    Charge (ESU x 10^10)
                 4.8032
    Dipole Moment (Debye)
         X      26.6580      Y      -1.7739      Z      -1.1943
       Tot      26.7436
    Quadrupole Moments (Debye-Ang)
        XX     128.8192     XY      -4.0397     YY     -93.3058
        XZ      -6.7118     YZ       0.2940     ZZ    -105.2455
    Octopole Moments (Debye-Ang^2)
       XXX     410.4931    XXY      22.8012    XYY    -597.5720
       YYY     136.1466    XXZ     -36.4376    XYZ     -21.2216
       YYZ       7.3000    XZZ    -629.3664    YZZ      53.7151
       ZZZ      37.6396
    Hexadecapole Moments (Debye-Ang^3)
      XXXX   -5442.3131   XXXY     518.8135   XXYY   -4994.6934
      XYYY     860.0527   YYYY    -758.1209   XXXZ    -225.8624
      XXYZ    -300.8854   XYYZ      43.4462   YYYZ       9.2165
      XXZZ   -4987.1128   XYZZ     321.5886   YYZZ    -185.5126
      XZZZ     137.9589   YZZZ     -22.8331   ZZZZ    -310.2187
 -----------------------------------------------------------------
 Calculating analytic gradient of the SCF energy
 Gradient of SCF Energy
            1           2           3           4           5           6
    1   0.0070412   0.0045208  -0.0050832  -0.0029239   0.0034865   0.0273755
    2  -0.0034320   0.0049380  -0.0006780   0.0151723  -0.0282059   0.0136568
    3  -0.0012516   0.0009053  -0.0005019   0.0046997  -0.0060071   0.0043868
            7           8           9          10          11          12
    1  -0.0015313  -0.0242965  -0.0021778   0.0476901  -0.0616224   0.0026849
    2   0.0061399   0.0598878  -0.0060162  -0.0437494  -0.0330469   0.0419552
    3   0.0004792   0.0117755  -0.0017666  -0.0097189  -0.0083597   0.0041880
           13          14          15          16          17          18
    1   0.0255498  -0.0032462  -0.0071498   0.0037842   0.0018543  -0.0070717
    2  -0.0212593  -0.0044259  -0.0072416   0.0040745  -0.0038670  -0.0099214
    3   0.0026307  -0.0008691  -0.0096240   0.0099257   0.0042343   0.0025133
           19          20          21          22          23
    1   0.0023585  -0.0041034   0.0035837  -0.0039931  -0.0067303
    2   0.0208793  -0.0007389  -0.0016889  -0.0028851   0.0004529
    3  -0.0150169   0.0047854   0.0020826   0.0044978  -0.0039887
 Max gradient component =       6.162E-02
 RMS gradient           =       1.707E-02
 Gradient time:  CPU 4.30 s  wall 4.36 s
 Geometry Optimization Parameters
   NAtoms,    NIC,     NZ,  NCons,   NDum,   NFix, NCnnct, MaxDiis
       23     166       0       1       0       0       0       0


** CONSTRAINED OPTIMIZATION IN DELOCALIZED INTERNAL COORDINATES **
   Searching for a Minimum

   Optimization Cycle:   1

                       Coordinates (Angstroms)
     ATOM                X               Y               Z
      1  H         0.0000000000    0.0000000000    0.0000000000
      2  H         0.6636600000   -2.4682800000   -0.5912700000
      3  C         0.9910300000   -0.3910600000   -0.1165200000
      4  C         1.3681200000   -1.6744200000   -0.4248500000
      5  S         2.3466900000    0.6258600000    0.0863800000
      6  C         2.7616700000   -1.8217500000   -0.5082200000
      7  H         3.2629100000   -2.7387700000   -0.7619900000
      8  C         3.4467100000   -0.6504300000   -0.2605700000
      9  H         4.5564500000    1.4390267100    0.1570438500
     10  C         4.8838200000   -0.6504300000   -0.2605700000
     11  C         5.2609100000    0.6409019400    0.0124539000
     12  S         6.2394800000   -1.6725311300   -0.4355093900
     13  C         6.6544600000    0.7904624800    0.0917531100
     14  H         7.1557000000    1.7140965300    0.3202821300
     15  C         7.3395000000   -0.3872077300   -0.1236860000
     16  C         8.7766100000   -0.3872077300   -0.1236860000
     17  H         8.9604100000    0.9586502300   -1.7973797500
     18  C         9.4616500000    0.3882033300   -1.0358590100
     19  S         9.8766300000   -1.1849609100    0.9312451600
     20  C        10.8552000000    0.3226013900   -0.8798042500
     21  C        11.2322900000   -0.5043601700    0.1488910900
     22  H        11.5596600000    0.8490057800   -1.4969001300
     23  H        12.2233200000   -0.7425501100    0.4802080800
   Point Group: c1    Number of degrees of freedom:    63


   Energy is  -1656.360562710

              Constraints and their Current Values
                                        Value     Constraint
   Dihedral:       13  15  16  18      -60.000      -60.000

 Attempting to Generate Delocalized Internal Coordinates

 62 Hessian modes will be used to form the next step
  Hessian Eigenvalues:
     0.045000    0.045000    0.045000    0.045000    0.045000    0.045000
     0.045001    0.045001    0.045001    0.045002    0.045003    0.045003
     0.045011    0.045012    0.045012    0.045025    0.045032    0.045058
     0.045059    0.159944    0.159945    0.159945    0.159992    0.159993
     0.159993    0.160000    0.160000    0.221307    0.221308    0.227041
     0.237995    0.238010    0.245411    0.249662    0.249670    0.249670
     0.249825    0.326317    0.326319    0.326962    0.340043    0.340044
     0.340629    0.365512    0.365512    0.365513    0.366888    0.366889
     0.366889    0.370099    0.370100    0.399845    0.399845    0.435419
     0.435419    0.435422    0.463117    0.463122    0.464282    0.495500
     0.495500    0.495533

 Minimum Search - Taking Simple RFO Step
 Searching for Lamda that Minimizes Along All modes
 Value Taken    Lamda =  -0.06462418
 Calculated Step too Large.  Step scaled by  0.681763
 Step Taken.  Stepsize is  0.300000

                             Maximum     Tolerance    Cnvgd?
         Gradient           0.079661      0.000300      NO
         Displacement       0.171522      0.001200      NO
         Energy change     *********      0.000001      NO


 New Cartesian Coordinates Obtained by Inverse Iteration

 Displacement from previous Coordinates is:  1.952578
 ----------------------------------------------------------------
             Standard Nuclear Orientation (Angstroms)
    I     Atom           X                Y                Z
 ----------------------------------------------------------------
    1      H      -0.1201935945    -0.3064615579    -0.0185006291
    2      H       0.7954265711    -2.7049756959    -0.6222091505
    3      C       0.9134720612    -0.5940115263    -0.1261599279
    4      C       1.4176954705    -1.8409738280    -0.4416015528
    5      S       2.1469704899     0.5766431690     0.1044768168
    6      C       2.8184837051    -1.8387518760    -0.5055363634
    7      H       3.4130514769    -2.7049595879    -0.7579280854
    8      C       3.3906930473    -0.5877629331    -0.2367352446
    9      H       4.6218380992     1.7472639853     0.2289160221
   10      C       4.8216580490    -0.3975362276    -0.2110841509
   11      C       5.2786660412     0.9097577834     0.0638935775
   12      S       6.1601618264    -1.4600284573    -0.4110465061
   13      C       6.6717599966     1.0185410724     0.1144404805
   14      H       7.2130883106     1.9265238565     0.3358892345
   15      C       7.3120227833    -0.1960234003    -0.1206429148
   16      C       8.7520641668    -0.3133123259    -0.1507870047
   17      H       9.0908097591     1.0337287643    -1.8220315580
   18      C       9.5238213608     0.3987839024    -1.0626868270
   19      S       9.7559566491    -1.2570471447     0.8992373778
   20      C      10.9051791390     0.1735258247    -0.9064535632
   21      C      11.1802644609    -0.7033711313     0.1209168005
   22      H      11.6701530224     0.6268103366    -1.5191818613
   23      H      12.1438371079    -1.0515123925     0.4562578202
 ----------------------------------------------------------------
 Nuclear Repulsion Energy =  1175.6039793947 hartrees
 There are       64 alpha and       63 beta electrons
 Applying Cartesian multipole field
    Component          Value
    ---------          -----
     (2,0,0)        1.00000E-12
     (0,2,0)        2.00000E-11
     (0,0,2)       -3.00000E-11
 Nucleus-field energy     =     0.0000000286 hartrees
 Requested basis set is 6-31++G(d,p)
 There are 110 shells and 345 basis functions
 A cutoff of  1.0D-12 yielded   4694 shell pairs
 There are     47796 function pairs

 Q-Chem warning in module /project/projectdirs/jcesr/qchem/qc44/cnl_qc441/compile/cori/qc_src/libqints/qchem/aobasis.C, line 68:

 Using reconstructed effective core potential

 Smallest overlap matrix eigenvalue = 1.01E-07
 Linear dependence detected in AO basis
 Number of orthogonalized atomic orbitals = 342
 Maximum deviation from orthogonality = 6.208E-11
 Guess MOs from SCF MO coefficient file
 Reading MOs from coefficient file
 Reading MOs from coefficient file
 An unrestricted hybrid HF-DFT SCF calculation will be
 performed using Pulay DIIS extrapolation
 Exchange:     0.2000 Hartree-Fock + 0.0800 Slater + 0.7200 B88
 Correlation:  0.1900 VWN1RPA + 0.8100 LYP
 Using SG-1 standard quadrature grid
 SCF converges when DIIS error is below 1.0E-08
 Geometry optimization detected.  Setting ReadMinima to 0
 Setting SaveMinima to 0
 Inaccurate integrated density:
   Number of electrons =   127
   Numerical integral  =   126.741879904379
   Relative error      =    -0.2032441698 %
 ---------------------------------------
  Cycle       Energy         DIIS Error
 ---------------------------------------
    1   -1656.0923210863      5.03E-03
    2   -1656.3690766924      1.10E-03
    3   -1656.3271846456      1.91E-03
    4   -1656.3889980333      3.26E-04
    5   -1656.3906148069      1.07E-04
    6   -1656.3907847534      4.60E-05
    7   -1656.3908161908      1.90E-05
    8   -1656.3908224754      5.81E-06
    9   -1656.3908231121      2.22E-06
   10   -1656.3908232751      7.59E-07
   11   -1656.3908233301      4.25E-07
   12   -1656.3908233531      1.93E-07
   13   -1656.3908233632      1.05E-07
   14   -1656.3908233641      5.41E-08
   15   -1656.3908233667      2.78E-08
   16   -1656.3908233673      1.39E-08
   17   -1656.3908233673      7.33E-09 Convergence criterion met
 ---------------------------------------
 <S^2> = 0.7641
 SCF time:  CPU 24.13 s  wall 22.30 s
 SCF   energy in the final basis set = -1656.3908233673
 Total energy in the final basis set = -1656.3908233673
 
 --------------------------------------------------------------
 
                    Orbital Energies (a.u.)
 --------------------------------------------------------------
 
 Alpha MOs
 -- Occupied --
-89.084 -89.076 -89.053 -10.413 -10.410 -10.403 -10.389 -10.374
-10.368 -10.364 -10.360 -10.357 -10.353 -10.339 -10.328  -8.142
 -8.136  -8.112  -6.107  -6.103  -6.100  -6.099  -6.096  -6.093
 -6.077  -6.073  -6.070  -1.072  -1.049  -1.025  -0.947  -0.914
 -0.899  -0.893  -0.877  -0.843  -0.770  -0.745  -0.711  -0.700
 -0.692  -0.683  -0.670  -0.648  -0.608  -0.577  -0.575  -0.573
 -0.559  -0.553  -0.548  -0.534  -0.531  -0.523  -0.520  -0.509
 -0.500  -0.483  -0.447  -0.423  -0.414  -0.391  -0.387  -0.362
 -- Virtual --
 -0.224  -0.170  -0.152  -0.140  -0.126  -0.116  -0.111  -0.106
 -0.102  -0.095  -0.094  -0.091  -0.082  -0.080  -0.074  -0.074
 -0.068  -0.062  -0.059  -0.055  -0.049  -0.042  -0.037  -0.033
 -0.026  -0.021  -0.015  -0.013  -0.006  -0.003   0.003   0.008
  0.009   0.011   0.014   0.018   0.021   0.024   0.028   0.030
  0.033   0.038   0.042   0.043   0.044   0.049   0.050   0.053
  0.053   0.059   0.060   0.062   0.067   0.072   0.077   0.081
  0.086   0.088   0.097   0.100   0.104   0.110   0.112   0.115
  0.118   0.122   0.124   0.129   0.137   0.143   0.148   0.152
  0.156   0.161   0.168   0.170   0.176   0.180   0.182   0.194
  0.201   0.209   0.214   0.221   0.231   0.237   0.242   0.249
  0.253   0.259   0.268   0.282   0.310   0.326   0.336   0.349
  0.373   0.386   0.396   0.406   0.419   0.429   0.456   0.460
  0.473   0.485   0.490   0.495   0.503   0.507   0.512   0.519
  0.526   0.538   0.549   0.555   0.570   0.572   0.580   0.591
  0.596   0.603   0.611   0.617   0.626   0.644   0.650   0.654
  0.667   0.671   0.674   0.677   0.700   0.719   0.726   0.768
  0.788   0.798   0.803   0.811   0.818   0.819   0.833   0.839
  0.842   0.850   0.851   0.859   0.867   0.879   0.890   0.895
  0.896   0.909   0.914   0.936   0.946   0.962   0.965   0.977
  0.997   1.011   1.023   1.034   1.053   1.080   1.082   1.107
  1.129   1.136   1.154   1.181   1.188   1.195   1.206   1.208
  1.218   1.238   1.245   1.257   1.284   1.315   1.321   1.351
  1.383   1.399   1.420   1.480   1.499   1.547   1.568   1.639
  1.663   1.689   1.714   1.733   1.746   1.764   1.775   1.785
  1.790   1.818   1.823   1.828   1.873   1.877   1.896   1.922
  1.928   1.959   1.972   2.021   2.030   2.049   2.061   2.076
  2.081   2.100   2.112   2.137   2.153   2.175   2.221   2.249
  2.269   2.298   2.304   2.314   2.321   2.339   2.347   2.374
  2.376   2.390   2.395   2.424   2.434   2.468   2.470   2.483
  2.517   2.527   2.559   2.576   2.611   2.672   2.688   2.708
  2.750   2.760   2.771   2.795   2.998   3.046   3.066   3.139
  3.161   3.191   3.271   3.296   3.532   3.595   3.622   3.815
  3.835   3.848   4.090   4.144   4.165   4.170   4.185   4.209
  4.239   4.326   4.395   4.498   4.550   4.573
 
 Beta MOs
 -- Occupied --
-89.084 -89.076 -89.053 -10.411 -10.406 -10.402 -10.386 -10.373
-10.366 -10.362 -10.360 -10.356 -10.353 -10.338 -10.328  -8.143
 -8.136  -8.112  -6.107  -6.103  -6.100  -6.100  -6.096  -6.093
 -6.077  -6.073  -6.070  -1.067  -1.044  -1.022  -0.941  -0.912
 -0.897  -0.888  -0.876  -0.837  -0.766  -0.742  -0.708  -0.698
 -0.690  -0.681  -0.668  -0.647  -0.606  -0.573  -0.571  -0.565
 -0.557  -0.550  -0.540  -0.532  -0.529  -0.520  -0.513  -0.506
 -0.499  -0.482  -0.427  -0.421  -0.410  -0.389  -0.370
 -- Virtual --
 -0.309  -0.208  -0.162  -0.142  -0.138  -0.123  -0.115  -0.104
 -0.103  -0.098  -0.094  -0.090  -0.086  -0.081  -0.079  -0.074
 -0.072  -0.067  -0.061  -0.058  -0.054  -0.048  -0.041  -0.036
 -0.033  -0.025  -0.020  -0.014  -0.012  -0.006  -0.003   0.004
  0.008   0.010   0.011   0.015   0.019   0.022   0.025   0.029
  0.031   0.034   0.039   0.043   0.044   0.046   0.050   0.051
  0.053   0.054   0.059   0.061   0.062   0.067   0.073   0.078
  0.082   0.087   0.089   0.097   0.101   0.105   0.111   0.113
  0.116   0.119   0.123   0.125   0.130   0.138   0.144   0.149
  0.153   0.157   0.162   0.169   0.171   0.177   0.181   0.183
  0.195   0.202   0.210   0.215   0.222   0.233   0.238   0.242
  0.251   0.253   0.261   0.269   0.283   0.311   0.327   0.338
  0.350   0.373   0.388   0.397   0.407   0.419   0.430   0.457
  0.461   0.475   0.486   0.492   0.501   0.505   0.511   0.518
  0.522   0.529   0.540   0.551   0.556   0.571   0.575   0.583
  0.592   0.599   0.607   0.614   0.621   0.628   0.646   0.651
  0.657   0.671   0.672   0.675   0.682   0.703   0.722   0.727
  0.769   0.789   0.801   0.805   0.812   0.821   0.823   0.833
  0.839   0.843   0.851   0.851   0.860   0.868   0.880   0.892
  0.896   0.897   0.911   0.915   0.937   0.947   0.963   0.966
  0.978   0.999   1.012   1.026   1.037   1.056   1.083   1.086
  1.110   1.134   1.140   1.157   1.184   1.192   1.198   1.210
  1.213   1.221   1.240   1.246   1.259   1.290   1.319   1.325
  1.354   1.386   1.403   1.424   1.484   1.507   1.558   1.573
  1.646   1.666   1.692   1.718   1.738   1.748   1.765   1.777
  1.788   1.792   1.824   1.828   1.830   1.876   1.881   1.899
  1.926   1.932   1.963   1.977   2.027   2.037   2.054   2.065
  2.081   2.087   2.103   2.118   2.142   2.158   2.180   2.224
  2.251   2.276   2.301   2.308   2.317   2.324   2.341   2.349
  2.376   2.380   2.392   2.397   2.427   2.438   2.470   2.472
  2.486   2.519   2.530   2.563   2.578   2.613   2.675   2.693
  2.711   2.752   2.762   2.772   2.797   2.999   3.047   3.067
  3.140   3.161   3.191   3.272   3.297   3.533   3.596   3.623
  3.815   3.836   3.849   4.094   4.149   4.168   4.173   4.189
  4.211   4.244   4.329   4.400   4.501   4.553   4.575
 --------------------------------------------------------------
 
          Ground-State Mulliken Net Atomic Charges

     Atom                 Charge (a.u.)    Spin (a.u.)
  --------------------------------------------------------
      1 H                     0.248639      -0.013278
      2 H                     0.164700       0.001439
      3 C                     0.076827       0.262131
      4 C                    -0.347705      -0.041185
      5 S                    -0.019347      -0.038827
      6 C                     0.455947       0.145959
      7 H                     0.142315      -0.009531
      8 C                    -0.080530       0.075041
      9 H                     0.123718      -0.008075
     10 C                    -0.054661       0.154964
     11 C                    -0.246740       0.116215
     12 S                     0.150596      -0.057085
     13 C                     0.003351      -0.004348
     14 H                     0.182130      -0.000750
     15 C                    -0.240427       0.243844
     16 C                    -0.200222       0.040558
     17 H                     0.170411      -0.004374
     18 C                     0.317060       0.054022
     19 S                     0.146976      -0.014243
     20 C                    -0.402562      -0.010415
     21 C                     0.025044       0.112015
     22 H                     0.154515       0.000725
     23 H                     0.229962      -0.004801
  --------------------------------------------------------
  Sum of atomic charges =     1.000000
  Sum of spin   charges =     1.000000

 -----------------------------------------------------------------
                    Cartesian Multipole Moments
 -----------------------------------------------------------------
    Charge (ESU x 10^10)
                 4.8032
    Dipole Moment (Debye)
         X      26.6421      Y      -1.7112      Z      -1.1728
       Tot      26.7228
    Quadrupole Moments (Debye-Ang)
        XX     129.2028     XY      -3.3887     YY     -92.0923
        XZ      -7.2564     YZ       0.3311     ZZ    -105.5874
    Octopole Moments (Debye-Ang^2)
       XXX     424.8941    XXY       8.1883    XYY    -585.5513
       YYY     129.5974    XXZ     -48.5855    XYZ     -22.1831
       YYZ       8.1984    XZZ    -625.4024    YZZ      51.2005
       ZZZ      36.9908
    Hexadecapole Moments (Debye-Ang^3)
      XXXX   -5229.6433   XXXY     190.7401   XXYY   -4881.8010
      XYYY     823.1652   YYYY    -759.5159   XXXZ    -394.7282
      XXYZ    -313.7046   XYYZ      63.0886   YYYZ      12.2471
      XXZZ   -4936.6950   XYZZ     304.1175   YYZZ    -187.8833
      XZZZ     153.0468   YZZZ     -21.8809   ZZZZ    -309.1591
 -----------------------------------------------------------------
 Calculating analytic gradient of the SCF energy
 Gradient of SCF Energy
            1           2           3           4           5           6
    1   0.0029957   0.0013436  -0.0020512  -0.0042029   0.0003909   0.0105371
    2  -0.0012394   0.0017676  -0.0011259   0.0044974  -0.0147905   0.0048068
    3  -0.0007560   0.0003419  -0.0004621   0.0021674  -0.0025058   0.0021939
            7           8           9          10          11          12
    1  -0.0009856  -0.0284844   0.0037035   0.0337964  -0.0245428  -0.0004618
    2   0.0027244   0.0361713  -0.0026323  -0.0424611  -0.0058536   0.0267028
    3  -0.0002651   0.0069335  -0.0011853  -0.0106996  -0.0018004   0.0015944
           13          14          15          16          17          18
    1   0.0181835  -0.0011592  -0.0081480   0.0047939   0.0007083  -0.0030902
    2  -0.0064494  -0.0016224  -0.0041686  -0.0015336  -0.0018376  -0.0047617
    3   0.0051686  -0.0000443  -0.0063525   0.0107971   0.0013657  -0.0033392
           19          20          21          22          23
    1   0.0024367  -0.0020040   0.0005560  -0.0015638  -0.0027518
    2   0.0123549   0.0015915  -0.0013446  -0.0006274  -0.0001683
    3  -0.0063266   0.0009602   0.0026173   0.0018401  -0.0022430
 Max gradient component =       4.246E-02
 RMS gradient           =       1.076E-02
 Gradient time:  CPU 4.18 s  wall 4.19 s
 Geometry Optimization Parameters
   NAtoms,    NIC,     NZ,  NCons,   NDum,   NFix, NCnnct, MaxDiis
       23     166       0       1       0       0       0       0

 Cartesian Hessian Update
 Hessian Updated using BFGS Update


** CONSTRAINED OPTIMIZATION IN DELOCALIZED INTERNAL COORDINATES **
   Searching for a Minimum

   Optimization Cycle:   2

                       Coordinates (Angstroms)
     ATOM                X               Y               Z
      1  H        -0.1201935945   -0.3064615579   -0.0185006291
      2  H         0.7954265711   -2.7049756959   -0.6222091505
      3  C         0.9134720612   -0.5940115263   -0.1261599279
      4  C         1.4176954705   -1.8409738280   -0.4416015528
      5  S         2.1469704899    0.5766431690    0.1044768168
      6  C         2.8184837051   -1.8387518760   -0.5055363634
      7  H         3.4130514769   -2.7049595879   -0.7579280854
      8  C         3.3906930473   -0.5877629331   -0.2367352446
      9  H         4.6218380992    1.7472639853    0.2289160221
     10  C         4.8216580490   -0.3975362276   -0.2110841509
     11  C         5.2786660412    0.9097577834    0.0638935775
     12  S         6.1601618264   -1.4600284573   -0.4110465061
     13  C         6.6717599966    1.0185410724    0.1144404805
     14  H         7.2130883106    1.9265238565    0.3358892345
     15  C         7.3120227833   -0.1960234003   -0.1206429148
     16  C         8.7520641668   -0.3133123259   -0.1507870047
     17  H         9.0908097591    1.0337287643   -1.8220315580
     18  C         9.5238213608    0.3987839024   -1.0626868270
     19  S         9.7559566491   -1.2570471447    0.8992373778
     20  C        10.9051791390    0.1735258247   -0.9064535632
     21  C        11.1802644609   -0.7033711313    0.1209168005
     22  H        11.6701530224    0.6268103366   -1.5191818613
     23  H        12.1438371079   -1.0515123925    0.4562578202
   Point Group: c1    Number of degrees of freedom:    63


   Energy is  -1656.390823367

              Constraints and their Current Values
                                        Value     Constraint
   Dihedral:       13  15  16  18      -60.000      -60.000
 Hessian Updated using BFGS Update

 62 Hessian modes will be used to form the next step
  Hessian Eigenvalues:
     0.044376    0.045000    0.045000    0.045000    0.045000    0.045001
     0.045001    0.045001    0.045001    0.045002    0.045003    0.045004
     0.045011    0.045012    0.045012    0.045026    0.045034    0.045057
     0.045065    0.159490    0.159945    0.159946    0.159979    0.159993
     0.159994    0.160000    0.160258    0.191594    0.221309    0.221829
     0.230288    0.238058    0.238786    0.246543    0.249669    0.249670
     0.283997    0.324316    0.326541    0.327274    0.338589    0.340072
     0.340384    0.365176    0.365513    0.365519    0.366527    0.366889
     0.367335    0.369908    0.370100    0.399360    0.414674    0.434763
     0.435420    0.437146    0.462664    0.463119    0.471277    0.495068
     0.495503    0.578973

 Minimum Search - Taking Simple RFO Step
 Searching for Lamda that Minimizes Along All modes
 Value Taken    Lamda =  -0.02206852
 Calculated Step too Large.  Step scaled by  0.848480
 Step Taken.  Stepsize is  0.300000

                             Maximum     Tolerance    Cnvgd?
         Gradient           0.030505      0.000300      NO
         Displacement       0.121516      0.001200      NO
         Energy change     -0.030261      0.000001      NO


 New Cartesian Coordinates Obtained by Inverse Iteration

 Displacement from previous Coordinates is:  1.503566
 ----------------------------------------------------------------
             Standard Nuclear Orientation (Angstroms)
    I     Atom           X                Y                Z
 ----------------------------------------------------------------
    1      H      -0.0984039053    -0.4778451567    -0.0095511893
    2      H       0.9369169074    -2.8356178397    -0.6183564033
    3      C       0.9534577989    -0.7124973998    -0.1184342890
    4      C       1.5196210663    -1.9406505504    -0.4375385084
    5      S       2.1154697963     0.5351458265     0.1145919217
    6      C       2.9157189767    -1.8736576395    -0.4973863874
    7      H       3.5546243076    -2.7144440738    -0.7448545607
    8      C       3.4189737069    -0.5832005667    -0.2224234764
    9      H       4.5675447941     1.9226641706     0.2767191046
   10      C       4.7879357139    -0.2267888402    -0.1787969477
   11      C       5.2410844376     1.0923937302     0.0918592776
   12      S       6.1223352789    -1.3164727630    -0.4122621204
   13      C       6.6244168247     1.1970010037     0.1074161364
   14      H       7.1724532613     2.1056721838     0.3232836438
   15      C       7.2704511263    -0.0277494561    -0.1509240786
   16      C       8.7025038732    -0.2237235669    -0.1933609520
   17      H       9.2103462460     1.1352142782    -1.8223972682
   18      C       9.5614440760     0.4330688678    -1.0750812212
   19      S       9.5839195644    -1.3226022816     0.8375180026
   20      C      10.9115726621     0.0530880938    -0.9071584546
   21      C      11.0746974278    -0.8778706312     0.0994812191
   22      H      11.7334346891     0.4424239125    -1.4959364610
   23      H      11.9963613697    -1.3287006913     0.4450358023
 ----------------------------------------------------------------
 Nuclear Repulsion Energy =  1177.5998364293 hartrees
 There are       64 alpha and       63 beta electrons
 Applying Cartesian multipole field
    Component          Value
    ---------          -----
     (2,0,0)        1.00000E-12
     (0,2,0)        2.00000E-11
     (0,0,2)       -3.00000E-11
 Nucleus-field energy     =     0.0000000290 hartrees
 Requested basis set is 6-31++G(d,p)
 There are 110 shells and 345 basis functions
 A cutoff of  1.0D-12 yielded   4690 shell pairs
 There are     47808 function pairs

 Q-Chem warning in module /project/projectdirs/jcesr/qchem/qc44/cnl_qc441/compile/cori/qc_src/libqints/qchem/aobasis.C, line 68:

 Using reconstructed effective core potential

 Smallest overlap matrix eigenvalue = 6.56E-08
 Linear dependence detected in AO basis
 Number of orthogonalized atomic orbitals = 342
 Maximum deviation from orthogonality = 3.173E-11
 Guess MOs from SCF MO coefficient file
 Reading MOs from coefficient file
 Reading MOs from coefficient file
 An unrestricted hybrid HF-DFT SCF calculation will be
 performed using Pulay DIIS extrapolation
 Exchange:     0.2000 Hartree-Fock + 0.0800 Slater + 0.7200 B88
 Correlation:  0.1900 VWN1RPA + 0.8100 LYP
 Using SG-1 standard quadrature grid
 SCF converges when DIIS error is below 1.0E-08
 Geometry optimization detected.  Setting ReadMinima to 0
 Setting SaveMinima to 0
 Inaccurate integrated density:
   Number of electrons =   127
   Numerical integral  =   126.841134360747
   Relative error      =    -0.1250910545 %
 ---------------------------------------
  Cycle       Energy         DIIS Error
 ---------------------------------------
    1   -1656.2287219624      3.66E-03
    2   -1656.3928869079      7.30E-04
    3   -1656.3700505761      1.37E-03
    4   -1656.4023742698      2.00E-04
    5   -1656.4029641739      7.65E-05
    6   -1656.4030541060      2.89E-05
    7   -1656.4030678315      1.14E-05
    8   -1656.4030702776      3.81E-06
    9   -1656.4030706962      1.60E-06
   10   -1656.4030708425      7.50E-07
   11   -1656.4030709295      4.77E-07
   12   -1656.4030709654      2.46E-07
   13   -1656.4030709837      1.09E-07
   14   -1656.4030709899      5.23E-08
   15   -1656.4030709902      2.63E-08
   16   -1656.4030709904      1.44E-08
   17   -1656.4030709909      5.86E-09 Convergence criterion met
 ---------------------------------------
 <S^2> = 0.7653
 SCF time:  CPU 24.00 s  wall 22.29 s
 SCF   energy in the final basis set = -1656.4030709909
 Total energy in the final basis set = -1656.4030709909
 
 --------------------------------------------------------------
 
                    Orbital Energies (a.u.)
 --------------------------------------------------------------
 
 Alpha MOs
 -- Occupied --
-89.081 -89.075 -89.053 -10.412 -10.412 -10.401 -10.390 -10.375
-10.371 -10.367 -10.364 -10.359 -10.355 -10.342 -10.329  -8.140
 -8.135  -8.112  -6.104  -6.100  -6.099  -6.096  -6.095  -6.092
 -6.077  -6.073  -6.069  -1.068  -1.044  -1.021  -0.945  -0.916
 -0.900  -0.888  -0.876  -0.840  -0.770  -0.747  -0.712  -0.699
 -0.691  -0.683  -0.666  -0.643  -0.608  -0.575  -0.574  -0.571
 -0.559  -0.552  -0.547  -0.535  -0.532  -0.522  -0.519  -0.509
 -0.502  -0.484  -0.447  -0.425  -0.415  -0.391  -0.386  -0.357
 -- Virtual --
 -0.229  -0.172  -0.155  -0.141  -0.130  -0.116  -0.111  -0.107
 -0.098  -0.095  -0.092  -0.089  -0.083  -0.079  -0.074  -0.073
 -0.067  -0.062  -0.059  -0.054  -0.048  -0.041  -0.039  -0.029
 -0.025  -0.021  -0.015  -0.011  -0.006  -0.003   0.003   0.007
  0.009   0.011   0.014   0.018   0.023   0.025   0.029   0.030
  0.033   0.038   0.042   0.043   0.045   0.048   0.049   0.051
  0.055   0.058   0.060   0.062   0.068   0.072   0.078   0.081
  0.085   0.087   0.096   0.099   0.105   0.107   0.112   0.115
  0.117   0.120   0.122   0.130   0.138   0.141   0.146   0.149
  0.156   0.161   0.166   0.168   0.179   0.180   0.182   0.194
  0.199   0.204   0.213   0.218   0.233   0.235   0.240   0.247
  0.252   0.257   0.266   0.283   0.312   0.326   0.331   0.356
  0.373   0.382   0.401   0.407   0.423   0.435   0.450   0.453
  0.464   0.478   0.489   0.498   0.501   0.505   0.512   0.522
  0.527   0.542   0.550   0.556   0.570   0.574   0.578   0.587
  0.599   0.603   0.611   0.619   0.625   0.642   0.649   0.656
  0.672   0.675   0.678   0.686   0.701   0.716   0.730   0.768
  0.787   0.790   0.801   0.810   0.816   0.820   0.826   0.835
  0.840   0.847   0.850   0.858   0.865   0.881   0.883   0.891
  0.894   0.909   0.915   0.932   0.942   0.956   0.959   0.973
  0.993   1.007   1.024   1.039   1.052   1.078   1.083   1.108
  1.122   1.130   1.156   1.174   1.187   1.196   1.206   1.207
  1.219   1.238   1.247   1.275   1.300   1.321   1.334   1.355
  1.389   1.403   1.422   1.482   1.509   1.547   1.565   1.628
  1.662   1.694   1.705   1.723   1.749   1.763   1.775   1.782
  1.789   1.801   1.816   1.818   1.869   1.876   1.902   1.911
  1.924   1.956   1.973   2.011   2.026   2.044   2.052   2.070
  2.090   2.094   2.106   2.121   2.140   2.173   2.218   2.246
  2.271   2.289   2.293   2.306   2.316   2.331   2.341   2.369
  2.373   2.381   2.391   2.411   2.436   2.464   2.469   2.472
  2.511   2.525   2.557   2.569   2.602   2.661   2.704   2.722
  2.740   2.760   2.775   2.788   2.983   3.038   3.061   3.131
  3.152   3.172   3.261   3.287   3.525   3.587   3.611   3.815
  3.831   3.849   4.092   4.141   4.164   4.166   4.181   4.202
  4.244   4.326   4.393   4.500   4.550   4.573
 
 Beta MOs
 -- Occupied --
-89.081 -89.075 -89.053 -10.409 -10.408 -10.400 -10.387 -10.374
-10.369 -10.365 -10.364 -10.357 -10.355 -10.341 -10.329  -8.140
 -8.135  -8.112  -6.104  -6.100  -6.099  -6.097  -6.095  -6.092
 -6.076  -6.073  -6.070  -1.063  -1.040  -1.018  -0.939  -0.914
 -0.899  -0.883  -0.875  -0.833  -0.766  -0.743  -0.709  -0.696
 -0.689  -0.681  -0.664  -0.642  -0.606  -0.572  -0.569  -0.564
 -0.557  -0.550  -0.539  -0.533  -0.530  -0.520  -0.511  -0.505
 -0.501  -0.483  -0.427  -0.422  -0.411  -0.389  -0.370
 -- Virtual --
 -0.304  -0.212  -0.164  -0.146  -0.139  -0.127  -0.115  -0.107
 -0.100  -0.097  -0.093  -0.091  -0.082  -0.080  -0.079  -0.073
 -0.072  -0.066  -0.061  -0.058  -0.053  -0.047  -0.040  -0.038
 -0.029  -0.024  -0.020  -0.014  -0.011  -0.006  -0.002   0.003
  0.007   0.009   0.012   0.015   0.019   0.024   0.026   0.030
  0.031   0.034   0.039   0.042   0.043   0.047   0.049   0.050
  0.052   0.056   0.058   0.061   0.062   0.069   0.073   0.079
  0.082   0.086   0.088   0.097   0.100   0.105   0.108   0.113
  0.116   0.118   0.121   0.123   0.131   0.139   0.142   0.148
  0.150   0.157   0.162   0.167   0.169   0.179   0.182   0.183
  0.195   0.201   0.205   0.215   0.220   0.234   0.236   0.240
  0.249   0.253   0.258   0.268   0.284   0.314   0.327   0.332
  0.357   0.373   0.384   0.402   0.408   0.424   0.435   0.451
  0.454   0.465   0.479   0.490   0.502   0.504   0.510   0.519
  0.526   0.529   0.545   0.551   0.557   0.572   0.576   0.580
  0.589   0.600   0.608   0.613   0.624   0.627   0.643   0.651
  0.659   0.673   0.678   0.683   0.688   0.704   0.718   0.732
  0.769   0.788   0.793   0.803   0.811   0.820   0.822   0.827
  0.836   0.841   0.849   0.850   0.860   0.866   0.883   0.884
  0.893   0.896   0.910   0.917   0.933   0.943   0.957   0.960
  0.974   0.995   1.008   1.027   1.043   1.055   1.082   1.086
  1.111   1.128   1.134   1.159   1.176   1.191   1.199   1.209
  1.214   1.222   1.240   1.249   1.277   1.306   1.325   1.338
  1.359   1.393   1.407   1.426   1.485   1.517   1.557   1.569
  1.635   1.666   1.696   1.707   1.727   1.752   1.764   1.777
  1.785   1.792   1.806   1.819   1.821   1.872   1.880   1.905
  1.916   1.927   1.959   1.978   2.018   2.033   2.048   2.056
  2.074   2.096   2.100   2.111   2.126   2.145   2.178   2.221
  2.247   2.277   2.293   2.296   2.312   2.318   2.333   2.343
  2.371   2.378   2.383   2.394   2.414   2.439   2.466   2.472
  2.474   2.513   2.528   2.561   2.571   2.604   2.664   2.708
  2.725   2.743   2.762   2.776   2.790   2.984   3.038   3.062
  3.131   3.153   3.173   3.262   3.287   3.527   3.589   3.611
  3.816   3.831   3.849   4.096   4.146   4.167   4.169   4.184
  4.203   4.249   4.330   4.398   4.503   4.553   4.575
 --------------------------------------------------------------
 
          Ground-State Mulliken Net Atomic Charges

     Atom                 Charge (a.u.)    Spin (a.u.)
  --------------------------------------------------------
      1 H                     0.244892      -0.013521
      2 H                     0.167210       0.001459
      3 C                     0.054602       0.265570
      4 C                    -0.283480      -0.041657
      5 S                    -0.037436      -0.035234
      6 C                     0.460068       0.148937
      7 H                     0.144338      -0.009652
      8 C                    -0.179686       0.064488
      9 H                     0.143489      -0.007400
     10 C                    -0.051504       0.154820
     11 C                    -0.116821       0.104032
     12 S                    -0.006479      -0.057268
     13 C                     0.117722       0.009934
     14 H                     0.180853      -0.001343
     15 C                    -0.288519       0.244215
     16 C                    -0.217617       0.036022
     17 H                     0.172447      -0.004968
     18 C                     0.343953       0.055993
     19 S                     0.117560      -0.012008
     20 C                    -0.405627      -0.013228
     21 C                     0.054179       0.114859
     22 H                     0.153893       0.000842
     23 H                     0.231963      -0.004894
  --------------------------------------------------------
  Sum of atomic charges =     1.000000
  Sum of spin   charges =     1.000000

 -----------------------------------------------------------------
                    Cartesian Multipole Moments
 -----------------------------------------------------------------
    Charge (ESU x 10^10)
                 4.8032
    Dipole Moment (Debye)
         X      26.6677      Y      -1.6924      Z      -1.1835
       Tot      26.7476
    Quadrupole Moments (Debye-Ang)
        XX     127.4058     XY      -3.6169     YY     -90.3595
        XZ      -8.1629     YZ       0.3711     ZZ    -105.8893
    Octopole Moments (Debye-Ang^2)
       XXX     399.1803    XXY      -6.4376    XYY    -571.1700
       YYY     124.4216    XXZ     -61.1485    XYZ     -22.2452
       YYZ       9.6137    XZZ    -624.5619    YZZ      49.6376
       ZZZ      39.2230
    Hexadecapole Moments (Debye-Ang^3)
      XXXX   -5394.9776   XXXY     -60.6126   XXYY   -4723.4953
      XYYY     793.9470   YYYY    -780.4893   XXXZ    -533.7051
      XXYZ    -316.4703   XYYZ      84.0393   YYYZ      12.1162
      XXZZ   -4885.9488   XYZZ     294.4555   YYZZ    -192.9256
      XZZZ     192.6791   YZZZ     -22.4099   ZZZZ    -302.7175
 -----------------------------------------------------------------
 Calculating analytic gradient of the SCF energy
 Gradient of SCF Energy
            1           2           3           4           5           6
    1   0.0000021   0.0002008   0.0018825  -0.0007387   0.0033933   0.0026760
    2   0.0005966  -0.0002090  -0.0012137  -0.0010364  -0.0009348  -0.0022016
    3  -0.0001545  -0.0000269  -0.0002790   0.0002299   0.0004789   0.0003042
            7           8           9          10          11          12
    1   0.0002366  -0.0093922  -0.0004594   0.0128991  -0.0056518  -0.0027368
    2  -0.0000601   0.0171750   0.0010404  -0.0192809   0.0027641   0.0051442
    3  -0.0007681   0.0030902  -0.0003530  -0.0057918   0.0005223  -0.0018014
           13          14          15          16          17          18
    1   0.0025428  -0.0007062  -0.0065768   0.0034124  -0.0000565  -0.0010069
    2   0.0004546   0.0000479  -0.0016569  -0.0039417  -0.0003300  -0.0024562
    3   0.0062060   0.0005017  -0.0046774   0.0080794  -0.0003761  -0.0061503
           19          20          21          22          23
    1   0.0009164  -0.0003247  -0.0006820   0.0001805  -0.0000106
    2   0.0051748   0.0013091   0.0002903   0.0002954  -0.0009709
    3  -0.0001729  -0.0005690   0.0022456   0.0002025  -0.0007403
 Max gradient component =       1.928E-02
 RMS gradient           =       4.446E-03
 Gradient time:  CPU 4.31 s  wall 4.18 s
 Geometry Optimization Parameters
   NAtoms,    NIC,     NZ,  NCons,   NDum,   NFix, NCnnct, MaxDiis
       23     166       0       1       0       0       0       0

 Cartesian Hessian Update
 Hessian Updated using BFGS Update


** CONSTRAINED OPTIMIZATION IN DELOCALIZED INTERNAL COORDINATES **
   Searching for a Minimum

   Optimization Cycle:   3

                       Coordinates (Angstroms)
     ATOM                X               Y               Z
      1  H        -0.0984039053   -0.4778451567   -0.0095511893
      2  H         0.9369169074   -2.8356178397   -0.6183564033
      3  C         0.9534577989   -0.7124973998   -0.1184342890
      4  C         1.5196210663   -1.9406505504   -0.4375385084
      5  S         2.1154697963    0.5351458265    0.1145919217
      6  C         2.9157189767   -1.8736576395   -0.4973863874
      7  H         3.5546243076   -2.7144440738   -0.7448545607
      8  C         3.4189737069   -0.5832005667   -0.2224234764
      9  H         4.5675447941    1.9226641706    0.2767191046
     10  C         4.7879357139   -0.2267888402   -0.1787969477
     11  C         5.2410844376    1.0923937302    0.0918592776
     12  S         6.1223352789   -1.3164727630   -0.4122621204
     13  C         6.6244168247    1.1970010037    0.1074161364
     14  H         7.1724532613    2.1056721838    0.3232836438
     15  C         7.2704511263   -0.0277494561   -0.1509240786
     16  C         8.7025038732   -0.2237235669   -0.1933609520
     17  H         9.2103462460    1.1352142782   -1.8223972682
     18  C         9.5614440760    0.4330688678   -1.0750812212
     19  S         9.5839195644   -1.3226022816    0.8375180026
     20  C        10.9115726621    0.0530880938   -0.9071584546
     21  C        11.0746974278   -0.8778706312    0.0994812191
     22  H        11.7334346891    0.4424239125   -1.4959364610
     23  H        11.9963613697   -1.3287006913    0.4450358023
   Point Group: c1    Number of degrees of freedom:    63


   Energy is  -1656.403070991

              Constraints and their Current Values
                                        Value     Constraint
   Dihedral:       13  15  16  18      -60.000      -60.000
 Hessian Updated using BFGS Update

 62 Hessian modes will be used to form the next step
  Hessian Eigenvalues:
     0.040311    0.045000    0.045000    0.045000    0.045000    0.045001
     0.045001    0.045001    0.045002    0.045002    0.045003    0.045007
     0.045012    0.045012    0.045013    0.045028    0.045056    0.045060
     0.045116    0.155950    0.159945    0.159958    0.159984    0.159993
     0.159998    0.160024    0.160493    0.174046    0.221312    0.223052
     0.230541    0.238155    0.240480    0.249327    0.249669    0.261989
     0.279708    0.323197    0.326518    0.328103    0.338106    0.340082
     0.341501    0.365512    0.365514    0.365815    0.366889    0.367242
     0.367979    0.370099    0.370997    0.401864    0.423777    0.435414
     0.435539    0.442663    0.463085    0.464466    0.482398    0.495177
     0.497723    0.581645

 Minimum Search - Taking Simple RFO Step
 Searching for Lamda that Minimizes Along All modes
 Value Taken    Lamda =  -0.00542574
 Step Taken.  Stepsize is  0.273565

                             Maximum     Tolerance    Cnvgd?
         Gradient           0.010762      0.000300      NO
         Displacement       0.098085      0.001200      NO
         Energy change     -0.012248      0.000001      NO


 New Cartesian Coordinates Obtained by Inverse Iteration

 Displacement from previous Coordinates is:  1.097825
 ----------------------------------------------------------------
             Standard Nuclear Orientation (Angstroms)
    I     Atom           X                Y                Z
 ----------------------------------------------------------------
    1      H      -0.1121774205    -0.6040965942    -0.0229758945
    2      H       1.0216411271    -2.9207503185    -0.5902532555
    3      C       0.9498589110    -0.7955639315    -0.1212673410
    4      C       1.5710379693    -2.0030545796    -0.4183600527
    5      S       2.0675467324     0.4916618681     0.0994574549
    6      C       2.9653896940    -1.8920209493    -0.4654097873
    7      H       3.6311388980    -2.7181021981    -0.6898889313
    8      C       3.4295168642    -0.5844694138    -0.2039018879
    9      H       4.5457147552     2.0180218217     0.2970488115
   10      C       4.7615146067    -0.1237436254    -0.1546155268
   11      C       5.2226921363     1.1948144075     0.0957965101
   12      S       6.1162730664    -1.2077991694    -0.4116379407
   13      C       6.6048941024     1.3079129144     0.0759212049
   14      H       7.1531589573     2.2199728599     0.2802896169
   15      C       7.2661989725     0.0927920914    -0.1976933663
   16      C       8.6880563599    -0.1405496440    -0.2243502140
   17      H       9.3371971414     1.2512283107    -1.7693247823
   18      C       9.6147627077     0.4850302275    -1.0542684627
   19      S       9.4572591471    -1.3811206880     0.7484797460
   20      C      10.9264612431    -0.0161130886    -0.8883671356
   21      C      10.9962343334    -1.0109257574     0.0642959496
   22      H      11.7879046935     0.3362625424    -1.4430874526
   23      H      11.8746050017    -1.5445364759     0.4055555275
 ----------------------------------------------------------------
 Nuclear Repulsion Energy =  1178.6919238507 hartrees
 There are       64 alpha and       63 beta electrons
 Applying Cartesian multipole field
    Component          Value
    ---------          -----
     (2,0,0)        1.00000E-12
     (0,2,0)        2.00000E-11
     (0,0,2)       -3.00000E-11
 Nucleus-field energy     =     0.0000000298 hartrees
 Requested basis set is 6-31++G(d,p)
 There are 110 shells and 345 basis functions
 A cutoff of  1.0D-12 yielded   4692 shell pairs
 There are     47860 function pairs

 Q-Chem warning in module /project/projectdirs/jcesr/qchem/qc44/cnl_qc441/compile/cori/qc_src/libqints/qchem/aobasis.C, line 68:

 Using reconstructed effective core potential

 Smallest overlap matrix eigenvalue = 7.11E-08
 Linear dependence detected in AO basis
 Number of orthogonalized atomic orbitals = 342
 Maximum deviation from orthogonality = 6.844E-11
 Guess MOs from SCF MO coefficient file
 Reading MOs from coefficient file
 Reading MOs from coefficient file
 An unrestricted hybrid HF-DFT SCF calculation will be
 performed using Pulay DIIS extrapolation
 Exchange:     0.2000 Hartree-Fock + 0.0800 Slater + 0.7200 B88
 Correlation:  0.1900 VWN1RPA + 0.8100 LYP
 Using SG-1 standard quadrature grid
 SCF converges when DIIS error is below 1.0E-08
 Geometry optimization detected.  Setting ReadMinima to 0
 Setting SaveMinima to 0
 ---------------------------------------
  Cycle       Energy         DIIS Error
 ---------------------------------------
    1   -1656.3051168532      2.68E-03
    2   -1656.3991451647      6.25E-04
    3   -1656.3793260842      1.25E-03
    4   -1656.4057382526      1.88E-04
    5   -1656.4063051236      6.30E-05
    6   -1656.4063744914      2.11E-05
    7   -1656.4063820123      8.71E-06
    8   -1656.4063835062      3.57E-06
    9   -1656.4063839058      1.59E-06
   10   -1656.4063840510      7.54E-07
   11   -1656.4063841465      5.66E-07
   12   -1656.4063841851      2.16E-07
   13   -1656.4063841980      1.05E-07
   14   -1656.4063842018      3.46E-08
   15   -1656.4063842020      1.73E-08
   16   -1656.4063842020      9.07E-09 Convergence criterion met
 ---------------------------------------
 <S^2> = 0.7651
 SCF time:  CPU 22.51 s  wall 20.93 s
 SCF   energy in the final basis set = -1656.4063842020
 Total energy in the final basis set = -1656.4063842020
 
 --------------------------------------------------------------
 
                    Orbital Energies (a.u.)
 --------------------------------------------------------------
 
 Alpha MOs
 -- Occupied --
-89.077 -89.073 -89.055 -10.412 -10.412 -10.401 -10.389 -10.378
-10.371 -10.366 -10.366 -10.362 -10.354 -10.345 -10.332  -8.136
 -8.132  -8.114  -6.100  -6.097  -6.096  -6.093  -6.092  -6.089
 -6.078  -6.074  -6.071  -1.066  -1.042  -1.022  -0.945  -0.915
 -0.899  -0.887  -0.878  -0.841  -0.771  -0.748  -0.712  -0.701
 -0.690  -0.682  -0.666  -0.643  -0.609  -0.574  -0.572  -0.571
 -0.559  -0.555  -0.547  -0.537  -0.533  -0.520  -0.517  -0.508
 -0.497  -0.485  -0.448  -0.423  -0.413  -0.394  -0.388  -0.356
 -- Virtual --
 -0.229  -0.174  -0.155  -0.139  -0.130  -0.115  -0.111  -0.108
 -0.099  -0.094  -0.092  -0.085  -0.082  -0.079  -0.075  -0.073
 -0.066  -0.062  -0.059  -0.054  -0.047  -0.041  -0.039  -0.029
 -0.025  -0.021  -0.016  -0.012  -0.005  -0.002   0.003   0.005
  0.008   0.011   0.014   0.018   0.024   0.026   0.029   0.031
  0.034   0.038   0.041   0.041   0.045   0.047   0.049   0.051
  0.057   0.058   0.060   0.063   0.069   0.072   0.077   0.081
  0.084   0.087   0.096   0.099   0.104   0.106   0.110   0.116
  0.117   0.120   0.125   0.130   0.137   0.144   0.144   0.149
  0.156   0.163   0.166   0.168   0.179   0.181   0.185   0.192
  0.201   0.202   0.213   0.219   0.233   0.234   0.240   0.249
  0.253   0.259   0.268   0.284   0.309   0.326   0.330   0.360
  0.375   0.380   0.399   0.403   0.427   0.436   0.442   0.448
  0.460   0.476   0.486   0.500   0.502   0.508   0.513   0.520
  0.527   0.546   0.550   0.554   0.572   0.576   0.577   0.586
  0.597   0.604   0.609   0.622   0.626   0.642   0.648   0.652
  0.669   0.675   0.681   0.688   0.701   0.712   0.733   0.768
  0.786   0.789   0.801   0.809   0.816   0.820   0.825   0.833
  0.841   0.845   0.849   0.854   0.867   0.878   0.883   0.891
  0.893   0.910   0.921   0.930   0.941   0.958   0.960   0.972
  0.986   1.008   1.021   1.043   1.050   1.073   1.083   1.106
  1.117   1.127   1.155   1.175   1.188   1.195   1.204   1.207
  1.216   1.236   1.245   1.286   1.310   1.324   1.338   1.354
  1.395   1.409   1.430   1.484   1.516   1.551   1.558   1.608
  1.660   1.694   1.703   1.716   1.751   1.763   1.771   1.776
  1.785   1.797   1.813   1.815   1.867   1.873   1.906   1.906
  1.922   1.957   1.974   2.004   2.021   2.038   2.045   2.064
  2.083   2.095   2.104   2.120   2.139   2.179   2.220   2.243
  2.273   2.282   2.289   2.307   2.316   2.328   2.338   2.369
  2.376   2.382   2.390   2.405   2.440   2.461   2.472   2.478
  2.508   2.526   2.560   2.567   2.599   2.653   2.704   2.736
  2.741   2.760   2.790   2.798   2.983   3.037   3.063   3.133
  3.150   3.170   3.262   3.284   3.523   3.587   3.608   3.813
  3.831   3.852   4.094   4.141   4.163   4.167   4.180   4.196
  4.247   4.327   4.393   4.502   4.551   4.574
 
 Beta MOs
 -- Occupied --
-89.078 -89.073 -89.055 -10.410 -10.409 -10.400 -10.385 -10.378
-10.370 -10.365 -10.364 -10.360 -10.354 -10.344 -10.332  -8.136
 -8.132  -8.114  -6.101  -6.097  -6.096  -6.093  -6.092  -6.089
 -6.078  -6.074  -6.071  -1.061  -1.038  -1.019  -0.939  -0.913
 -0.897  -0.882  -0.876  -0.834  -0.767  -0.744  -0.709  -0.698
 -0.688  -0.680  -0.665  -0.641  -0.607  -0.571  -0.570  -0.562
 -0.557  -0.553  -0.540  -0.534  -0.531  -0.517  -0.510  -0.505
 -0.496  -0.484  -0.428  -0.420  -0.409  -0.391  -0.373
 -- Virtual --
 -0.303  -0.213  -0.166  -0.146  -0.136  -0.127  -0.114  -0.108
 -0.100  -0.097  -0.093  -0.091  -0.082  -0.079  -0.076  -0.074
 -0.072  -0.065  -0.061  -0.058  -0.053  -0.046  -0.041  -0.038
 -0.028  -0.023  -0.020  -0.015  -0.011  -0.005  -0.002   0.004
  0.006   0.009   0.012   0.015   0.019   0.025   0.027   0.030
  0.032   0.035   0.039   0.042   0.042   0.046   0.048   0.050
  0.052   0.057   0.058   0.061   0.063   0.070   0.073   0.078
  0.081   0.085   0.088   0.097   0.100   0.105   0.107   0.112
  0.117   0.118   0.122   0.125   0.131   0.138   0.144   0.145
  0.150   0.156   0.163   0.167   0.169   0.179   0.182   0.186
  0.193   0.202   0.203   0.215   0.221   0.234   0.235   0.241
  0.250   0.254   0.260   0.270   0.285   0.310   0.327   0.332
  0.361   0.376   0.381   0.399   0.404   0.429   0.437   0.444
  0.450   0.461   0.476   0.487   0.501   0.506   0.513   0.520
  0.524   0.529   0.549   0.552   0.555   0.575   0.577   0.580
  0.587   0.599   0.608   0.611   0.627   0.627   0.644   0.650
  0.655   0.670   0.678   0.685   0.689   0.704   0.714   0.735
  0.769   0.788   0.792   0.803   0.810   0.818   0.822   0.827
  0.834   0.842   0.846   0.849   0.856   0.868   0.879   0.884
  0.892   0.894   0.911   0.922   0.931   0.942   0.960   0.961
  0.973   0.987   1.009   1.024   1.047   1.052   1.077   1.085
  1.109   1.123   1.130   1.157   1.177   1.192   1.198   1.207
  1.214   1.219   1.238   1.247   1.289   1.313   1.330   1.342
  1.358   1.399   1.413   1.435   1.487   1.525   1.560   1.564
  1.614   1.664   1.696   1.705   1.721   1.753   1.764   1.776
  1.778   1.788   1.802   1.815   1.818   1.871   1.877   1.908
  1.911   1.926   1.961   1.979   2.010   2.027   2.042   2.051
  2.069   2.089   2.100   2.109   2.124   2.143   2.183   2.223
  2.244   2.277   2.284   2.295   2.312   2.319   2.330   2.340
  2.371   2.381   2.384   2.393   2.407   2.444   2.463   2.475
  2.480   2.510   2.529   2.564   2.569   2.601   2.656   2.707
  2.738   2.745   2.761   2.792   2.800   2.984   3.038   3.064
  3.133   3.150   3.171   3.263   3.285   3.524   3.589   3.609
  3.813   3.831   3.852   4.098   4.145   4.166   4.170   4.183
  4.198   4.252   4.331   4.397   4.505   4.554   4.577
 --------------------------------------------------------------
 
          Ground-State Mulliken Net Atomic Charges

     Atom                 Charge (a.u.)    Spin (a.u.)
  --------------------------------------------------------
      1 H                     0.244603      -0.013061
      2 H                     0.167074       0.001255
      3 C                     0.061022       0.256417
      4 C                    -0.258729      -0.037779
      5 S                    -0.047008      -0.029954
      6 C                     0.496475       0.142760
      7 H                     0.145421      -0.009285
      8 C                    -0.270748       0.058837
      9 H                     0.152667      -0.006476
     10 C                    -0.063763       0.160608
     11 C                    -0.037907       0.089679
     12 S                    -0.150954      -0.055361
     13 C                     0.184721       0.027885
     14 H                     0.180602      -0.002333
     15 C                    -0.274071       0.226932
     16 C                    -0.178693       0.035583
     17 H                     0.174698      -0.005836
     18 C                     0.313206       0.064340
     19 S                     0.086460      -0.012557
     20 C                    -0.381454      -0.016448
     21 C                     0.067389       0.129657
     22 H                     0.154434       0.000949
     23 H                     0.234556      -0.005812
  --------------------------------------------------------
  Sum of atomic charges =     1.000000
  Sum of spin   charges =     1.000000

 -----------------------------------------------------------------
                    Cartesian Multipole Moments
 -----------------------------------------------------------------
    Charge (ESU x 10^10)
                 4.8032
    Dipole Moment (Debye)
         X      27.0729      Y      -1.6806      Z      -1.2130
       Tot      27.1521
    Quadrupole Moments (Debye-Ang)
        XX     132.4176     XY      -3.7384     YY     -89.2159
        XZ      -9.0846     YZ       0.1270     ZZ    -106.4157
    Octopole Moments (Debye-Ang^2)
       XXX     456.4017    XXY     -16.2481    XYY    -558.5722
       YYY     121.1955    XXZ     -73.2439    XYZ     -23.0422
       YYZ      11.5607    XZZ    -626.1354    YZZ      49.0154
       ZZZ      43.5425
    Hexadecapole Moments (Debye-Ang^3)
      XXXX   -4705.6973   XXXY    -233.1882   XXYY   -4584.0053
      XYYY     766.5429   YYYY    -803.1027   XXXZ    -661.1951
      XXYZ    -318.1948   XYYZ     102.5708   YYYZ      10.3777
      XXZZ   -4876.5876   XYZZ     288.7189   YYZZ    -196.9798
      XZZZ     242.2858   YZZZ     -20.7349   ZZZZ    -287.8236
 -----------------------------------------------------------------
 Calculating analytic gradient of the SCF energy
 Gradient of SCF Energy
            1           2           3           4           5           6
    1  -0.0005069  -0.0003388  -0.0014990   0.0000791   0.0020179  -0.0004964
    2   0.0003555   0.0000981  -0.0009082  -0.0000433  -0.0010415  -0.0021212
    3  -0.0000341   0.0000945   0.0001665  -0.0000116   0.0000448   0.0000190
            7           8           9          10          11          12
    1   0.0003487   0.0031678  -0.0009194  -0.0017582   0.0015789  -0.0025628
    2   0.0001518   0.0033564  -0.0000016  -0.0032829   0.0026434   0.0014291
    3  -0.0004578   0.0002434  -0.0004461  -0.0016257   0.0003427  -0.0014340
           13          14          15          16          17          18
    1  -0.0012957   0.0004562  -0.0003577   0.0033215  -0.0003400  -0.0022349
    2  -0.0009657  -0.0003401   0.0015559   0.0007893  -0.0002263  -0.0038201
    3   0.0066431   0.0004759  -0.0062633   0.0052471  -0.0003476  -0.0046400
           19          20          21          22          23
    1  -0.0003532   0.0005760   0.0007729   0.0002504   0.0000935
    2   0.0024092  -0.0010464   0.0017212   0.0000218  -0.0007343
    3   0.0009058   0.0007431   0.0006272   0.0000479  -0.0003409
 Max gradient component =       6.643E-03
 RMS gradient           =       1.927E-03
 Gradient time:  CPU 4.24 s  wall 4.18 s
 Geometry Optimization Parameters
   NAtoms,    NIC,     NZ,  NCons,   NDum,   NFix, NCnnct, MaxDiis
       23     166       0       1       0       0       0       0

 Cartesian Hessian Update
 Hessian Updated using BFGS Update


** CONSTRAINED OPTIMIZATION IN DELOCALIZED INTERNAL COORDINATES **
   Searching for a Minimum

   Optimization Cycle:   4

                       Coordinates (Angstroms)
     ATOM                X               Y               Z
      1  H        -0.1121774205   -0.6040965942   -0.0229758945
      2  H         1.0216411271   -2.9207503185   -0.5902532555
      3  C         0.9498589110   -0.7955639315   -0.1212673410
      4  C         1.5710379693   -2.0030545796   -0.4183600527
      5  S         2.0675467324    0.4916618681    0.0994574549
      6  C         2.9653896940   -1.8920209493   -0.4654097873
      7  H         3.6311388980   -2.7181021981   -0.6898889313
      8  C         3.4295168642   -0.5844694138   -0.2039018879
      9  H         4.5457147552    2.0180218217    0.2970488115
     10  C         4.7615146067   -0.1237436254   -0.1546155268
     11  C         5.2226921363    1.1948144075    0.0957965101
     12  S         6.1162730664   -1.2077991694   -0.4116379407
     13  C         6.6048941024    1.3079129144    0.0759212049
     14  H         7.1531589573    2.2199728599    0.2802896169
     15  C         7.2661989725    0.0927920914   -0.1976933663
     16  C         8.6880563599   -0.1405496440   -0.2243502140
     17  H         9.3371971414    1.2512283107   -1.7693247823
     18  C         9.6147627077    0.4850302275   -1.0542684627
     19  S         9.4572591471   -1.3811206880    0.7484797460
     20  C        10.9264612431   -0.0161130886   -0.8883671356
     21  C        10.9962343334   -1.0109257574    0.0642959496
     22  H        11.7879046935    0.3362625424   -1.4430874526
     23  H        11.8746050017   -1.5445364759    0.4055555275
   Point Group: c1    Number of degrees of freedom:    63


   Energy is  -1656.406384202

              Constraints and their Current Values
                                        Value     Constraint
   Dihedral:       13  15  16  18      -60.000      -60.000
 Hessian Updated using BFGS Update

 62 Hessian modes will be used to form the next step
  Hessian Eigenvalues:
     0.026961    0.045000    0.045000    0.045000    0.045001    0.045001
     0.045001    0.045001    0.045002    0.045002    0.045004    0.045008
     0.045012    0.045012    0.045015    0.045031    0.045056    0.045072
     0.045205    0.159474    0.159945    0.159978    0.159981    0.159997
     0.160010    0.160374    0.162400    0.201045    0.221476    0.223069
     0.230293    0.238173    0.241673    0.249669    0.250971    0.262479
     0.286195    0.322525    0.326660    0.327894    0.338154    0.340254
     0.341381    0.365512    0.365518    0.365813    0.366890    0.367247
     0.367951    0.370112    0.370952    0.401757    0.422958    0.435453
     0.436305    0.442400    0.463511    0.464330    0.481293    0.495973
     0.499022    0.585962

 Minimum Search - Taking Simple RFO Step
 Searching for Lamda that Minimizes Along All modes
 Value Taken    Lamda =  -0.00136780
 Step Taken.  Stepsize is  0.208387

                             Maximum     Tolerance    Cnvgd?
         Gradient           0.004262      0.000300      NO
         Displacement       0.103740      0.001200      NO
         Energy change     -0.003313      0.000001      NO


 New Cartesian Coordinates Obtained by Inverse Iteration

 Displacement from previous Coordinates is:  0.566463
 ----------------------------------------------------------------
             Standard Nuclear Orientation (Angstroms)
    I     Atom           X                Y                Z
 ----------------------------------------------------------------
    1      H      -0.1082839033    -0.6364318570    -0.0447860145
    2      H       1.0516661765    -2.9513581027    -0.5544941098
    3      C       0.9562367366    -0.8161806518    -0.1302482254
[...]
      2 H                     0.164503       0.001319
      3 C                     0.057573       0.240671
      4 C                    -0.252893      -0.037344
      5 S                    -0.046182      -0.025139
      6 C                     0.503166       0.140045
      7 H                     0.145144      -0.009078
      8 C                    -0.266826       0.044263
      9 H                     0.150452      -0.005074
     10 C                    -0.096656       0.170717
     11 C                    -0.065697       0.072705
     12 S                    -0.199671      -0.054920
     13 C                     0.142471       0.046839
     14 H                     0.183337      -0.003791
     15 C                    -0.043631       0.203672
     16 C                    -0.076535       0.020551
     17 H                     0.174854      -0.007854
     18 C                     0.073560       0.104890
     19 S                     0.083627      -0.020854
     20 C                    -0.275484      -0.030433
     21 C                     0.009450       0.167952
     22 H                     0.156190       0.001679
     23 H                     0.236765      -0.008471
  --------------------------------------------------------
  Sum of atomic charges =     1.000000
  Sum of spin   charges =     1.000000

 -----------------------------------------------------------------
                    Cartesian Multipole Moments
 -----------------------------------------------------------------
    Charge (ESU x 10^10)
                 4.8032
    Dipole Moment (Debye)
         X      27.9797      Y      -1.6928      Z      -1.2870
       Tot      28.0604
    Quadrupole Moments (Debye-Ang)
        XX     143.7075     XY      -4.5505     YY     -87.5082
        XZ     -10.2201     YZ      -0.5658     ZZ    -107.8241
    Octopole Moments (Debye-Ang^2)
       XXX     582.2762    XXY     -25.5598    XYY    -540.3119
       YYY     121.2395    XXZ     -87.5336    XYZ     -23.4433
       YYZ      16.2899    XZZ    -636.2570    YZZ      50.7872
       ZZZ      56.8427
    Hexadecapole Moments (Debye-Ang^3)
      XXXX   -3297.8459   XXXY    -326.2518   XXYY   -4391.9021
      XYYY     767.4648   YYYY    -844.9619   XXXZ    -815.6873
      XXYZ    -299.0579   XYYZ     123.3628   YYYZ       4.8302
      XXZZ   -4953.1281   XYZZ     300.8779   YYZZ    -204.8224
      XZZZ     338.9840   YZZZ     -14.0504   ZZZZ    -252.3099
 -----------------------------------------------------------------
 Calculating analytic gradient of the SCF energy
 Gradient of SCF Energy
            1           2           3           4           5           6
    1   0.0000098  -0.0000045  -0.0000645   0.0001036   0.0000408  -0.0000852
    2   0.0000060  -0.0000203  -0.0000375  -0.0000073   0.0000171  -0.0000956
    3  -0.0000172   0.0000043   0.0000765  -0.0000317  -0.0000132   0.0000935
            7           8           9          10          11          12
    1  -0.0000099  -0.0000519   0.0000094   0.0000131   0.0002408  -0.0001752
    2  -0.0000021  -0.0000941  -0.0000227  -0.0000904   0.0002547  -0.0000178
    3  -0.0000105  -0.0001223  -0.0000188  -0.0001522   0.0000905   0.0000309
           13          14          15          16          17          18
    1  -0.0010079   0.0000255   0.0010861   0.0006030   0.0000127  -0.0006308
    2  -0.0024052   0.0000094   0.0003441   0.0081735   0.0000471  -0.0062063
    3   0.0084786  -0.0000080  -0.0170215   0.0151808   0.0000522  -0.0065787
           19          20          21          22          23
    1  -0.0001807  -0.0000546   0.0001212   0.0000168  -0.0000176
    2   0.0000675  -0.0000248   0.0001080   0.0000085  -0.0000117
    3  -0.0000340  -0.0000064   0.0000160   0.0000145  -0.0000234
 Max gradient component =       1.702E-02
 RMS gradient           =       3.297E-03
 Gradient time:  CPU 4.22 s  wall 4.19 s
 Geometry Optimization Parameters
   NAtoms,    NIC,     NZ,  NCons,   NDum,   NFix, NCnnct, MaxDiis
       23     166       0       1       0       0       0       0

 Cartesian Hessian Update
 Hessian Updated using BFGS Update


** CONSTRAINED OPTIMIZATION IN DELOCALIZED INTERNAL COORDINATES **
   Searching for a Minimum

   Optimization Cycle:  12

                       Coordinates (Angstroms)
     ATOM                X               Y               Z
      1  H        -0.1080002078   -0.6198234609   -0.1319687006
      2  H         1.0536703326   -2.9681886494   -0.4458094184
      3  C         0.9572130481   -0.8087300749   -0.1778948135
      4  C         1.5904884611   -2.0330591383   -0.3432429558
      5  S         2.0582859958    0.5018985706   -0.0391866140
      6  C         2.9858638429   -1.9161768108   -0.3570863083
      7  H         3.6590217046   -2.7585751319   -0.4706098386
      8  C         3.4345567302   -0.5922796137   -0.2010024318
      9  H         4.5310796354    2.0280341351    0.2597696489
     10  C         4.7657982429   -0.1160732829   -0.1629069842
     11  C         5.2102758303    1.2098104193    0.0495999165
     12  S         6.1385209623   -1.1878755318   -0.4161210398
     13  C         6.5882477436    1.3464920174    0.0051119891
     14  H         7.1161334747    2.2753905351    0.1864498388
     15  C         7.2698548606    0.1401593547   -0.2660078747
     16  C         8.6834278801   -0.0781149460   -0.1930642439
     17  H         9.4459307388    1.4714722783   -1.5287690687
     18  C         9.6638059543    0.5930897113   -0.9317315308
     19  S         9.3654766551   -1.5136513675    0.5635167894
     20  C        10.9364182666   -0.0018256047   -0.8361848475
     21  C        10.9301107089   -1.1391733734   -0.0510524468
     22  H        11.8253063833    0.3794798060   -1.3239025441
     23  H        11.7753927560   -1.7574292313    0.2235362688
   Point Group: c1    Number of degrees of freedom:    63


   Energy is  -1656.408150736

              Constraints and their Current Values
                                        Value     Constraint
   Dihedral:       13  15  16  18      -60.000      -60.000
 Hessian Updated using BFGS Update

 62 Hessian modes will be used to form the next step
  Hessian Eigenvalues:
     0.005926    0.013227    0.042984    0.045000    0.045001    0.045001
     0.045002    0.045003    0.045003    0.045004    0.045008    0.045013
     0.045018    0.045029    0.045047    0.045074    0.045140    0.045563
     0.051956    0.153392    0.159942    0.160001    0.160008    0.160153
     0.160454    0.160764    0.161486    0.186469    0.221453    0.224210
     0.229909    0.239538    0.245438    0.249306    0.255269    0.267611
     0.283023    0.319727    0.327155    0.332127    0.335696    0.341040
     0.344893    0.365526    0.365563    0.365881    0.366904    0.367420
     0.368029    0.370135    0.371211    0.400684    0.428265    0.434573
     0.437511    0.451808    0.462121    0.464691    0.479889    0.492758
     0.498673    0.631483

 Minimum Search - Taking Simple RFO Step
 Searching for Lamda that Minimizes Along All modes
 Value Taken    Lamda =  -0.00000309
 Step Taken.  Stepsize is  0.017381

                             Maximum     Tolerance    Cnvgd?
         Gradient           0.000272      0.000300     YES
         Displacement       0.011445      0.001200      NO
         Energy change      0.000000      0.000001     YES

 Final energy is   -1656.40815073646     


 ******************************
 **  OPTIMIZATION CONVERGED  **
 ******************************

                       Coordinates (Angstroms)
     ATOM                X               Y               Z
      1  H        -0.1080002078   -0.6198234609   -0.1319687006
      2  H         1.0536703326   -2.9681886494   -0.4458094184
      3  C         0.9572130481   -0.8087300749   -0.1778948135
      4  C         1.5904884611   -2.0330591383   -0.3432429558
      5  S         2.0582859958    0.5018985706   -0.0391866140
      6  C         2.9858638429   -1.9161768108   -0.3570863083
      7  H         3.6590217046   -2.7585751319   -0.4706098386
      8  C         3.4345567302   -0.5922796137   -0.2010024318
      9  H         4.5310796354    2.0280341351    0.2597696489
     10  C         4.7657982429   -0.1160732829   -0.1629069842
     11  C         5.2102758303    1.2098104193    0.0495999165
     12  S         6.1385209623   -1.1878755318   -0.4161210398
     13  C         6.5882477436    1.3464920174    0.0051119891
     14  H         7.1161334747    2.2753905351    0.1864498388
     15  C         7.2698548606    0.1401593547   -0.2660078747
     16  C         8.6834278801   -0.0781149460   -0.1930642439
     17  H         9.4459307388    1.4714722783   -1.5287690687
     18  C         9.6638059543    0.5930897113   -0.9317315308
     19  S         9.3654766551   -1.5136513675    0.5635167894
     20  C        10.9364182666   -0.0018256047   -0.8361848475
     21  C        10.9301107089   -1.1391733734   -0.0510524468
     22  H        11.8253063833    0.3794798060   -1.3239025441
     23  H        11.7753927560   -1.7574292313    0.2235362688

Z-matrix Print:
$molecule
1 2
S 
C  1 1.751036
C  2 1.411854 1 110.644563
H  3 1.083697 2 121.961411 1 176.600043 0
C  3 1.385449 2 113.705853 1 -1.751930 0
H  5 1.083960 3 123.708171 2 179.061555 0
C  5 1.414456 3 113.590457 2 1.030866 0
C  7 1.414365 5 127.982944 3 -178.980686 0
C  8 1.406553 7 128.327072 5 -177.136949 0
H  9 1.084280 8 123.013395 7 0.036449 0
C  9 1.400331 8 113.287097 7 179.703501 0
H  11 1.083125 9 124.401766 8 -179.796295 0
C  11 1.388294 9 112.464278 8 0.015699 0
H  13 1.082808 11 127.419651 9 -179.952167 0
C  2 1.432185 1 121.767574 3 169.613642 0
C  15 1.399030 2 126.273362 1 132.139020 0
H  16 1.084195 15 122.589553 2 10.199532 0
C  16 1.408047 15 113.254687 2 -168.692241 0
H  18 1.083229 16 124.220694 15 -179.055833 0
C  18 1.382039 16 112.465669 15 1.226699 0
H  20 1.082655 18 127.623498 16 -176.902681 0
S  13 1.717367 11 112.966288 9 0.075121 0
S  20 1.722210 18 112.694256 16 0.869307 0
$end

 
 --------------------------------------------------------------
 
                    Orbital Energies (a.u.)
 --------------------------------------------------------------
 
 Alpha MOs
 -- Occupied --
-89.076 -89.069 -89.059 -10.411 -10.410 -10.396 -10.384 -10.384
-10.369 -10.368 -10.366 -10.362 -10.351 -10.349 -10.337  -8.135
 -8.128  -8.118  -6.099  -6.096  -6.092  -6.091  -6.089  -6.085
 -6.082  -6.078  -6.075  -1.064  -1.041  -1.024  -0.944  -0.914
 -0.896  -0.889  -0.881  -0.841  -0.771  -0.747  -0.710  -0.705
 -0.689  -0.679  -0.669  -0.643  -0.608  -0.573  -0.570  -0.570
 -0.559  -0.553  -0.547  -0.541  -0.532  -0.519  -0.518  -0.510
 -0.495  -0.488  -0.449  -0.422  -0.409  -0.400  -0.392  -0.352
 -- Virtual --
 -0.228  -0.178  -0.154  -0.138  -0.128  -0.113  -0.109  -0.108
 -0.100  -0.094  -0.093  -0.083  -0.082  -0.079  -0.077  -0.072
 -0.066  -0.063  -0.059  -0.054  -0.047  -0.043  -0.039  -0.030
 -0.024  -0.021  -0.018  -0.011  -0.004  -0.003   0.004   0.005
  0.008   0.012   0.014   0.018   0.023   0.028   0.029   0.034
  0.036   0.038   0.039   0.041   0.043   0.045   0.052   0.054
  0.056   0.058   0.063   0.064   0.067   0.074   0.076   0.080
  0.085   0.089   0.096   0.099   0.103   0.106   0.113   0.113
  0.118   0.121   0.128   0.131   0.137   0.144   0.149   0.151
  0.153   0.163   0.167   0.172   0.181   0.183   0.186   0.190
  0.204   0.204   0.216   0.223   0.231   0.236   0.239   0.248
  0.250   0.260   0.269   0.279   0.308   0.324   0.334   0.353
  0.378   0.379   0.391   0.398   0.425   0.429   0.438   0.444
  0.460   0.475   0.485   0.500   0.505   0.510   0.511   0.517
  0.526   0.539   0.545   0.555   0.570   0.580   0.581   0.589
  0.596   0.602   0.606   0.615   0.636   0.637   0.640   0.651
  0.666   0.671   0.683   0.689   0.698   0.709   0.733   0.764
  0.787   0.791   0.800   0.809   0.814   0.818   0.821   0.829
  0.838   0.842   0.849   0.851   0.871   0.874   0.881   0.891
  0.895   0.908   0.926   0.939   0.943   0.961   0.964   0.972
  0.976   1.009   1.022   1.047   1.052   1.070   1.086   1.110
  1.118   1.132   1.151   1.168   1.193   1.195   1.197   1.205
  1.211   1.222   1.242   1.266   1.314   1.323   1.340   1.346
  1.398   1.419   1.457   1.482   1.519   1.528   1.556   1.575
  1.664   1.699   1.703   1.720   1.754   1.766   1.771   1.774
  1.788   1.805   1.813   1.830   1.863   1.873   1.896   1.910
  1.921   1.955   1.972   1.999   2.014   2.033   2.041   2.060
  2.073   2.090   2.111   2.124   2.142   2.179   2.224   2.238
  2.271   2.282   2.292   2.309   2.312   2.328   2.336   2.367
  2.379   2.384   2.386   2.408   2.442   2.456   2.474   2.485
  2.511   2.528   2.564   2.567   2.597   2.642   2.706   2.735
  2.747   2.763   2.794   2.798   2.987   3.035   3.066   3.136
  3.144   3.173   3.267   3.277   3.524   3.592   3.602   3.802
  3.834   3.858   4.100   4.139   4.166   4.170   4.180   4.194
  4.246   4.327   4.393   4.503   4.552   4.571
 
 Beta MOs
 -- Occupied --
-89.076 -89.069 -89.059 -10.408 -10.408 -10.396 -10.383 -10.381
-10.367 -10.367 -10.365 -10.360 -10.350 -10.350 -10.338  -8.135
 -8.128  -8.118  -6.099  -6.096  -6.092  -6.092  -6.089  -6.085
 -6.082  -6.078  -6.075  -1.060  -1.037  -1.021  -0.938  -0.912
 -0.894  -0.885  -0.879  -0.834  -0.767  -0.744  -0.707  -0.703
 -0.687  -0.678  -0.668  -0.641  -0.607  -0.569  -0.568  -0.561
 -0.557  -0.552  -0.543  -0.537  -0.531  -0.516  -0.508  -0.508
 -0.494  -0.487  -0.430  -0.419  -0.406  -0.396  -0.376
 -- Virtual --
 -0.299  -0.212  -0.169  -0.147  -0.134  -0.124  -0.113  -0.108
 -0.099  -0.098  -0.092  -0.091  -0.081  -0.079  -0.076  -0.074
 -0.071  -0.065  -0.062  -0.058  -0.053  -0.046  -0.042  -0.038
 -0.029  -0.023  -0.020  -0.017  -0.011  -0.004  -0.003   0.005
  0.006   0.008   0.013   0.015   0.019   0.024   0.029   0.030
  0.035   0.036   0.039   0.040   0.042   0.043   0.046   0.053
  0.054   0.057   0.059   0.064   0.065   0.068   0.075   0.077
  0.080   0.086   0.091   0.097   0.100   0.104   0.107   0.114
  0.114   0.119   0.122   0.129   0.132   0.138   0.145   0.150
  0.152   0.154   0.164   0.167   0.173   0.182   0.184   0.188
  0.191   0.205   0.206   0.219   0.225   0.232   0.236   0.240
  0.249   0.252   0.260   0.271   0.280   0.309   0.325   0.335
  0.354   0.379   0.380   0.392   0.400   0.427   0.430   0.438
  0.445   0.462   0.476   0.486   0.502   0.510   0.513   0.516
  0.524   0.528   0.541   0.549   0.558   0.573   0.581   0.582
  0.590   0.597   0.602   0.612   0.619   0.639   0.641   0.643
  0.652   0.667   0.675   0.687   0.690   0.702   0.712   0.734
  0.765   0.789   0.794   0.802   0.810   0.816   0.821   0.824
  0.831   0.839   0.844   0.850   0.853   0.872   0.875   0.882
  0.892   0.897   0.910   0.927   0.940   0.944   0.963   0.964
  0.973   0.977   1.010   1.025   1.049   1.055   1.074   1.089
  1.112   1.124   1.136   1.154   1.171   1.196   1.198   1.199
  1.208   1.218   1.226   1.244   1.269   1.317   1.328   1.344
  1.351   1.402   1.422   1.462   1.486   1.526   1.535   1.565
  1.582   1.667   1.701   1.705   1.725   1.756   1.767   1.772
  1.779   1.790   1.808   1.816   1.834   1.867   1.877   1.900
  1.913   1.926   1.958   1.976   2.006   2.018   2.041   2.046
  2.065   2.078   2.095   2.117   2.130   2.145   2.184   2.227
  2.240   2.274   2.285   2.296   2.313   2.317   2.329   2.338
  2.369   2.383   2.386   2.389   2.410   2.445   2.458   2.477
  2.488   2.513   2.531   2.567   2.570   2.599   2.645   2.709
  2.737   2.751   2.764   2.795   2.800   2.988   3.036   3.067
  3.137   3.145   3.174   3.269   3.278   3.525   3.593   3.603
  3.802   3.834   3.858   4.104   4.143   4.169   4.173   4.183
  4.196   4.250   4.331   4.398   4.506   4.554   4.574
 --------------------------------------------------------------
 
          Ground-State Mulliken Net Atomic Charges

     Atom                 Charge (a.u.)    Spin (a.u.)
  --------------------------------------------------------
      1 H                     0.242482      -0.012343
      2 H                     0.164503       0.001319
      3 C                     0.057573       0.240671
      4 C                    -0.252893      -0.037344
      5 S                    -0.046182      -0.025139
      6 C                     0.503166       0.140045
      7 H                     0.145144      -0.009078
      8 C                    -0.266826       0.044263
      9 H                     0.150452      -0.005074
     10 C                    -0.096656       0.170717
     11 C                    -0.065697       0.072705
     12 S                    -0.199671      -0.054920
     13 C                     0.142471       0.046839
     14 H                     0.183337      -0.003791
     15 C                    -0.043631       0.203672
     16 C                    -0.076535       0.020551
     17 H                     0.174854      -0.007854
     18 C                     0.073560       0.104890
     19 S                     0.083627      -0.020854
     20 C                    -0.275484      -0.030433
     21 C                     0.009450       0.167952
     22 H                     0.156190       0.001679
     23 H                     0.236765      -0.008471
  --------------------------------------------------------
  Sum of atomic charges =     1.000000
  Sum of spin   charges =     1.000000

 -----------------------------------------------------------------
                    Cartesian Multipole Moments
 -----------------------------------------------------------------
    Charge (ESU x 10^10)
                 4.8032
    Dipole Moment (Debye)
         X      27.9797      Y      -1.6928      Z      -1.2870
       Tot      28.0604
    Quadrupole Moments (Debye-Ang)
        XX     143.7075     XY      -4.5505     YY     -87.5082
        XZ     -10.2201     YZ      -0.5658     ZZ    -107.8241
    Octopole Moments (Debye-Ang^2)
       XXX     582.2762    XXY     -25.5598    XYY    -540.3119
       YYY     121.2395    XXZ     -87.5336    XYZ     -23.4433
       YYZ      16.2899    XZZ    -636.2570    YZZ      50.7872
       ZZZ      56.8427
    Hexadecapole Moments (Debye-Ang^3)
      XXXX   -3297.8459   XXXY    -326.2518   XXYY   -4391.9021
      XYYY     767.4648   YYYY    -844.9619   XXXZ    -815.6873
      XXYZ    -299.0579   XYYZ     123.3628   YYYZ       4.8302
      XXZZ   -4953.1281   XYZZ     300.8779   YYZZ    -204.8224
      XZZZ     338.9840   YZZZ     -14.0504   ZZZZ    -252.3099
 -----------------------------------------------------------------
Archival summary:
1\1\nid00501\OPT\ProcedureUnspecified\BasisUnspecified\3128(1+,2)\bwood\TueMay3011:03:372017TueMay3011:03:372017\0\\#,OPT,ProcedureUnspecified,BasisUnspecified,\\1,2\S\C,1,1.75104\C,2,1.41185,1,110.645\H,3,1.0837,2,121.961,1,176.6,0\C,3,1.38545,2,113.706,1,-1.75193,0\H,5,1.08396,3,123.708,2,179.062,0\C,5,1.41446,3,113.59,2,1.03087,0\C,7,1.41436,5,127.983,3,-178.981,0\C,8,1.40655,7,128.327,5,-177.137,0\H,9,1.08428,8,123.013,7,0.0364492,0\C,9,1.40033,8,113.287,7,179.704,0\H,11,1.08313,9,124.402,8,-179.796,0\C,11,1.38829,9,112.464,8,0.0156987,0\H,13,1.08281,11,127.42,9,-179.952,0\C,2,1.43218,1,121.768,3,169.614,0\C,15,1.39903,2,126.273,1,132.139,0\H,16,1.0842,15,122.59,2,10.1995,0\C,16,1.40805,15,113.255,2,-168.692,0\H,18,1.08323,16,124.221,15,-179.056,0\C,18,1.38204,16,112.466,15,1.2267,0\H,20,1.08265,18,127.623,16,-176.903,0\S,13,1.71737,11,112.966,9,0.075121,0\S,20,1.72221,18,112.694,16,0.869307,0\\\@

 Total job time:  292.46s(wall), 310.21s(cpu) 
 Tue May 30 11:03:37 2017

        *************************************************************
        *                                                           *
        *  Thank you very much for using Q-Chem.  Have a nice day.  *
        *                                                           *
        *************************************************************


0 sent ACK to 0 
now end server 0 ... 
