srun -N 1 --ntasks-per-node 22 --cpus-per-task 2 --cpu_bind=cores --nodelist nid00532 /global/project/projectdirs/jcesr/qchem/qc44/cnl_qc441/dist/exe/qcprog.cori.haswell.exe .pt_nn_cation_100.0.in.34221.qcin.1 /dev/shm/eg_qchem/qchem34221/
Process 1 of 22 is on nid00532 - thread support 0
Process 2 of 22 is on nid00532 - thread support 0
Process 3 of 22 is on nid00532 - thread support 0
Process 4 of 22 is on nid00532 - thread support 0
Process 5 of 22 is on nid00532 - thread support 0
Process 6 of 22 is on nid00532 - thread support 0
Process 0 of 22 is on nid00532 - thread support 0
initial socket setup ...start
Process 21 of 22 is on nid00532 - thread support 0
initial socket setup ...done 
now start server 0 ... 
nid00532 10.128.2
Q-Chem Developer Version! Running on 10.128.2.*
                  Welcome to Q-Chem
     A Quantum Leap Into The Future Of Chemistry


 Q-Chem 4.4, Q-Chem, Inc., Pleasanton, CA (2016)

 Y. Shao,  Z. Gan,  E. Epifanovsky,  A. T. B. Gilbert,  M. Wormit,  
 J. Kussmann,  A. W. Lange,  A. Behn,  J. Deng,  X. Feng,  D. Ghosh,  
 M. Goldey,  P. R. Horn,  L. D. Jacobson,  I. Kaliman,  F. Rob,  
 R. Z. Khaliullin,  T. Kus,  A. Landau,  J. Liu,  E. I. Proynov,  Y. M. Rhee,  
 R. M. Richard,  M. A. Rohrdanz,  R. P. Steele,  E. J. Sundstrom,  
 H. L. Woodcock III,  P. M. Zimmerman,  D. Zuev,  B. Albrecht,  E. Alguire,  
 B. Austin,  S. A. Baeppler,  G. J. O. Beran,  Y. A. Bernard,  
 E. J. Berquist,  K. Brandhorst,  K. B. Bravaya,  S. T. Brown,  D. Casanova,  
 C.-M. Chang,  Y. Chen,  S. H. Chien,  K. D. Closser,  M. P. Coons,  
 D. L. Crittenden,  S. Dasgupta,  M. Diedenhofen,  R. A. DiStasio Jr.,  
 H. Do,  A. D. Dutoi,  R. G. Edgar,  P.-T. Fang,  S. Fatehi,  Q. Feng,  
 L. Fusti-Molnar,  A. Ghysels,  A. Golubeva-Zadorozhnaya,  J. Gomes,  
 A. Gunina,  M. W. D. Hanson-Heine,  P. H. P. Harbach,  A. W. Hauser,  
 J. E. Herr,  E. G. Hohenstein,  Z. C. Holden,  K. Hui,  T.-C. Jagau,  H. Ji,  
 B. Kaduk,  K. Khistyaev,  Jaehoon Kim,  Jihan Kim,  R. A. King,  
 P. Klunzinger,  K. Koh,  D. Kosenkov,  T. Kowalczyk,  C. M. Krauter,  
 A. Kunitsa,  K. U. Lao,  A. Laurent,  K. V. Lawler,  J. Lee,  D. Lefrancois,  
 S. Lehtola,  S. V. Levchenko,  C. Y. Lin,  Y.-S. Lin,  F. Liu,  E. Livshits,  
 R. C. Lochan,  A. Luenser,  P. Manohar,  S. F. Manzer,  S.-P. Mao,  Y. Mao,  
 N. Mardirossian,  A. V. Marenich,  L. A. Martinez-Martinez,  S. A. Maurer,  
 N. J. Mayhall,  J.-M. Mewes,  A. F. Morrison,  K. Nanda,  T. S. Nguyen-Beck,  
 C. M. Oana,  R. Olivares-Amaya,  D. P. O'Neill,  J. A. Parkhill,  
 T. M. Perrine,  R. Peverati,  P. A. Pieniazek,  F. Plasser,  A. Prociuk,  
 D. R. Rehn,  E. Rosta,  N. J. Russ,  N. Sergueev,  S. M. Sharada,  
 S. Sharma,  D. W. Small,  A. Sodt,  T. Stauch,  T. Stein,  D. Stuck,  
 Y.-C. Su,  A. J. W. Thom,  T. Tsuchimochi,  L. Vogt,  O. Vydrov,  T. Wang,  
 M. A. Watson,  J. Wenzel,  A. White,  C. F. Williams,  V. Vanovschi,  
 K. Yao,  S. Yeganeh,  S. R. Yost,  Z.-Q. You,  I. Y. Zhang,  X. Zhang,  
 Y. Zhao,  B. R. Brooks,  G. K. L. Chan,  D. M. Chipman,  C. J. Cramer,  
 W. A. Goddard III,  M. S. Gordon,  W. J. Hehre,  A. Klamt,  
 H. F. Schaefer III,  M. W. Schmidt,  C. D. Sherrill,  D. G. Truhlar,  
 A. Warshel,  X. Xu,  A. Aspuru-Guzik,  R. Baer,  A. T. Bell,  N. A. Besley,  
 J.-D. Chai,  A. Dreuw,  B. D. Dunietz,  T. R. Furlani,  S. R. Gwaltney,  
 C.-P. Hsu,  Y. Jung,  J. Kong,  D. S. Lambrecht,  W. Liang,  C. Ochsenfeld,  
 V. A. Rassolov,  L. V. Slipchenko,  J. E. Subotnik,  T. Van Voorhis,  
 J. M. Herbert,  A. I. Krylov,  P. M. W. Gill,  M. Head-Gordon

 Contributors to earlier versions of Q-Chem not listed above: 
 R. D. Adamson,  J. Baker,  E. F. C. Byrd,  A. K. Chakraborty,  C.-L. Cheng,  
 H. Dachsel,  R. J. Doerksen,  G. Hawkins,  A. Heyden,  S. Hirata,  
 G. Kedziora,  F. J. Keil,  C. Kelley,  P. P. Korambath,  W. Kurlancheek,  
 A. M. Lee,  M. S. Lee,  D. Liotard,  I. Lotan,  P. E. Maslen,  N. Nair,  
 D. Neuhauser,  R. Olson,  B. Peters,  J. Ritchie,  N. E. Schultz,  
 N. Shenvi,  A. C. Simmonett,  K. S. Thanthiriwatte,  Q. Wu,  W. Zhang

 Please cite Q-Chem as follows:
 Y. Shao et al., Mol. Phys. 113, 184-215 (2015)
 DOI: 10.1080/00268976.2014.952696

 Q-Chem 4.4.2 for Intel X86 EM64T Linux

 Parts of Q-Chem use Armadillo 5.200.1 (Boston Tea Smuggler).
 http://arma.sourceforge.net/

 Q-Chem begins on Tue May 30 10:58:51 2017  

Host: nid00444
0

     Scratch files written to /dev/shm/eg_qchem/qchem34221.0//
 Parallel job on  22  processors

Checking the input file for inconsistencies... 	...done.

--------------------------------------------------------------
User input:
--------------------------------------------------------------
$molecule
 1  2
 H           0.00000000        0.00000000        0.00000000
 H           0.66366000       -2.46828000       -0.59127000
 C           0.99103000       -0.39106000       -0.11652000
 C           1.36812000       -1.67442000       -0.42485000
 S           2.34669000        0.62586000        0.08638000
 C           2.76167000       -1.82175000       -0.50822000
 H           3.26291000       -2.73877000       -0.76199000
 C           3.44671000       -0.65043000       -0.26057000
 H           4.55645000        1.43902671        0.15704385
 C           4.88382000       -0.65043000       -0.26057000
 C           5.26091000        0.64090194        0.01245390
 S           6.23948000       -1.67253113       -0.43550939
 C           6.65446000        0.79046248        0.09175311
 H           7.15570000        1.71409653        0.32028213
 C           7.33950000       -0.38720773       -0.12368600
 C           8.77661000       -0.38720773       -0.12368600
 H           8.96041000       -1.07946354        1.90938220
 C           9.46165000       -0.80387423        0.99868246
 S           9.87663000        0.00162735       -1.38784468
 C          10.85520000       -0.79560244        0.82960176
 C          11.23229000       -0.37034729       -0.41989317
 H          11.55966000       -1.07920155        1.58952311
 H          12.22332000       -0.25983906       -0.81269506
$end


$rem
         jobtype = opt
        exchange = b3lyp
           basis = 6-31++g**
  max_scf_cycles = 150
      mem_static = 281
       mem_total = 2818
      sym_ignore = true
        symmetry = false
          thresh = 12
$end


$opt
CONSTRAINT
tors 13 15 16 18 100.0
ENDCONSTRAINT
$end

--------------------------------------------------------------
 ----------------------------------------------------------------
             Standard Nuclear Orientation (Angstroms)
    I     Atom           X                Y                Z
 ----------------------------------------------------------------
    1      H       0.0000000000     0.0000000000     0.0000000000
    2      H       0.6636600000    -2.4682800000    -0.5912700000
    3      C       0.9910300000    -0.3910600000    -0.1165200000
    4      C       1.3681200000    -1.6744200000    -0.4248500000
    5      S       2.3466900000     0.6258600000     0.0863800000
    6      C       2.7616700000    -1.8217500000    -0.5082200000
    7      H       3.2629100000    -2.7387700000    -0.7619900000
    8      C       3.4467100000    -0.6504300000    -0.2605700000
    9      H       4.5564500000     1.4390267100     0.1570438500
   10      C       4.8838200000    -0.6504300000    -0.2605700000
   11      C       5.2609100000     0.6409019400     0.0124539000
   12      S       6.2394800000    -1.6725311300    -0.4355093900
   13      C       6.6544600000     0.7904624800     0.0917531100
   14      H       7.1557000000     1.7140965300     0.3202821300
   15      C       7.3395000000    -0.3872077300    -0.1236860000
   16      C       8.7766100000    -0.3872077300    -0.1236860000
   17      H       8.9604100000    -1.0794635400     1.9093822000
   18      C       9.4616500000    -0.8038742300     0.9986824600
   19      S       9.8766300000     0.0016273500    -1.3878446800
   20      C      10.8552000000    -0.7956024400     0.8296017600
   21      C      11.2322900000    -0.3703472900    -0.4198931700
   22      H      11.5596600000    -1.0792015500     1.5895231100
   23      H      12.2233200000    -0.2598390600    -0.8126950600
 ----------------------------------------------------------------
 Nuclear Repulsion Energy =  1184.7050159192 hartrees
 There are       64 alpha and       63 beta electrons
 Requested basis set is 6-31++G(d,p)
 There are 110 shells and 345 basis functions

 Total QAlloc Memory Limit   2818 MB
 Mega-Array Size       275 MB
 MEM_STATIC part       281 MB
 A cutoff of  1.0D-12 yielded   4718 shell pairs
 There are     48075 function pairs

 Q-Chem warning in module /project/projectdirs/jcesr/qchem/qc44/cnl_qc441/compile/cori/qc_src/libqints/qchem/aobasis.C, line 68:

 Using reconstructed effective core potential

 
 -------------------------------------------------------
 OpenMP Integral Computing Module                       
 Release: version 1.0, May 2013, Q-Chem Inc. Pittsburgh 
 -------------------------------------------------------
 Integral Job Info:
 Integral job number is                      11
 Integral operator is                         1
 short-range coefficients                     0
 long-range coefficients              100000000
 Omega coefficients                           0
 if combine SR and LR in K                    0
 Integral screening is                        0
 Integral computing path is                   2
 max size of driver memory is            800000
 size of driver memory is                593474
 size of scratch memory is             15166112
 max col of scratch BK array               1296
 max len of scratch array in speh3          155
 max len of scratch index in speh4           18
 max int batch size is                      520
 min int batch size is                       52
 fixed nKL is                                52
 max L of basis functions is                  2
 order of int derivative is                   0
 number of shells is                        110
 number of basis is                         345
 number of cartesian basis is               345
 number of contracted shell pairs          4718
 number of primitive shell pairs          14762
 maxK2 (contraction) of shell pair           36
 max number of K2 of shell pair               1
 max number of CS2 of shell pair            507
 max number of PS2 of shell pair           3042
 mem total for path MDJ                  101288
 -------------------------------------------------------
 Smallest overlap matrix eigenvalue = 9.77E-08
 Linear dependence detected in AO basis
 Number of orthogonalized atomic orbitals = 342
 Maximum deviation from orthogonality = 1.359E-10

 Scale SEOQF with 1.000000e-02/1.000000e-01/1.000000e-01

 Standard Electronic Orientation quadrupole field applied
 Nucleus-field energy     =     0.0000000255 hartrees
 Guess from superposition of atomic densities
 Warning:  Energy on first SCF cycle will be non-variational
 An unrestricted hybrid HF-DFT SCF calculation will be
 performed using Pulay DIIS extrapolation
 Exchange:     0.2000 Hartree-Fock + 0.0800 Slater + 0.7200 B88
 Correlation:  0.1900 VWN1RPA + 0.8100 LYP
 Using SG-1 standard quadrature grid
 SCF converges when DIIS error is below 1.0E-08
 Inaccurate integrated density:
   Number of electrons =   127
   Numerical integral  =   127.999653864797
   Relative error      =     0.7871290274 %
 ---------------------------------------
  Cycle       Energy         DIIS Error
 ---------------------------------------
    1   -1660.7189932167      3.84E-02
    2   -1656.1306659733      3.64E-03
    3   -1655.5252281881      6.40E-03
    4   -1656.2799510111      1.96E-03
    5   -1656.3474616693      4.31E-04
    6   -1656.3493001662      4.04E-04
    7   -1656.3518039187      1.51E-04
    8   -1656.3522504549      5.60E-05
    9   -1656.3523393847      1.51E-05
   10   -1656.3523620661      7.45E-06
   11   -1656.3523740100      6.17E-06
   12   -1656.3523811763      2.57E-06
   13   -1656.3523836734      1.77E-06
   14   -1656.3523842692      1.03E-06
   15   -1656.3523844809      5.86E-07
   16   -1656.3523845087      2.86E-07
   17   -1656.3523845187      1.19E-07
   18   -1656.3523845194      3.71E-08
   19   -1656.3523845190      1.95E-08
   20   -1656.3523845190      1.15E-08
   21   -1656.3523845197      4.63E-09 Convergence criterion met
 ---------------------------------------
 <S^2> = 0.7646
 SCF time:  CPU 29.21 s  wall 27.19 s
 SCF   energy in the final basis set = -1656.3523845197
 Total energy in the final basis set = -1656.3523845197
 
 --------------------------------------------------------------
 
                    Orbital Energies (a.u.)
 --------------------------------------------------------------
 
 Alpha MOs
 -- Occupied --
-89.091 -89.086 -89.042 -10.414 -10.414 -10.411 -10.401 -10.371
-10.371 -10.362 -10.357 -10.355 -10.337 -10.322 -10.310  -8.150
 -8.146  -8.102  -6.115  -6.111  -6.110  -6.107  -6.106  -6.103
 -6.066  -6.062  -6.059  -1.090  -1.064  -1.019  -0.962  -0.925
 -0.908  -0.899  -0.865  -0.846  -0.775  -0.755  -0.715  -0.702
 -0.692  -0.687  -0.675  -0.643  -0.612  -0.591  -0.589  -0.583
 -0.567  -0.556  -0.551  -0.529  -0.526  -0.522  -0.519  -0.508
 -0.500  -0.471  -0.455  -0.431  -0.422  -0.385  -0.378  -0.363
 -- Virtual --
 -0.228  -0.162  -0.158  -0.149  -0.124  -0.121  -0.116  -0.109
 -0.106  -0.098  -0.092  -0.089  -0.085  -0.078  -0.075  -0.069
 -0.065  -0.063  -0.058  -0.055  -0.043  -0.042  -0.037  -0.033
 -0.031  -0.018  -0.017  -0.013  -0.008  -0.001   0.002   0.005
  0.011   0.012   0.016   0.017   0.019   0.021   0.026   0.028
  0.030   0.037   0.039   0.042   0.044   0.045   0.051   0.055
  0.057   0.058   0.062   0.065   0.066   0.074   0.078   0.081
  0.084   0.093   0.097   0.100   0.105   0.110   0.113   0.116
  0.120   0.125   0.127   0.130   0.135   0.147   0.153   0.155
  0.159   0.162   0.170   0.171   0.177   0.183   0.186   0.191
  0.206   0.208   0.222   0.226   0.233   0.237   0.250   0.254
  0.260   0.263   0.273   0.288   0.309   0.340   0.342   0.356
  0.365   0.371   0.382   0.400   0.424   0.434   0.452   0.475
  0.478   0.486   0.489   0.497   0.501   0.504   0.515   0.522
  0.528   0.549   0.558   0.567   0.570   0.579   0.581   0.588
  0.598   0.605   0.622   0.628   0.638   0.641   0.652   0.657
  0.670   0.672   0.677   0.683   0.697   0.718   0.734   0.776
  0.784   0.795   0.797   0.806   0.822   0.828   0.836   0.839
  0.846   0.855   0.859   0.864   0.874   0.876   0.894   0.900
  0.904   0.914   0.930   0.934   0.954   0.957   0.961   0.997
  1.005   1.017   1.029   1.045   1.068   1.084   1.096   1.115
  1.136   1.150   1.166   1.173   1.181   1.196   1.202   1.213
  1.232   1.238   1.254   1.260   1.283   1.305   1.320   1.352
  1.373   1.420   1.437   1.470   1.491   1.539   1.591   1.660
  1.675   1.699   1.701   1.735   1.743   1.770   1.781   1.792
  1.811   1.830   1.843   1.867   1.875   1.899   1.907   1.934
  1.953   1.961   2.007   2.029   2.037   2.054   2.069   2.077
  2.102   2.129   2.139   2.171   2.178   2.213   2.217   2.260
  2.272   2.302   2.308   2.315   2.348   2.356   2.364   2.378
  2.385   2.398   2.411   2.437   2.438   2.482   2.495   2.511
  2.524   2.557   2.562   2.584   2.630   2.676   2.691   2.729
  2.745   2.785   2.792   2.807   3.020   3.061   3.085   3.144
  3.187   3.196   3.278   3.323   3.552   3.608   3.652   3.812
  3.837   3.859   4.089   4.147   4.168   4.176   4.195   4.234
  4.244   4.347   4.408   4.506   4.554   4.589
 
 Beta MOs
 -- Occupied --
-89.092 -89.086 -89.042 -10.412 -10.412 -10.407 -10.397 -10.369
-10.368 -10.363 -10.358 -10.355 -10.337 -10.322 -10.310  -8.151
 -8.146  -8.101  -6.115  -6.111  -6.111  -6.108  -6.107  -6.103
 -6.066  -6.062  -6.059  -1.085  -1.058  -1.017  -0.956  -0.922
 -0.906  -0.893  -0.864  -0.842  -0.771  -0.752  -0.711  -0.699
 -0.691  -0.685  -0.673  -0.642  -0.610  -0.588  -0.581  -0.577
 -0.565  -0.549  -0.542  -0.528  -0.525  -0.520  -0.513  -0.507
 -0.498  -0.469  -0.433  -0.427  -0.418  -0.377  -0.361
 -- Virtual --
 -0.320  -0.208  -0.157  -0.148  -0.146  -0.121  -0.120  -0.106
 -0.104  -0.098  -0.097  -0.091  -0.089  -0.084  -0.078  -0.074
 -0.069  -0.065  -0.062  -0.058  -0.055  -0.043  -0.042  -0.036
 -0.032  -0.030  -0.017  -0.015  -0.012  -0.008  -0.001   0.003
  0.005   0.012   0.013   0.017   0.018   0.020   0.022   0.027
  0.029   0.031   0.037   0.040   0.042   0.045   0.046   0.051
  0.056   0.058   0.060   0.064   0.065   0.066   0.075   0.080
  0.081   0.084   0.094   0.098   0.101   0.106   0.111   0.113
  0.117   0.121   0.126   0.128   0.131   0.136   0.147   0.154
  0.156   0.161   0.162   0.171   0.173   0.178   0.184   0.187
  0.193   0.206   0.209   0.224   0.227   0.234   0.238   0.251
  0.255   0.261   0.264   0.276   0.288   0.310   0.342   0.344
  0.357   0.366   0.372   0.383   0.402   0.424   0.435   0.453
  0.478   0.483   0.489   0.490   0.500   0.503   0.512   0.517
  0.527   0.530   0.551   0.559   0.570   0.573   0.581   0.582
  0.592   0.604   0.607   0.623   0.629   0.641   0.643   0.655
  0.660   0.673   0.674   0.681   0.686   0.699   0.719   0.736
  0.777   0.785   0.798   0.800   0.808   0.824   0.832   0.839
  0.841   0.847   0.857   0.860   0.865   0.875   0.878   0.894
  0.901   0.905   0.916   0.931   0.936   0.955   0.958   0.963
  0.998   1.006   1.019   1.031   1.048   1.071   1.088   1.099
  1.117   1.143   1.153   1.170   1.177   1.185   1.202   1.206
  1.216   1.233   1.239   1.255   1.268   1.287   1.310   1.323
  1.354   1.375   1.423   1.441   1.478   1.495   1.551   1.592
  1.662   1.684   1.703   1.705   1.738   1.748   1.772   1.783
  1.793   1.814   1.835   1.848   1.872   1.877   1.901   1.910
  1.937   1.961   1.964   2.013   2.035   2.045   2.060   2.073
  2.083   2.105   2.136   2.143   2.174   2.184   2.216   2.220
  2.263   2.276   2.305   2.312   2.321   2.349   2.358   2.366
  2.384   2.388   2.400   2.412   2.440   2.441   2.485   2.496
  2.513   2.527   2.560   2.565   2.585   2.632   2.682   2.694
  2.731   2.746   2.787   2.793   2.810   3.021   3.063   3.086
  3.144   3.187   3.196   3.280   3.323   3.553   3.609   3.652
  3.813   3.838   3.860   4.094   4.153   4.170   4.179   4.197
  4.236   4.249   4.350   4.412   4.509   4.558   4.590
 --------------------------------------------------------------
 
          Ground-State Mulliken Net Atomic Charges

     Atom                 Charge (a.u.)    Spin (a.u.)
  --------------------------------------------------------
      1 H                     0.256753      -0.014956
      2 H                     0.163946       0.000990
      3 C                     0.104998       0.303669
      4 C                    -0.394445      -0.039337
      5 S                    -0.098659      -0.046576
      6 C                     0.571909       0.160006
      7 H                     0.152418      -0.010054
      8 C                     0.143750       0.108169
      9 H                     0.070035      -0.009719
     10 C                    -0.142506       0.152057
     11 C                    -0.429606       0.142638
     12 S                     0.306257      -0.051973
     13 C                    -0.032986      -0.042772
     14 H                     0.178455       0.001351
     15 C                    -0.204454       0.299161
     16 C                    -0.080558       0.020905
     17 H                     0.144959      -0.001994
     18 C                     0.090582      -0.000224
     19 S                     0.166864       0.003351
     20 C                    -0.308618       0.002580
     21 C                    -0.028124       0.021272
     22 H                     0.145724       0.000896
     23 H                     0.223306       0.000561
  --------------------------------------------------------
  Sum of atomic charges =     1.000000
  Sum of spin   charges =     1.000000

 -----------------------------------------------------------------
                    Cartesian Multipole Moments
 -----------------------------------------------------------------
    Charge (ESU x 10^10)
                 4.8032
    Dipole Moment (Debye)
         X      24.1306      Y      -2.5141      Z      -0.3360
       Tot      24.2636
    Quadrupole Moments (Debye-Ang)
        XX      95.2753     XY      -9.6998     YY     -94.4031
        XZ       0.8548     YZ       1.4748     ZZ    -103.7025
    Octopole Moments (Debye-Ang^2)
       XXX      19.7051    XXY     -28.8564    XYY    -615.3184
       YYY     133.4887    XXZ      31.6696    XYZ      -9.0914
       YYZ      18.2640    XZZ    -615.6899    YZZ      45.9565
       ZZZ      71.6216
    Hexadecapole Moments (Debye-Ang^3)
      XXXX   -9853.7440   XXXY      30.3817   XXYY   -5191.5161
      XYYY     851.3501   YYYY    -680.7352   XXXZ     433.1152
      XXYZ    -178.1052   XYYZ     154.0001   YYYZ     -19.8618
      XXZZ   -4856.4921   XYZZ     248.8472   YYZZ    -188.8669
      XZZZ     473.0625   YZZZ     -55.6705   ZZZZ    -386.6287
 -----------------------------------------------------------------
 Calculating analytic gradient of the SCF energy
 Gradient of SCF Energy
            1           2           3           4           5           6
    1   0.0072437   0.0044865  -0.0057547  -0.0054983   0.0041438   0.0309523
    2  -0.0034638   0.0050017  -0.0028232   0.0179821  -0.0298627   0.0166982
    3  -0.0012751   0.0009853  -0.0009678   0.0053951  -0.0062374   0.0047798
            7           8           9          10          11          12
    1  -0.0014979  -0.0285111  -0.0019306   0.0510233  -0.0612868   0.0007257
    2   0.0061371   0.0571914  -0.0061641  -0.0414548  -0.0361420   0.0427064
    3   0.0005320   0.0105368  -0.0013448  -0.0084277  -0.0103239   0.0072470
           13          14          15          16          17          18
    1   0.0281726  -0.0037443  -0.0001436  -0.0070074   0.0020927  -0.0009741
    2  -0.0193469  -0.0044893  -0.0281293   0.0270688   0.0032746   0.0041481
    3  -0.0010590   0.0001827   0.0115733  -0.0174673  -0.0052021  -0.0011720
           19          20          21          22          23
    1   0.0052089  -0.0100733   0.0029509  -0.0041224  -0.0064560
    2  -0.0093901  -0.0030597   0.0035792   0.0011346  -0.0005964
    3   0.0211028   0.0006763  -0.0080320  -0.0051512   0.0036493
 Max gradient component =       6.129E-02
 RMS gradient           =       1.810E-02
 Gradient time:  CPU 4.23 s  wall 4.24 s
 Geometry Optimization Parameters
   NAtoms,    NIC,     NZ,  NCons,   NDum,   NFix, NCnnct, MaxDiis
       23     166       0       1       0       0       0       0


** CONSTRAINED OPTIMIZATION IN DELOCALIZED INTERNAL COORDINATES **
   Searching for a Minimum

   Optimization Cycle:   1

                       Coordinates (Angstroms)
     ATOM                X               Y               Z
      1  H         0.0000000000    0.0000000000    0.0000000000
      2  H         0.6636600000   -2.4682800000   -0.5912700000
      3  C         0.9910300000   -0.3910600000   -0.1165200000
      4  C         1.3681200000   -1.6744200000   -0.4248500000
      5  S         2.3466900000    0.6258600000    0.0863800000
      6  C         2.7616700000   -1.8217500000   -0.5082200000
      7  H         3.2629100000   -2.7387700000   -0.7619900000
      8  C         3.4467100000   -0.6504300000   -0.2605700000
      9  H         4.5564500000    1.4390267100    0.1570438500
     10  C         4.8838200000   -0.6504300000   -0.2605700000
     11  C         5.2609100000    0.6409019400    0.0124539000
     12  S         6.2394800000   -1.6725311300   -0.4355093900
     13  C         6.6544600000    0.7904624800    0.0917531100
     14  H         7.1557000000    1.7140965300    0.3202821300
     15  C         7.3395000000   -0.3872077300   -0.1236860000
     16  C         8.7766100000   -0.3872077300   -0.1236860000
     17  H         8.9604100000   -1.0794635400    1.9093822000
     18  C         9.4616500000   -0.8038742300    0.9986824600
     19  S         9.8766300000    0.0016273500   -1.3878446800
     20  C        10.8552000000   -0.7956024400    0.8296017600
     21  C        11.2322900000   -0.3703472900   -0.4198931700
     22  H        11.5596600000   -1.0792015500    1.5895231100
     23  H        12.2233200000   -0.2598390600   -0.8126950600
   Point Group: c1    Number of degrees of freedom:    63


   Energy is  -1656.352384520

              Constraints and their Current Values
                                        Value     Constraint
   Dihedral:       13  15  16  18      100.000      100.000

 Attempting to Generate Delocalized Internal Coordinates

 62 Hessian modes will be used to form the next step
  Hessian Eigenvalues:
     0.045000    0.045000    0.045000    0.045000    0.045000    0.045000
     0.045001    0.045001    0.045001    0.045002    0.045003    0.045003
     0.045011    0.045012    0.045012    0.045025    0.045032    0.045058
     0.045059    0.159944    0.159945    0.159945    0.159992    0.159993
     0.159993    0.160000    0.160000    0.221307    0.221308    0.227041
     0.237995    0.238010    0.245411    0.249662    0.249670    0.249670
     0.249825    0.326317    0.326319    0.326962    0.340043    0.340044
     0.340629    0.365512    0.365512    0.365513    0.366888    0.366889
     0.366889    0.370099    0.370100    0.399845    0.399845    0.435419
     0.435419    0.435422    0.463117    0.463122    0.464282    0.495500
     0.495500    0.495533

 Minimum Search - Taking Simple RFO Step
 Searching for Lamda that Minimizes Along All modes
 Value Taken    Lamda =  -0.06591533
 Calculated Step too Large.  Step scaled by  0.684055
 Step Taken.  Stepsize is  0.300000

                             Maximum     Tolerance    Cnvgd?
         Gradient           0.071294      0.000300      NO
         Displacement       0.149695      0.001200      NO
         Energy change     *********      0.000001      NO


 New Cartesian Coordinates Obtained by Inverse Iteration

 Displacement from previous Coordinates is:  1.759653
 ----------------------------------------------------------------
             Standard Nuclear Orientation (Angstroms)
    I     Atom           X                Y                Z
 ----------------------------------------------------------------
    1      H      -0.1078169771    -0.2656821872    -0.0830947473
    2      H       0.7928237944    -2.6835827969    -0.6350967740
    3      C       0.9247742577    -0.5643065690    -0.1707562880
    4      C       1.4210151361    -1.8228795790    -0.4591006206
    5      S       2.1643425435     0.5999031349     0.0595111333
    6      C       2.8207310871    -1.8352810836    -0.5024639282
    7      H       3.4105806940    -2.7109260890    -0.7323477694
    8      C       3.4011098877    -0.5832287018    -0.2449208303
    9      H       4.6422309413     1.7481591249     0.2003589389
   10      C       4.8310881532    -0.4070498408    -0.2018282959
   11      C       5.2943819850     0.9022390279     0.0604381911
   12      S       6.1637410032    -1.4845265808    -0.3660396239
   13      C       6.6875407092     0.9977423387     0.1302562652
   14      H       7.2354139497     1.9039822487     0.3428309489
   15      C       7.3212483796    -0.2265855284    -0.0726548759
   16      C       8.7657124980    -0.3680541021    -0.0800264983
   17      H       8.9817478999    -1.0726077746     1.9604903967
   18      C       9.4646237093    -0.8361617342     1.0230765156
   19      S       9.8410086485    -0.0670436508    -1.4017415429
   20      C      10.8551282083    -0.9297802434     0.7968663698
   21      C      11.2046307418    -0.5421708279    -0.4749702375
   22      H      11.5722987721    -1.2615433089     1.5329033880
   23      H      12.1885239777    -0.5090549668    -0.9138918952
 ----------------------------------------------------------------
 Nuclear Repulsion Energy =  1174.8749677971 hartrees
 There are       64 alpha and       63 beta electrons
 Applying Cartesian multipole field
    Component          Value
    ---------          -----
     (2,0,0)        1.00000E-12
     (0,2,0)        2.00000E-11
     (0,0,2)       -3.00000E-11
 Nucleus-field energy     =     0.0000000255 hartrees
 Requested basis set is 6-31++G(d,p)
 There are 110 shells and 345 basis functions
 A cutoff of  1.0D-12 yielded   4704 shell pairs
 There are     47899 function pairs

 Q-Chem warning in module /project/projectdirs/jcesr/qchem/qc44/cnl_qc441/compile/cori/qc_src/libqints/qchem/aobasis.C, line 68:

 Using reconstructed effective core potential

 Smallest overlap matrix eigenvalue = 9.33E-08
 Linear dependence detected in AO basis
 Number of orthogonalized atomic orbitals = 342
 Maximum deviation from orthogonality = 3.359E-11
 Guess MOs from SCF MO coefficient file
 Reading MOs from coefficient file
 Reading MOs from coefficient file
 An unrestricted hybrid HF-DFT SCF calculation will be
 performed using Pulay DIIS extrapolation
 Exchange:     0.2000 Hartree-Fock + 0.0800 Slater + 0.7200 B88
 Correlation:  0.1900 VWN1RPA + 0.8100 LYP
 Using SG-1 standard quadrature grid
 SCF converges when DIIS error is below 1.0E-08
 Geometry optimization detected.  Setting ReadMinima to 0
 Setting SaveMinima to 0
 Inaccurate integrated density:
   Number of electrons =   127
   Numerical integral  =   126.805552084585
   Relative error      =    -0.1531085948 %
 ---------------------------------------
  Cycle       Energy         DIIS Error
 ---------------------------------------
    1   -1656.1294988206      4.64E-03
    2   -1656.3653716131      9.95E-04
    3   -1656.3257115524      1.81E-03
    4   -1656.3825299628      2.47E-04
    5   -1656.3834202574      8.40E-05
    6   -1656.3835124640      4.12E-05
    7   -1656.3835373573      1.58E-05
    8   -1656.3835416393      5.02E-06
    9   -1656.3835422666      2.09E-06
   10   -1656.3835425125      1.00E-06
   11   -1656.3835426524      6.35E-07
   12   -1656.3835427057      2.27E-07
   13   -1656.3835427216      1.33E-07
   14   -1656.3835427238      4.63E-08
   15   -1656.3835427244      2.88E-08
   16   -1656.3835427242      1.10E-08
   17   -1656.3835427238      4.49E-09 Convergence criterion met
 ---------------------------------------
 <S^2> = 0.7664
 SCF time:  CPU 24.14 s  wall 22.47 s
 SCF   energy in the final basis set = -1656.3835427238
 Total energy in the final basis set = -1656.3835427238
 
 --------------------------------------------------------------
 
                    Orbital Energies (a.u.)
 --------------------------------------------------------------
 
 Alpha MOs
 -- Occupied --
-89.088 -89.087 -89.042 -10.420 -10.416 -10.415 -10.402 -10.376
-10.375 -10.364 -10.362 -10.358 -10.339 -10.325 -10.312  -8.147
 -8.146  -8.101  -6.111  -6.110  -6.107  -6.106  -6.104  -6.103
 -6.065  -6.061  -6.058  -1.079  -1.056  -1.013  -0.951  -0.921
 -0.907  -0.894  -0.864  -0.841  -0.773  -0.749  -0.716  -0.701
 -0.689  -0.684  -0.669  -0.641  -0.610  -0.583  -0.582  -0.579
 -0.567  -0.552  -0.550  -0.536  -0.524  -0.520  -0.517  -0.509
 -0.499  -0.471  -0.451  -0.430  -0.422  -0.382  -0.377  -0.362
 -- Virtual --
 -0.232  -0.165  -0.158  -0.146  -0.129  -0.119  -0.118  -0.107
 -0.104  -0.100  -0.093  -0.089  -0.085  -0.078  -0.075  -0.071
 -0.066  -0.063  -0.058  -0.055  -0.044  -0.042  -0.035  -0.033
 -0.031  -0.018  -0.017  -0.012  -0.008  -0.000   0.003   0.005
  0.011   0.012   0.014   0.018   0.018   0.021   0.024   0.028
  0.031   0.038   0.040   0.042   0.044   0.045   0.051   0.055
  0.055   0.059   0.061   0.061   0.066   0.073   0.076   0.080
  0.083   0.090   0.096   0.097   0.102   0.110   0.110   0.112
  0.118   0.121   0.125   0.128   0.135   0.142   0.146   0.151
  0.155   0.164   0.166   0.172   0.174   0.181   0.183   0.191
  0.203   0.208   0.216   0.224   0.228   0.232   0.245   0.250
  0.252   0.258   0.265   0.287   0.310   0.326   0.333   0.359
  0.367   0.370   0.383   0.399   0.423   0.427   0.448   0.466
  0.476   0.482   0.487   0.493   0.499   0.505   0.513   0.519
  0.520   0.548   0.553   0.565   0.567   0.569   0.580   0.586
  0.596   0.604   0.612   0.624   0.636   0.640   0.656   0.659
  0.663   0.676   0.677   0.689   0.695   0.710   0.732   0.775
  0.784   0.787   0.795   0.809   0.813   0.821   0.828   0.835
  0.838   0.849   0.855   0.858   0.866   0.871   0.888   0.891
  0.900   0.914   0.923   0.927   0.952   0.953   0.958   0.989
  0.993   1.016   1.023   1.035   1.063   1.076   1.095   1.107
  1.123   1.146   1.163   1.172   1.182   1.188   1.194   1.208
  1.232   1.242   1.249   1.274   1.278   1.307   1.322   1.335
  1.373   1.405   1.421   1.471   1.489   1.536   1.586   1.658
  1.667   1.683   1.704   1.728   1.744   1.757   1.776   1.790
  1.802   1.811   1.820   1.847   1.864   1.880   1.896   1.920
  1.926   1.953   1.995   2.015   2.020   2.039   2.054   2.070
  2.082   2.096   2.126   2.150   2.161   2.191   2.211   2.253
  2.267   2.293   2.296   2.303   2.330   2.346   2.351   2.364
  2.371   2.385   2.400   2.417   2.432   2.468   2.474   2.488
  2.511   2.544   2.552   2.576   2.619   2.678   2.680   2.732
  2.733   2.751   2.775   2.785   2.991   3.047   3.066   3.129
  3.174   3.186   3.260   3.309   3.529   3.584   3.634   3.810
  3.829   3.857   4.081   4.142   4.156   4.170   4.184   4.219
  4.240   4.337   4.398   4.497   4.546   4.581
 
 Beta MOs
 -- Occupied --
-89.089 -89.087 -89.042 -10.418 -10.414 -10.411 -10.398 -10.374
-10.373 -10.364 -10.362 -10.358 -10.338 -10.324 -10.312  -8.147
 -8.146  -8.101  -6.112  -6.110  -6.108  -6.106  -6.104  -6.103
 -6.065  -6.061  -6.058  -1.073  -1.051  -1.011  -0.944  -0.919
 -0.906  -0.887  -0.862  -0.837  -0.769  -0.746  -0.713  -0.698
 -0.688  -0.682  -0.667  -0.640  -0.608  -0.580  -0.577  -0.570
 -0.565  -0.548  -0.538  -0.534  -0.523  -0.519  -0.510  -0.508
 -0.497  -0.470  -0.428  -0.426  -0.419  -0.377  -0.361
 -- Virtual --
 -0.317  -0.212  -0.158  -0.149  -0.145  -0.127  -0.117  -0.108
 -0.104  -0.098  -0.094  -0.092  -0.089  -0.085  -0.077  -0.074
 -0.070  -0.065  -0.062  -0.057  -0.054  -0.043  -0.041  -0.035
 -0.032  -0.030  -0.017  -0.016  -0.011  -0.008  -0.000   0.003
  0.006   0.012   0.012   0.014   0.018   0.020   0.022   0.025
  0.029   0.031   0.039   0.040   0.043   0.045   0.045   0.051
  0.055   0.057   0.060   0.062   0.062   0.067   0.074   0.078
  0.081   0.084   0.092   0.097   0.098   0.103   0.110   0.111
  0.113   0.119   0.123   0.127   0.129   0.137   0.142   0.148
  0.152   0.155   0.164   0.167   0.173   0.175   0.182   0.185
  0.192   0.204   0.209   0.217   0.226   0.229   0.234   0.246
  0.251   0.254   0.259   0.266   0.287   0.311   0.327   0.335
  0.360   0.368   0.372   0.383   0.400   0.424   0.428   0.449
  0.468   0.477   0.487   0.489   0.495   0.502   0.513   0.516
  0.520   0.525   0.550   0.554   0.568   0.569   0.572   0.580
  0.591   0.603   0.605   0.613   0.624   0.637   0.642   0.659
  0.661   0.666   0.678   0.681   0.692   0.697   0.711   0.732
  0.776   0.786   0.791   0.798   0.811   0.815   0.825   0.831
  0.838   0.839   0.850   0.857   0.860   0.866   0.872   0.889
  0.893   0.900   0.915   0.925   0.929   0.953   0.954   0.959
  0.990   0.994   1.018   1.025   1.038   1.065   1.080   1.098
  1.109   1.131   1.149   1.166   1.175   1.186   1.191   1.201
  1.211   1.233   1.243   1.250   1.281   1.283   1.312   1.325
  1.338   1.374   1.409   1.424   1.476   1.497   1.547   1.587
  1.660   1.674   1.689   1.708   1.732   1.748   1.759   1.777
  1.791   1.806   1.816   1.824   1.850   1.868   1.884   1.898
  1.923   1.935   1.956   2.002   2.021   2.028   2.044   2.057
  2.076   2.084   2.104   2.130   2.154   2.166   2.194   2.215
  2.256   2.271   2.297   2.301   2.306   2.332   2.349   2.352
  2.370   2.372   2.388   2.400   2.420   2.434   2.470   2.477
  2.489   2.514   2.547   2.555   2.577   2.620   2.682   2.684
  2.734   2.735   2.753   2.777   2.788   2.992   3.049   3.066
  3.130   3.174   3.186   3.262   3.309   3.530   3.586   3.634
  3.810   3.829   3.857   4.086   4.148   4.159   4.174   4.185
  4.221   4.246   4.340   4.402   4.501   4.550   4.582
 --------------------------------------------------------------
 
          Ground-State Mulliken Net Atomic Charges

     Atom                 Charge (a.u.)    Spin (a.u.)
  --------------------------------------------------------
      1 H                     0.252737      -0.015188
      2 H                     0.169337       0.001414
      3 C                     0.077878       0.300757
      4 C                    -0.345047      -0.043545
      5 S                    -0.014032      -0.048434
      6 C                     0.453999       0.158380
      7 H                     0.148366      -0.010393
      8 C                    -0.063065       0.104374
      9 H                     0.122466      -0.009850
     10 C                    -0.024791       0.152649
     11 C                    -0.250076       0.149866
     12 S                     0.171795      -0.060546
     13 C                     0.075123      -0.038091
     14 H                     0.177609       0.001083
     15 C                    -0.302061       0.310300
     16 C                    -0.133015       0.020497
     17 H                     0.147674      -0.001969
     18 C                     0.133638       0.001230
     19 S                     0.146735       0.002495
     20 C                    -0.296168       0.000806
     21 C                    -0.021035       0.022693
     22 H                     0.148032       0.000930
     23 H                     0.223901       0.000542
  --------------------------------------------------------
  Sum of atomic charges =     1.000000
  Sum of spin   charges =     1.000000

 -----------------------------------------------------------------
                    Cartesian Multipole Moments
 -----------------------------------------------------------------
    Charge (ESU x 10^10)
                 4.8032
    Dipole Moment (Debye)
         X      24.0713      Y      -2.3860      Z      -0.3094
       Tot      24.1912
    Quadrupole Moments (Debye-Ang)
        XX      94.8390     XY      -8.7459     YY     -93.3050
        XZ       1.2255     YZ       1.5919     ZZ    -103.9490
    Octopole Moments (Debye-Ang^2)
       XXX      20.4445    XXY     -40.8712    XYY    -606.2285
       YYY     128.7108    XXZ      29.9445    XYZ      -8.2423
       YYZ      18.2140    XZZ    -611.9432    YZZ      43.3390
       ZZZ      69.1829
    Hexadecapole Moments (Debye-Ang^3)
      XXXX   -9843.3445   XXXY    -264.6986   XXYY   -5114.1017
      XYYY     846.3486   YYYY    -683.4198   XXXZ     363.2477
      XXYZ    -165.3294   XYYZ     156.5153   YYYZ     -16.9169
      XXZZ   -4812.3666   XYZZ     233.5513   YYZZ    -191.6903
      XZZZ     449.0989   YZZZ     -54.2775   ZZZZ    -387.3331
 -----------------------------------------------------------------
 Calculating analytic gradient of the SCF energy
 Gradient of SCF Energy
            1           2           3           4           5           6
    1   0.0031168   0.0014212  -0.0020480  -0.0055588   0.0008163   0.0124313
    2  -0.0012273   0.0017125  -0.0022173   0.0056467  -0.0148786   0.0062463
    3  -0.0006566   0.0003482  -0.0007367   0.0022494  -0.0022566   0.0024973
            7           8           9          10          11          12
    1  -0.0010477  -0.0304688   0.0037291   0.0354411  -0.0249797  -0.0016219
    2   0.0026385   0.0348945  -0.0027274  -0.0415774  -0.0068722   0.0263904
    3  -0.0002939   0.0052287  -0.0007324  -0.0084800  -0.0032200   0.0032475
           13          14          15          16          17          18
    1   0.0190971  -0.0014538  -0.0047190  -0.0005504   0.0008712   0.0016284
    2  -0.0049127  -0.0016524  -0.0190693   0.0205677   0.0018128   0.0015889
    3   0.0018268   0.0007141   0.0086045  -0.0175339  -0.0018984   0.0027577
           19          20          21          22          23
    1   0.0028295  -0.0052904   0.0002566  -0.0014421  -0.0024580
    2  -0.0069273  -0.0022251   0.0022492   0.0002693   0.0002701
    3   0.0116305   0.0025684  -0.0057808  -0.0020630   0.0019790
 Max gradient component =       4.158E-02
 RMS gradient           =       1.146E-02
 Gradient time:  CPU 4.27 s  wall 4.19 s
 Geometry Optimization Parameters
   NAtoms,    NIC,     NZ,  NCons,   NDum,   NFix, NCnnct, MaxDiis
       23     166       0       1       0       0       0       0

 Cartesian Hessian Update
 Hessian Updated using BFGS Update


** CONSTRAINED OPTIMIZATION IN DELOCALIZED INTERNAL COORDINATES **
   Searching for a Minimum

   Optimization Cycle:   2

                       Coordinates (Angstroms)
     ATOM                X               Y               Z
      1  H        -0.1078169771   -0.2656821872   -0.0830947473
      2  H         0.7928237944   -2.6835827969   -0.6350967740
      3  C         0.9247742577   -0.5643065690   -0.1707562880
      4  C         1.4210151361   -1.8228795790   -0.4591006206
      5  S         2.1643425435    0.5999031349    0.0595111333
      6  C         2.8207310871   -1.8352810836   -0.5024639282
      7  H         3.4105806940   -2.7109260890   -0.7323477694
      8  C         3.4011098877   -0.5832287018   -0.2449208303
      9  H         4.6422309413    1.7481591249    0.2003589389
     10  C         4.8310881532   -0.4070498408   -0.2018282959
     11  C         5.2943819850    0.9022390279    0.0604381911
     12  S         6.1637410032   -1.4845265808   -0.3660396239
     13  C         6.6875407092    0.9977423387    0.1302562652
     14  H         7.2354139497    1.9039822487    0.3428309489
     15  C         7.3212483796   -0.2265855284   -0.0726548759
     16  C         8.7657124980   -0.3680541021   -0.0800264983
     17  H         8.9817478999   -1.0726077746    1.9604903967
     18  C         9.4646237093   -0.8361617342    1.0230765156
     19  S         9.8410086485   -0.0670436508   -1.4017415429
     20  C        10.8551282083   -0.9297802434    0.7968663698
     21  C        11.2046307418   -0.5421708279   -0.4749702375
     22  H        11.5722987721   -1.2615433089    1.5329033880
     23  H        12.1885239777   -0.5090549668   -0.9138918952
   Point Group: c1    Number of degrees of freedom:    63


   Energy is  -1656.383542724

              Constraints and their Current Values
                                        Value     Constraint
   Dihedral:       13  15  16  18      100.000      100.000
 Hessian Updated using BFGS Update

 61 Hessian modes will be used to form the next step
  Hessian Eigenvalues:
     0.044706    0.045000    0.045000    0.045000    0.045000    0.045001
     0.045001    0.045001    0.045002    0.045003    0.045003    0.045005
     0.045009    0.045011    0.045012    0.045025    0.045048    0.045057
     0.045063    0.159292    0.159945    0.159945    0.159975    0.159994
     0.160000    0.160278    0.190818    0.221307    0.221925    0.230164
     0.238019    0.238575    0.246436    0.249669    0.249672    0.282149
     0.324674    0.326638    0.327153    0.338376    0.340131    0.340361
     0.365178    0.365513    0.365519    0.366519    0.366889    0.367321
     0.369908    0.370100    0.397893    0.413631    0.434450    0.435420
     0.437233    0.462750    0.463152    0.471009    0.494582    0.495505
     0.577271

 Minimum Search - Taking Simple RFO Step
 Searching for Lamda that Minimizes Along All modes
 Value Taken    Lamda =  -0.02240102
 Calculated Step too Large.  Step scaled by  0.888566
 Step Taken.  Stepsize is  0.300000

                             Maximum     Tolerance    Cnvgd?
         Gradient           0.031118      0.000300      NO
         Displacement       0.122211      0.001200      NO
         Energy change     -0.031158      0.000001      NO


 New Cartesian Coordinates Obtained by Inverse Iteration

 Displacement from previous Coordinates is:  1.156126
 ----------------------------------------------------------------
             Standard Nuclear Orientation (Angstroms)
    I     Atom           X                Y                Z
 ----------------------------------------------------------------
    1      H      -0.0825543694    -0.3845582212    -0.1548997122
    2      H       0.9176732983    -2.7861086930    -0.6463691440
    3      C       0.9675039235    -0.6452182822    -0.2170136011
    4      C       1.5157105734    -1.8993860584    -0.4745138921
    5      S       2.1470075509     0.5854761895     0.0162563410
    6      C       2.9109495281    -1.8666176947    -0.4860695168
    7      H       3.5389399392    -2.7290733665    -0.6820499772
    8      C       3.4356370097    -0.5747064856    -0.2356383097
    9      H       4.6186176538     1.9256652595     0.2156952167
   10      C       4.8040138182    -0.2466364089    -0.1549596968
   11      C       5.2788032858     1.0732307944     0.0894131802
   12      S       6.1205390125    -1.3758372445    -0.3050882899
   13      C       6.6624465364     1.1418314010     0.1509843157
   14      H       7.2291505908     2.0438544281     0.3465069100
   15      C       7.2873435258    -0.1074009232    -0.0341025870
   16      C       8.7231832920    -0.3670946985    -0.0271824742
   17      H       8.9794589633    -1.1155964889     1.9994132394
   18      C       9.4376381199    -0.8827117699     1.0445552369
   19      S       9.7639204473    -0.0839912523    -1.3961663855
   20      C      10.8215502675    -1.0283438543     0.7630012267
   21      C      11.1384967527    -0.6435278157    -0.5175157099
   22      H      11.5521920714    -1.4005287762     1.4713470277
   23      H      12.1086582089    -0.6511597286    -0.9978051778
 ----------------------------------------------------------------
 Nuclear Repulsion Energy =  1175.7992006124 hartrees
 There are       64 alpha and       63 beta electrons
 Applying Cartesian multipole field
    Component          Value
    ---------          -----
     (2,0,0)        1.00000E-12
     (0,2,0)        2.00000E-11
     (0,0,2)       -3.00000E-11
 Nucleus-field energy     =     0.0000000258 hartrees
 Requested basis set is 6-31++G(d,p)
 There are 110 shells and 345 basis functions
 A cutoff of  1.0D-12 yielded   4691 shell pairs
 There are     47802 function pairs

 Q-Chem warning in module /project/projectdirs/jcesr/qchem/qc44/cnl_qc441/compile/cori/qc_src/libqints/qchem/aobasis.C, line 68:

 Using reconstructed effective core potential

 Smallest overlap matrix eigenvalue = 7.46E-08
 Linear dependence detected in AO basis
 Number of orthogonalized atomic orbitals = 343
 Maximum deviation from orthogonality = 1.162E-10
 No. of orbitals has changed due to linear dependencies.  Generating new SCF guess.
 Guess from superposition of atomic densities
 Warning:  Energy on first SCF cycle will be non-variational
 An unrestricted hybrid HF-DFT SCF calculation will be
 performed using Pulay DIIS extrapolation
 Exchange:     0.2000 Hartree-Fock + 0.0800 Slater + 0.7200 B88
 Correlation:  0.1900 VWN1RPA + 0.8100 LYP
 Using SG-1 standard quadrature grid
 SCF converges when DIIS error is below 1.0E-08
 Geometry optimization detected.  Setting ReadMinima to 0
 Setting SaveMinima to 0
 Inaccurate integrated density:
   Number of electrons =   127
   Numerical integral  =   128.000080669869
   Relative error      =     0.7874650944 %
 ---------------------------------------
  Cycle       Energy         DIIS Error
 ---------------------------------------
    1   -1660.2984486533      3.68E-02
    2   -1656.1932477295      3.45E-03
    3   -1655.5696716966      6.35E-03
    4   -1656.3292790237      1.88E-03
    5   -1656.3911355030      4.30E-04
    6   -1656.3925212019      4.25E-04
    7   -1656.3955048845      1.41E-04
    8   -1656.3959107453      4.70E-05
    9   -1656.3959797654      1.52E-05
   10   -1656.3960012300      7.04E-06
   11   -1656.3960130702      5.24E-06
   12   -1656.3960201508      2.51E-06
   13   -1656.3960230119      1.78E-06
   14   -1656.3960236441      8.66E-07
   15   -1656.3960238269      4.61E-07
   16   -1656.3960238476      2.09E-07
   17   -1656.3960238518      8.47E-08
   18   -1656.3960238520      3.05E-08
   19   -1656.3960238520      1.40E-08
   20   -1656.3960238534      1.02E-08
   21   -1656.3960238526      3.02E-09 Convergence criterion met
 ---------------------------------------
 <S^2> = 0.7674
 SCF time:  CPU 29.24 s  wall 26.98 s
 SCF   energy in the final basis set = -1656.3960238526
 Total energy in the final basis set = -1656.3960238526
 
 --------------------------------------------------------------
 
                    Orbital Energies (a.u.)
 --------------------------------------------------------------
 
 Alpha MOs
 -- Occupied --
-89.086 -89.086 -89.041 -10.418 -10.418 -10.413 -10.403 -10.378
-10.378 -10.367 -10.365 -10.360 -10.340 -10.328 -10.314  -8.145
 -8.144  -8.100  -6.109  -6.109  -6.105  -6.105  -6.102  -6.101
 -6.065  -6.060  -6.057  -1.075  -1.051  -1.010  -0.949  -0.922
 -0.909  -0.887  -0.862  -0.838  -0.774  -0.749  -0.717  -0.700
 -0.690  -0.683  -0.663  -0.639  -0.609  -0.582  -0.579  -0.578
 -0.568  -0.551  -0.548  -0.535  -0.526  -0.520  -0.515  -0.509
 -0.498  -0.471  -0.451  -0.431  -0.423  -0.378  -0.376  -0.361
 -- Virtual --
 -0.237  -0.167  -0.158  -0.148  -0.135  -0.121  -0.118  -0.102
 -0.101  -0.098  -0.094  -0.090  -0.085  -0.077  -0.075  -0.071
 -0.066  -0.062  -0.058  -0.054  -0.045  -0.041  -0.035  -0.032
 -0.027  -0.018  -0.018  -0.011  -0.008  -0.002   0.000   0.006
  0.010   0.011   0.014   0.018   0.020   0.022   0.024   0.028
  0.030   0.038   0.040   0.042   0.043   0.044   0.051   0.054
  0.054   0.059   0.059   0.061   0.066   0.074   0.075   0.080
  0.083   0.091   0.094   0.098   0.101   0.107   0.108   0.111
  0.116   0.120   0.123   0.129   0.133   0.138   0.140   0.149
  0.153   0.153   0.164   0.171   0.174   0.180   0.181   0.188
  0.193   0.203   0.211   0.215   0.223   0.228   0.231   0.243
  0.251   0.254   0.261   0.265   0.288   0.314   0.329   0.336
  0.361   0.370   0.376   0.383   0.410   0.423   0.432   0.448
  0.457   0.474   0.483   0.486   0.496   0.499   0.505   0.514
  0.517   0.524   0.551   0.556   0.565   0.567   0.571   0.581
  0.585   0.597   0.607   0.610   0.624   0.634   0.643   0.654
  0.665   0.673   0.680   0.681   0.693   0.695   0.714   0.737
  0.774   0.777   0.785   0.799   0.813   0.817   0.817   0.821
  0.836   0.843   0.848   0.854   0.858   0.865   0.876   0.888
  0.897   0.908   0.913   0.915   0.927   0.949   0.952   0.954
  0.989   1.002   1.010   1.027   1.038   1.059   1.090   1.096
  1.109   1.116   1.140   1.156   1.167   1.180   1.189   1.195
  1.203   1.232   1.247   1.269   1.277   1.293   1.320   1.330
  1.348   1.381   1.410   1.422   1.475   1.499   1.536   1.582
  1.646   1.663   1.686   1.696   1.714   1.749   1.762   1.778
  1.782   1.785   1.801   1.816   1.848   1.865   1.885   1.894
  1.908   1.920   1.960   1.987   2.007   2.014   2.028   2.048
  2.070   2.080   2.093   2.120   2.137   2.152   2.186   2.209
  2.254   2.267   2.281   2.291   2.295   2.321   2.338   2.346
  2.362   2.366   2.386   2.391   2.407   2.434   2.455   2.469
  2.483   2.507   2.537   2.551   2.567   2.607   2.669   2.702
  2.726   2.743   2.752   2.771   2.781   2.977   3.046   3.053
  3.122   3.165   3.168   3.250   3.299   3.527   3.577   3.622
  3.812   3.826   3.855   4.084   4.147   4.157   4.160   4.189
  4.213   4.249   4.334   4.396   4.500   4.549   4.579
 
 Beta MOs
 -- Occupied --
-89.086 -89.086 -89.041 -10.416 -10.413 -10.412 -10.399 -10.376
-10.376 -10.367 -10.366 -10.360 -10.340 -10.327 -10.314  -8.145
 -8.145  -8.100  -6.109  -6.109  -6.105  -6.105  -6.102  -6.102
 -6.064  -6.060  -6.057  -1.070  -1.045  -1.008  -0.942  -0.920
 -0.907  -0.881  -0.861  -0.834  -0.770  -0.746  -0.714  -0.697
 -0.689  -0.681  -0.660  -0.638  -0.607  -0.577  -0.576  -0.569
 -0.566  -0.549  -0.536  -0.533  -0.525  -0.519  -0.509  -0.509
 -0.497  -0.470  -0.429  -0.427  -0.420  -0.377  -0.361
 -- Virtual --
 -0.312  -0.216  -0.158  -0.151  -0.146  -0.133  -0.118  -0.109
 -0.101  -0.098  -0.093  -0.090  -0.088  -0.084  -0.077  -0.074
 -0.071  -0.065  -0.062  -0.057  -0.053  -0.044  -0.040  -0.034
 -0.031  -0.026  -0.018  -0.016  -0.010  -0.007  -0.002   0.001
  0.007   0.010   0.012   0.015   0.019   0.021   0.022   0.025
  0.029   0.031   0.038   0.041   0.042   0.044   0.045   0.051
  0.055   0.056   0.060   0.061   0.062   0.066   0.075   0.076
  0.081   0.084   0.092   0.095   0.099   0.102   0.108   0.109
  0.112   0.117   0.122   0.124   0.130   0.134   0.139   0.142
  0.150   0.153   0.154   0.164   0.171   0.174   0.181   0.182
  0.189   0.193   0.204   0.212   0.216   0.225   0.229   0.233
  0.243   0.252   0.255   0.262   0.266   0.289   0.316   0.330
  0.337   0.362   0.371   0.378   0.384   0.412   0.424   0.433
  0.449   0.458   0.475   0.485   0.492   0.497   0.503   0.512
  0.517   0.523   0.525   0.552   0.558   0.568   0.569   0.573
  0.582   0.590   0.604   0.609   0.611   0.624   0.636   0.646
  0.655   0.668   0.676   0.682   0.685   0.696   0.697   0.715
  0.738   0.778   0.779   0.786   0.801   0.815   0.819   0.821
  0.824   0.837   0.844   0.849   0.855   0.859   0.866   0.878
  0.888   0.899   0.910   0.915   0.916   0.928   0.950   0.953
  0.955   0.989   1.002   1.013   1.029   1.041   1.061   1.093
  1.100   1.114   1.123   1.142   1.158   1.169   1.185   1.192
  1.203   1.206   1.233   1.248   1.272   1.279   1.300   1.326
  1.334   1.351   1.383   1.413   1.425   1.479   1.509   1.547
  1.583   1.650   1.670   1.689   1.700   1.719   1.751   1.764
  1.780   1.785   1.791   1.803   1.819   1.852   1.870   1.888
  1.897   1.916   1.924   1.963   1.994   2.013   2.020   2.034
  2.051   2.072   2.086   2.101   2.124   2.140   2.157   2.189
  2.212   2.256   2.271   2.286   2.293   2.300   2.323   2.340
  2.348   2.367   2.368   2.388   2.393   2.410   2.437   2.458
  2.472   2.484   2.510   2.539   2.555   2.568   2.608   2.673
  2.706   2.729   2.744   2.754   2.773   2.783   2.978   3.047
  3.054   3.123   3.165   3.168   3.251   3.300   3.528   3.579
  3.623   3.812   3.826   3.856   4.090   4.152   4.160   4.164
  4.191   4.215   4.255   4.338   4.400   4.504   4.552   4.580
 --------------------------------------------------------------
 
          Ground-State Mulliken Net Atomic Charges

     Atom                 Charge (a.u.)    Spin (a.u.)
  --------------------------------------------------------
      1 H                     0.252206      -0.015052
      2 H                     0.171123       0.001374
      3 C                     0.081595       0.306064
      4 C                    -0.342523      -0.045388
      5 S                    -0.055349      -0.047208
      6 C                     0.542321       0.161389
      7 H                     0.151173      -0.010600
      8 C                    -0.213629       0.093347
      9 H                     0.141096      -0.009593
     10 C                     0.113223       0.155472
     11 C                    -0.334926       0.120898
     12 S                     0.057010      -0.058919
     13 C                     0.288599      -0.012207
     14 H                     0.176572       0.000569
     15 C                    -0.350108       0.305780
     16 C                    -0.230726       0.023481
     17 H                     0.151681      -0.002056
     18 C                     0.214558       0.003965
     19 S                     0.121124       0.000411
     20 C                    -0.306811      -0.001740
     21 C                    -0.001410       0.028720
     22 H                     0.149444       0.000999
     23 H                     0.223758       0.000293
  --------------------------------------------------------
  Sum of atomic charges =     1.000000
  Sum of spin   charges =     1.000000

 -----------------------------------------------------------------
                    Cartesian Multipole Moments
 -----------------------------------------------------------------
    Charge (ESU x 10^10)
                 4.8032
    Dipole Moment (Debye)
         X      24.1745      Y      -2.3198      Z      -0.2867
       Tot      24.2872
    Quadrupole Moments (Debye-Ang)
        XX      94.0157     XY      -8.7558     YY     -91.9197
        XZ       1.5457     YZ       1.5071     ZZ    -104.0671
    Octopole Moments (Debye-Ang^2)
       XXX       3.8799    XXY     -52.0571    XYY    -596.3408
       YYY     124.3452    XXZ      29.0736    XYZ      -8.5513
       YYZ      18.1979    XZZ    -610.2643    YZZ      41.4406
       ZZZ      67.0509
    Hexadecapole Moments (Debye-Ang^3)
      XXXX   -9945.5003   XXXY    -462.7585   XXYY   -5008.2411
      XYYY     835.8452   YYYY    -699.4923   XXXZ     312.4996
      XXYZ    -163.3287   XYYZ     155.5572   YYYZ     -12.9897
      XXZZ   -4760.6610   XYZZ     223.4479   YYZZ    -196.0095
      XZZZ     424.2053   YZZZ     -51.2509   ZZZZ    -383.7811
 -----------------------------------------------------------------
 Calculating analytic gradient of the SCF energy
 Gradient of SCF Energy
            1           2           3           4           5           6
    1  -0.0001023   0.0002192   0.0019670  -0.0008707   0.0038453   0.0027408
    2   0.0007086  -0.0002941  -0.0017003  -0.0009584  -0.0002755  -0.0021669
    3  -0.0001337  -0.0000205  -0.0002729   0.0002228   0.0007245   0.0004935
            7           8           9          10          11          12
    1   0.0002447  -0.0076999  -0.0007288   0.0113491  -0.0049076  -0.0035626
    2  -0.0002151   0.0166234   0.0011445  -0.0187540   0.0034233   0.0033371
    3  -0.0007690   0.0018834  -0.0002683  -0.0038503   0.0001201  -0.0013726
           13          14          15          16          17          18
    1   0.0010985  -0.0007235  -0.0047437   0.0022795  -0.0001294   0.0014687
    2   0.0016996   0.0000633  -0.0074600   0.0076918   0.0006863   0.0008230
    3   0.0029828   0.0008217   0.0032317  -0.0100255   0.0003709   0.0035301
           19          20          21          22          23
    1   0.0002881  -0.0012939  -0.0014217   0.0002983   0.0003851
    2  -0.0042207  -0.0009158   0.0003752  -0.0003214   0.0007059
    3   0.0027208   0.0017232  -0.0021735  -0.0001447   0.0002056
 Max gradient component =       1.875E-02
 RMS gradient           =       4.270E-03
 Gradient time:  CPU 4.28 s  wall 4.18 s
 Geometry Optimization Parameters
   NAtoms,    NIC,     NZ,  NCons,   NDum,   NFix, NCnnct, MaxDiis
       23     166       0       1       0       0       0       0

 Cartesian Hessian Update
 Hessian Updated using BFGS Update


** CONSTRAINED OPTIMIZATION IN DELOCALIZED INTERNAL COORDINATES **
   Searching for a Minimum

   Optimization Cycle:   3

                       Coordinates (Angstroms)
     ATOM                X               Y               Z
      1  H        -0.0825543694   -0.3845582212   -0.1548997122
      2  H         0.9176732983   -2.7861086930   -0.6463691440
      3  C         0.9675039235   -0.6452182822   -0.2170136011
      4  C         1.5157105734   -1.8993860584   -0.4745138921
      5  S         2.1470075509    0.5854761895    0.0162563410
      6  C         2.9109495281   -1.8666176947   -0.4860695168
      7  H         3.5389399392   -2.7290733665   -0.6820499772
      8  C         3.4356370097   -0.5747064856   -0.2356383097
      9  H         4.6186176538    1.9256652595    0.2156952167
     10  C         4.8040138182   -0.2466364089   -0.1549596968
     11  C         5.2788032858    1.0732307944    0.0894131802
     12  S         6.1205390125   -1.3758372445   -0.3050882899
     13  C         6.6624465364    1.1418314010    0.1509843157
     14  H         7.2291505908    2.0438544281    0.3465069100
     15  C         7.2873435258   -0.1074009232   -0.0341025870
     16  C         8.7231832920   -0.3670946985   -0.0271824742
     17  H         8.9794589633   -1.1155964889    1.9994132394
     18  C         9.4376381199   -0.8827117699    1.0445552369
     19  S         9.7639204473   -0.0839912523   -1.3961663855
     20  C        10.8215502675   -1.0283438543    0.7630012267
     21  C        11.1384967527   -0.6435278157   -0.5175157099
     22  H        11.5521920714   -1.4005287762    1.4713470277
     23  H        12.1086582089   -0.6511597286   -0.9978051778
   Point Group: c1    Number of degrees of freedom:    63


   Energy is  -1656.396023853

              Constraints and their Current Values
                                        Value     Constraint
   Dihedral:       13  15  16  18      100.000      100.000
 Hessian Updated using BFGS Update

 61 Hessian modes will be used to form the next step
  Hessian Eigenvalues:
     0.042326    0.045000    0.045000    0.045001    0.045001    0.045001
     0.045001    0.045002    0.045003    0.045003    0.045007    0.045010
     0.045012    0.045012    0.045026    0.045053    0.045058    0.045132
     0.154387    0.159945    0.159953    0.159976    0.159993    0.159997
     0.160050    0.160533    0.171575    0.221307    0.223307    0.230065
     0.238020    0.240441    0.249304    0.249671    0.260837    0.278121
     0.323527    0.326632    0.328310    0.337808    0.340129    0.341453
     0.365511    0.365516    0.365827    0.366889    0.367245    0.367889
     0.370099    0.370920    0.401831    0.423999    0.435224    0.435420
     0.443079    0.462930    0.464597    0.482138    0.494311    0.497057
     0.578858

 Minimum Search - Taking Simple RFO Step
 Searching for Lamda that Minimizes Along All modes
 Value Taken    Lamda =  -0.00420796
 Step Taken.  Stepsize is  0.217977

                             Maximum     Tolerance    Cnvgd?
         Gradient           0.010213      0.000300      NO
         Displacement       0.092169      0.001200      NO
         Energy change     -0.012481      0.000001      NO


 New Cartesian Coordinates Obtained by Inverse Iteration

 Displacement from previous Coordinates is:  0.506966
 ----------------------------------------------------------------
             Standard Nuclear Orientation (Angstroms)
    I     Atom           X                Y                Z
 ----------------------------------------------------------------
    1      H      -0.1055882029    -0.4398855045    -0.2091958983
    2      H       0.9498893650    -2.8242453935    -0.6313339501
    3      C       0.9509914589    -0.6782257441    -0.2481939891
    4      C       1.5319858542    -1.9252327749    -0.4687461493
    5      S       2.1102769610     0.5697190026    -0.0244126643
    6      C       2.9270537212    -1.8754283051    -0.4536823436
    7      H       3.5668708732    -2.7360695013    -0.6143499591
    8      C       3.4376083901    -0.5745896601    -0.2205707465
    9      H       4.6387722104     1.9961712234     0.2184068793
   10      C       4.7835028115    -0.1744973629    -0.1270259682
   11      C       5.2883989650     1.1363332245     0.0945080119
   12      S       6.1050336284    -1.3204538622    -0.2719158679
   13      C       6.6740038046     1.1893686512     0.1381142936
   14      H       7.2548976382     2.0869650900     0.3147779741
   15      C       7.2931610864    -0.0633239729    -0.0394905944
   16      C       8.7156885390    -0.3819579523    -0.0108592721
   17      H       8.9744183077    -1.1963252452     1.9863598066
   18      C       9.4293081508    -0.9305374667     1.0386000127
   19      S       9.7599843174    -0.0363320944    -1.3722007112
   20      C      10.8144041276    -1.0712174244     0.7470990562
   21      C      11.1330165983    -0.6465664046    -0.5179281430
   22      H      11.5422544790    -1.4715780363     1.4427550963
   23      H      12.1009469150    -0.6505301762    -1.0029166537
 ----------------------------------------------------------------
 Nuclear Repulsion Energy =  1174.5403034646 hartrees
 There are       64 alpha and       63 beta electrons
 Applying Cartesian multipole field
    Component          Value
    ---------          -----
     (2,0,0)        1.00000E-12
     (0,2,0)        2.00000E-11
     (0,0,2)       -3.00000E-11
 Nucleus-field energy     =     0.0000000261 hartrees
 Requested basis set is 6-31++G(d,p)
 There are 110 shells and 345 basis functions
 A cutoff of  1.0D-12 yielded   4687 shell pairs
 There are     47757 function pairs

 Q-Chem warning in module /project/projectdirs/jcesr/qchem/qc44/cnl_qc441/compile/cori/qc_src/libqints/qchem/aobasis.C, line 68:

 Using reconstructed effective core potential

 Smallest overlap matrix eigenvalue = 7.20E-08
 Linear dependence detected in AO basis
 Number of orthogonalized atomic orbitals = 343
 Maximum deviation from orthogonality = 3.064E-10
 Guess MOs from SCF MO coefficient file
 Reading MOs from coefficient file
 Reading MOs from coefficient file
 An unrestricted hybrid HF-DFT SCF calculation will be
 performed using Pulay DIIS extrapolation
 Exchange:     0.2000 Hartree-Fock + 0.0800 Slater + 0.7200 B88
 Correlation:  0.1900 VWN1RPA + 0.8100 LYP
 Using SG-1 standard quadrature grid
 SCF converges when DIIS error is below 1.0E-08
 Geometry optimization detected.  Setting ReadMinima to 0
 Setting SaveMinima to 0
 ---------------------------------------
  Cycle       Energy         DIIS Error
 ---------------------------------------
    1   -1656.3540766744      1.49E-03
    2   -1656.3972759809      2.54E-04
    3   -1656.3948120219      4.57E-04
    4   -1656.3984924856      7.46E-05
    5   -1656.3985757931      2.63E-05
    6   -1656.3985877345      1.28E-05
    7   -1656.3985914500      5.25E-06
    8   -1656.3985924595      2.14E-06
    9   -1656.3985929228      1.52E-06
   10   -1656.3985931527      6.23E-07
   11   -1656.3985932700      3.37E-07
   12   -1656.3985932860      1.36E-07
   13   -1656.3985932918      6.29E-08
   14   -1656.3985932934      3.10E-08
   15   -1656.3985932939      1.70E-08
   16   -1656.3985932948      7.91E-09 Convergence criterion met
 ---------------------------------------
 <S^2> = 0.7659
 SCF time:  CPU 22.56 s  wall 21.03 s
 SCF   energy in the final basis set = -1656.3985932948
 Total energy in the final basis set = -1656.3985932948
 
 --------------------------------------------------------------
 
                    Orbital Energies (a.u.)
 --------------------------------------------------------------
 
 Alpha MOs
 -- Occupied --
-89.083 -89.082 -89.043 -10.418 -10.417 -10.413 -10.401 -10.378
-10.377 -10.368 -10.364 -10.364 -10.344 -10.331 -10.317  -8.142
 -8.141  -8.101  -6.106  -6.105  -6.102  -6.101  -6.099  -6.098
 -6.066  -6.062  -6.058  -1.072  -1.048  -1.011  -0.948  -0.920
 -0.907  -0.886  -0.865  -0.840  -0.774  -0.749  -0.718  -0.698
 -0.689  -0.685  -0.662  -0.641  -0.610  -0.580  -0.579  -0.577
 -0.566  -0.552  -0.547  -0.536  -0.524  -0.521  -0.516  -0.504
 -0.499  -0.473  -0.451  -0.429  -0.421  -0.381  -0.376  -0.363
 -- Virtual --
 -0.236  -0.167  -0.159  -0.145  -0.136  -0.121  -0.117  -0.103
 -0.100  -0.095  -0.093  -0.090  -0.085  -0.078  -0.075  -0.072
 -0.067  -0.062  -0.058  -0.054  -0.046  -0.041  -0.035  -0.032
 -0.026  -0.018  -0.018  -0.011  -0.007  -0.001   0.001   0.005
  0.009   0.012   0.014   0.018   0.020   0.022   0.024   0.029
  0.030   0.038   0.040   0.042   0.043   0.045   0.050   0.053
  0.054   0.058   0.059   0.062   0.065   0.073   0.077   0.080
  0.083   0.090   0.092   0.098   0.100   0.105   0.108   0.111
  0.117   0.119   0.124   0.129   0.133   0.136   0.139   0.149
  0.151   0.153   0.163   0.173   0.173   0.179   0.181   0.187
  0.192   0.203   0.208   0.213   0.222   0.229   0.231   0.244
  0.252   0.257   0.260   0.264   0.287   0.314   0.332   0.336
  0.363   0.373   0.377   0.386   0.414   0.422   0.432   0.448
  0.453   0.470   0.484   0.489   0.495   0.499   0.506   0.512
  0.516   0.525   0.552   0.555   0.565   0.567   0.573   0.583
  0.585   0.597   0.604   0.611   0.622   0.634   0.642   0.654
  0.665   0.672   0.681   0.683   0.691   0.695   0.715   0.737
  0.771   0.777   0.785   0.797   0.812   0.816   0.817   0.821
  0.836   0.843   0.849   0.852   0.857   0.862   0.879   0.886
  0.897   0.906   0.913   0.915   0.928   0.948   0.953   0.955
  0.986   1.003   1.006   1.025   1.038   1.056   1.088   1.094
  1.109   1.112   1.136   1.148   1.169   1.181   1.187   1.195
  1.200   1.230   1.244   1.265   1.294   1.305   1.325   1.339
  1.356   1.383   1.411   1.419   1.477   1.506   1.541   1.576
  1.633   1.657   1.685   1.696   1.706   1.748   1.758   1.767
  1.779   1.782   1.799   1.815   1.850   1.871   1.883   1.895
  1.902   1.923   1.964   1.984   2.000   2.013   2.024   2.038
  2.066   2.081   2.089   2.117   2.131   2.152   2.191   2.211
  2.255   2.267   2.281   2.285   2.299   2.317   2.332   2.345
  2.365   2.370   2.383   2.392   2.405   2.435   2.453   2.469
  2.482   2.507   2.534   2.553   2.565   2.605   2.663   2.706
  2.724   2.750   2.756   2.781   2.792   2.979   3.047   3.052
  3.125   3.163   3.168   3.251   3.298   3.525   3.578   3.620
  3.815   3.825   3.853   4.084   4.147   4.153   4.160   4.192
  4.209   4.253   4.334   4.395   4.501   4.549   4.579
 
 Beta MOs
 -- Occupied --
-89.083 -89.082 -89.043 -10.416 -10.413 -10.412 -10.397 -10.376
-10.375 -10.368 -10.365 -10.364 -10.343 -10.331 -10.317  -8.142
 -8.141  -8.101  -6.106  -6.105  -6.102  -6.102  -6.099  -6.098
 -6.066  -6.062  -6.058  -1.067  -1.043  -1.009  -0.942  -0.918
 -0.905  -0.880  -0.863  -0.835  -0.770  -0.746  -0.714  -0.696
 -0.687  -0.683  -0.660  -0.639  -0.608  -0.578  -0.575  -0.567
 -0.564  -0.550  -0.536  -0.534  -0.523  -0.520  -0.509  -0.503
 -0.497  -0.472  -0.429  -0.425  -0.418  -0.379  -0.364
 -- Virtual --
 -0.312  -0.216  -0.159  -0.151  -0.144  -0.133  -0.117  -0.110
 -0.101  -0.098  -0.093  -0.089  -0.085  -0.083  -0.077  -0.074
 -0.071  -0.066  -0.062  -0.057  -0.053  -0.045  -0.041  -0.034
 -0.031  -0.025  -0.018  -0.016  -0.010  -0.007  -0.001   0.001
  0.006   0.010   0.012   0.015   0.019   0.021   0.022   0.025
  0.030   0.031   0.039   0.041   0.042   0.044   0.045   0.051
  0.054   0.055   0.060   0.061   0.063   0.066   0.075   0.078
  0.081   0.085   0.091   0.093   0.099   0.101   0.106   0.109
  0.112   0.118   0.121   0.125   0.130   0.134   0.138   0.139
  0.150   0.151   0.154   0.164   0.173   0.174   0.180   0.183
  0.188   0.193   0.204   0.210   0.215   0.224   0.230   0.233
  0.244   0.253   0.259   0.261   0.265   0.287   0.315   0.333
  0.337   0.364   0.374   0.379   0.387   0.415   0.423   0.433
  0.449   0.455   0.471   0.485   0.494   0.497   0.503   0.513
  0.515   0.523   0.526   0.554   0.557   0.568   0.570   0.574
  0.584   0.590   0.603   0.607   0.612   0.622   0.636   0.645
  0.656   0.667   0.677   0.683   0.686   0.693   0.697   0.717
  0.738   0.776   0.779   0.786   0.798   0.816   0.818   0.821
  0.823   0.837   0.845   0.850   0.853   0.858   0.864   0.881
  0.887   0.899   0.907   0.914   0.917   0.930   0.949   0.954
  0.956   0.987   1.004   1.009   1.027   1.042   1.058   1.091
  1.097   1.116   1.118   1.138   1.150   1.171   1.185   1.189
  1.202   1.206   1.232   1.245   1.267   1.296   1.312   1.331
  1.343   1.359   1.386   1.415   1.422   1.480   1.516   1.551
  1.578   1.638   1.663   1.688   1.698   1.712   1.751   1.759
  1.773   1.781   1.784   1.801   1.817   1.855   1.875   1.885
  1.899   1.909   1.927   1.966   1.991   2.005   2.020   2.032
  2.041   2.069   2.087   2.096   2.121   2.135   2.157   2.194
  2.214   2.256   2.270   2.285   2.290   2.304   2.319   2.335
  2.347   2.370   2.373   2.384   2.394   2.408   2.438   2.456
  2.471   2.484   2.509   2.537   2.557   2.566   2.606   2.666
  2.709   2.728   2.752   2.758   2.783   2.794   2.979   3.048
  3.053   3.126   3.163   3.168   3.253   3.298   3.526   3.579
  3.621   3.815   3.826   3.854   4.089   4.152   4.157   4.163
  4.195   4.211   4.258   4.337   4.399   4.504   4.552   4.581
 --------------------------------------------------------------
 
          Ground-State Mulliken Net Atomic Charges

     Atom                 Charge (a.u.)    Spin (a.u.)
  --------------------------------------------------------
      1 H                     0.252425      -0.014600
      2 H                     0.170665       0.001092
      3 C                     0.100362       0.296026
      4 C                    -0.354251      -0.040706
      5 S                    -0.066876      -0.041865
      6 C                     0.613176       0.152290
      7 H                     0.153927      -0.010032
      8 C                    -0.314603       0.092036
      9 H                     0.151016      -0.008560
     10 C                     0.067147       0.153721
     11 C                    -0.197690       0.113105
     12 S                    -0.029945      -0.056392
     13 C                     0.289533      -0.001462
     14 H                     0.177501      -0.000313
     15 C                    -0.345591       0.286482
     16 C                    -0.262258       0.031557
     17 H                     0.154559      -0.002305
     18 C                     0.257012       0.011778
     19 S                     0.110099      -0.003479
     20 C                    -0.314959      -0.004329
     21 C                     0.013753       0.045562
     22 H                     0.150449       0.001059
     23 H                     0.224548      -0.000665
  --------------------------------------------------------
  Sum of atomic charges =     1.000000
  Sum of spin   charges =     1.000000

 -----------------------------------------------------------------
                    Cartesian Multipole Moments
 -----------------------------------------------------------------
    Charge (ESU x 10^10)
                 4.8032
    Dipole Moment (Debye)
         X      24.6279      Y      -2.2889      Z      -0.2537
       Tot      24.7353
    Quadrupole Moments (Debye-Ang)
        XX     100.5010     XY      -8.6461     YY     -91.6226
        XZ       1.9220     YZ       1.0033     ZZ    -104.3082
    Octopole Moments (Debye-Ang^2)
       XXX      81.1952    XXY     -56.1154    XYY    -592.2654
       YYY     120.8521    XXZ      30.0295    XYZ     -11.8690
       YYZ      18.8402    XZZ    -610.6891    YZZ      40.2852
       ZZZ      66.1839
    Hexadecapole Moments (Debye-Ang^3)
      XXXX   -9071.2548   XXXY    -548.4056   XXYY   -4966.4024
      XYYY     807.3502   YYYY    -706.2082   XXXZ     296.0946
      XXYZ    -187.6992   XYYZ     157.5840   YYYZ      -7.2562
      XXZZ   -4758.9092   XYZZ     213.1434   YYZZ    -196.2477
      XZZZ     410.9968   YZZZ     -44.0396   ZZZZ    -374.8298
 -----------------------------------------------------------------
 Calculating analytic gradient of the SCF energy
 Gradient of SCF Energy
            1           2           3           4           5           6
    1  -0.0004506  -0.0003076  -0.0016712   0.0001101   0.0020002  -0.0006925
    2   0.0003780   0.0001520  -0.0009026  -0.0000127  -0.0013126  -0.0021747
    3  -0.0000946   0.0000738   0.0001199   0.0000377   0.0001460   0.0000594
            7           8           9          10          11          12
    1   0.0003402   0.0029108  -0.0008975  -0.0014030   0.0018356  -0.0027513
    2   0.0001701   0.0040034  -0.0000472  -0.0043198   0.0029733   0.0015152
    3  -0.0004785   0.0003699  -0.0005942  -0.0014928   0.0005530  -0.0017836
           13          14          15          16          17          18
    1  -0.0021795   0.0004671   0.0007477   0.0025454  -0.0001387  -0.0007119
    2  -0.0000785  -0.0003722   0.0009157  -0.0016721   0.0004350   0.0037931
    3   0.0042782   0.0005425  -0.0015600  -0.0011596   0.0002680   0.0014019
           19          20          21          22          23
    1  -0.0007777   0.0008319  -0.0003581   0.0002103   0.0003404
    2  -0.0027179   0.0002461  -0.0016009  -0.0001800   0.0008093
    3   0.0001549  -0.0011420   0.0003696  -0.0001087   0.0000394
 Max gradient component =       4.320E-03
 RMS gradient           =       1.517E-03
 Gradient time:  CPU 4.18 s  wall 4.19 s
 Geometry Optimization Parameters
   NAtoms,    NIC,     NZ,  NCons,   NDum,   NFix, NCnnct, MaxDiis
       23     166       0       1       0       0       0       0

 Cartesian Hessian Update
 Hessian Updated using BFGS Update


** CONSTRAINED OPTIMIZATION IN DELOCALIZED INTERNAL COORDINATES **
   Searching for a Minimum

   Optimization Cycle:   4

                       Coordinates (Angstroms)
     ATOM                X               Y               Z
      1  H        -0.1055882029   -0.4398855045   -0.2091958983
      2  H         0.9498893650   -2.8242453935   -0.6313339501
      3  C         0.9509914589   -0.6782257441   -0.2481939891
      4  C         1.5319858542   -1.9252327749   -0.4687461493
      5  S         2.1102769610    0.5697190026   -0.0244126643
      6  C         2.9270537212   -1.8754283051   -0.4536823436
      7  H         3.5668708732   -2.7360695013   -0.6143499591
      8  C         3.4376083901   -0.5745896601   -0.2205707465
      9  H         4.6387722104    1.9961712234    0.2184068793
     10  C         4.7835028115   -0.1744973629   -0.1270259682
     11  C         5.2883989650    1.1363332245    0.0945080119
     12  S         6.1050336284   -1.3204538622   -0.2719158679
     13  C         6.6740038046    1.1893686512    0.1381142936
     14  H         7.2548976382    2.0869650900    0.3147779741
     15  C         7.2931610864   -0.0633239729   -0.0394905944
     16  C         8.7156885390   -0.3819579523   -0.0108592721
     17  H         8.9744183077   -1.1963252452    1.9863598066
     18  C         9.4293081508   -0.9305374667    1.0386000127
     19  S         9.7599843174   -0.0363320944   -1.3722007112
     20  C        10.8144041276   -1.0712174244    0.7470990562
     21  C        11.1330165983   -0.6465664046   -0.5179281430
     22  H        11.5422544790   -1.4715780363    1.4427550963
     23  H        12.1009469150   -0.6505301762   -1.0029166537
   Point Group: c1    Number of degrees of freedom:    63


   Energy is  -1656.398593295

              Constraints and their Current Values
                                        Value     Constraint
   Dihedral:       13  15  16  18      100.000      100.000
 Hessian Updated using BFGS Update

 62 Hessian modes will be used to form the next step
  Hessian Eigenvalues:
     0.026909    0.045000    0.045000    0.045000    0.045001    0.045001
     0.045001    0.045002    0.045002    0.045003    0.045005    0.045009
     0.045011    0.045012    0.045022    0.045043    0.045056    0.045108
     0.045220    0.159098    0.159945    0.159967    0.159981    0.159997
     0.160030    0.160397    0.162478    0.195578    0.221312    0.223313
     0.229944    0.238020    0.241769    0.249671    0.251473    0.264234
     0.287127    0.322453    0.326723    0.327831    0.337947    0.340339
     0.341191    0.365510    0.365524    0.365822    0.366890    0.367241
     0.367901    0.370112    0.370784    0.402076    0.421025    0.435333
     0.436003    0.443014    0.463882    0.464133    0.480201    0.495478
     0.500905    0.585196

 Minimum Search - Taking Simple RFO Step
 Searching for Lamda that Minimizes Along All modes
 Value Taken    Lamda =  -0.00137171
 Step Taken.  Stepsize is  0.209153

                             Maximum     Tolerance    Cnvgd?
         Gradient           0.003236      0.000300      NO
         Displacement       0.102524      0.001200      NO
         Energy change     -0.002569      0.000001      NO


 New Cartesian Coordinates Obtained by Inverse Iteration

 Displacement from previous Coordinates is:  0.494863
 ----------------------------------------------------------------
             Standard Nuclear Orientation (Angstroms)
[...]
      2 H                     0.166195       0.001174
      3 C                     0.085745       0.258185
      4 C                    -0.346257      -0.037101
      5 S                    -0.054938      -0.031117
      6 C                     0.628962       0.140726
      7 H                     0.150738      -0.009384
      8 C                    -0.336392       0.065723
      9 H                     0.149652      -0.005831
     10 C                    -0.114344       0.156196
     11 C                    -0.032574       0.102813
     12 S                    -0.032205      -0.053222
     13 C                     0.145624       0.014737
     14 H                     0.178727      -0.002587
     15 C                    -0.221010       0.233681
     16 C                    -0.144735       0.037796
     17 H                     0.160354      -0.005274
     18 C                     0.173464       0.062166
     19 S                     0.165985      -0.017612
     20 C                    -0.339540      -0.015995
     21 C                    -0.010658       0.121938
     22 H                     0.153392       0.002110
     23 H                     0.227636      -0.005973
  --------------------------------------------------------
  Sum of atomic charges =     1.000000
  Sum of spin   charges =     1.000000

 -----------------------------------------------------------------
                    Cartesian Multipole Moments
 -----------------------------------------------------------------
    Charge (ESU x 10^10)
                 4.8032
    Dipole Moment (Debye)
         X      26.8834      Y      -2.1887      Z       0.0143
       Tot      26.9723
    Quadrupole Moments (Debye-Ang)
        XX     130.4432     XY      -7.6397     YY     -91.0450
        XZ       3.2039     YZ      -1.3602     ZZ    -106.0317
    Octopole Moments (Debye-Ang^2)
       XXX     426.0004    XXY     -33.5811    XYY    -584.2013
       YYY     109.1260    XXZ      54.9769    XYZ     -28.5331
       YYZ      24.1927    XZZ    -626.8948    YZZ      38.5440
       ZZZ      72.5617
    Hexadecapole Moments (Debye-Ang^3)
      XXXX   -5237.1918   XXXY    -218.2410   XXYY   -4896.5872
      XYYY     666.7320   YYYY    -729.8386   XXXZ     695.4234
      XXYZ    -337.3887   XYYZ     187.4924   YYYZ      10.7783
      XXZZ   -4930.9554   XYZZ     182.6716   YYZZ    -190.6565
      XZZZ     464.7573   YZZZ     -11.7861   ZZZZ    -333.2796
 -----------------------------------------------------------------
 Calculating analytic gradient of the SCF energy
 Gradient of SCF Energy
            1           2           3           4           5           6
    1   0.0000045  -0.0000016  -0.0000305   0.0000339   0.0000308  -0.0000303
    2   0.0000008  -0.0000037  -0.0000204   0.0000059  -0.0000102  -0.0000321
    3   0.0000116  -0.0000235  -0.0000086   0.0000067   0.0000220  -0.0000603
            7           8           9          10          11          12
    1   0.0000015  -0.0000262  -0.0000045   0.0000154   0.0000683  -0.0000519
    2   0.0000006   0.0000034  -0.0000135  -0.0000485   0.0000688   0.0000218
    3   0.0000035   0.0000409   0.0000195  -0.0000240  -0.0000125   0.0000272
           13          14          15          16          17          18
    1  -0.0015842   0.0000082   0.0036681  -0.0041144  -0.0000001   0.0020231
    2  -0.0026347  -0.0000004   0.0095618  -0.0160270  -0.0000094   0.0091223
    3   0.0100020   0.0000065  -0.0132995  -0.0013127  -0.0000130   0.0046123
           19          20          21          22          23
    1  -0.0000333   0.0000045   0.0000140   0.0000048  -0.0000002
    2   0.0000073   0.0000058  -0.0000015  -0.0000042   0.0000070
    3   0.0000191  -0.0000098   0.0000031  -0.0000099  -0.0000008
 Max gradient component =       1.603E-02
 RMS gradient           =       3.352E-03
 Gradient time:  CPU 4.21 s  wall 4.21 s
 Geometry Optimization Parameters
   NAtoms,    NIC,     NZ,  NCons,   NDum,   NFix, NCnnct, MaxDiis
       23     166       0       1       0       0       0       0

 Cartesian Hessian Update
 Hessian Updated using BFGS Update


** CONSTRAINED OPTIMIZATION IN DELOCALIZED INTERNAL COORDINATES **
   Searching for a Minimum

   Optimization Cycle:  12

                       Coordinates (Angstroms)
     ATOM                X               Y               Z
      1  H        -0.0883039333   -0.3604542248   -0.0944359598
      2  H         0.8987379396   -2.7902722498   -0.3848160213
      3  C         0.9604702105   -0.6245212925   -0.1501444893
      4  C         1.5029079299   -1.8950819219   -0.3026969138
      5  S         2.1523364053    0.6063942003   -0.0456271050
      6  C         2.9012671635   -1.8786310965   -0.3340156615
      7  H         3.5120131433   -2.7679293377   -0.4428604876
      8  C         3.4457292723   -0.5861113769   -0.2047020815
      9  H         4.7350107467    1.9591765566    0.1751661205
     10  C         4.8071467763   -0.2077488748   -0.1944431264
     11  C         5.3484851951    1.0881167686   -0.0256745984
     12  S         6.0988448127   -1.3792756198   -0.4360940501
     13  C         6.7331182271    1.1251431647   -0.0988880532
     14  H         7.3297730181    2.0194435518    0.0378846576
     15  C         7.3200529692   -0.1331113590   -0.3401576719
     16  C         8.7114886201   -0.5012732035   -0.2243869180
     17  H         8.7483118085   -1.6823067858    1.6064158178
     18  C         9.3166980716   -1.1714341259    0.8373326606
     19  S         9.9225177682    0.3035860373   -1.2113739031
     20  C        10.7266085248   -1.0889886953    0.8150899306
     21  C        11.1956091925   -0.3391065980   -0.2420172204
     22  H        11.3721956326   -1.5559599324    1.5490013795
     23  H        12.2258605053   -0.1580932745   -0.5207580851
   Point Group: c1    Number of degrees of freedom:    63


   Energy is  -1656.401804200

              Constraints and their Current Values
                                        Value     Constraint
   Dihedral:       13  15  16  18      100.000      100.000
 Hessian Updated using BFGS Update

 62 Hessian modes will be used to form the next step
  Hessian Eigenvalues:
     0.009884    0.011392    0.040709    0.045000    0.045001    0.045001
     0.045002    0.045002    0.045003    0.045005    0.045010    0.045012
     0.045017    0.045033    0.045040    0.045079    0.045165    0.045533
     0.046101    0.144504    0.159870    0.159952    0.159976    0.160004
     0.160133    0.160474    0.161177    0.176054    0.220530    0.221950
     0.225821    0.238437    0.242201    0.244347    0.250415    0.265487
     0.279881    0.297814    0.325456    0.326926    0.333840    0.340065
     0.341083    0.365517    0.365541    0.365830    0.366899    0.367311
     0.367991    0.370133    0.371101    0.398944    0.423419    0.434407
     0.435293    0.449276    0.463212    0.464045    0.480362    0.490419
     0.498292    0.570820

 Minimum Search - Taking Simple RFO Step
 Searching for Lamda that Minimizes Along All modes
 Value Taken    Lamda =   0.00000000
 Step Taken.  Stepsize is  0.004799

                             Maximum     Tolerance    Cnvgd?
         Gradient           0.000057      0.000300     YES
         Displacement       0.002987      0.001200      NO
         Energy change     -0.000000      0.000001     YES

 Final energy is   -1656.40180420009     


 ******************************
 **  OPTIMIZATION CONVERGED  **
 ******************************

                       Coordinates (Angstroms)
     ATOM                X               Y               Z
      1  H        -0.0883039333   -0.3604542248   -0.0944359598
      2  H         0.8987379396   -2.7902722498   -0.3848160213
      3  C         0.9604702105   -0.6245212925   -0.1501444893
      4  C         1.5029079299   -1.8950819219   -0.3026969138
      5  S         2.1523364053    0.6063942003   -0.0456271050
      6  C         2.9012671635   -1.8786310965   -0.3340156615
      7  H         3.5120131433   -2.7679293377   -0.4428604876
      8  C         3.4457292723   -0.5861113769   -0.2047020815
      9  H         4.7350107467    1.9591765566    0.1751661205
     10  C         4.8071467763   -0.2077488748   -0.1944431264
     11  C         5.3484851951    1.0881167686   -0.0256745984
     12  S         6.0988448127   -1.3792756198   -0.4360940501
     13  C         6.7331182271    1.1251431647   -0.0988880532
     14  H         7.3297730181    2.0194435518    0.0378846576
     15  C         7.3200529692   -0.1331113590   -0.3401576719
     16  C         8.7114886201   -0.5012732035   -0.2243869180
     17  H         8.7483118085   -1.6823067858    1.6064158178
     18  C         9.3166980716   -1.1714341259    0.8373326606
     19  S         9.9225177682    0.3035860373   -1.2113739031
     20  C        10.7266085248   -1.0889886953    0.8150899306
     21  C        11.1956091925   -0.3391065980   -0.2420172204
     22  H        11.3721956326   -1.5559599324    1.5490013795
     23  H        12.2258605053   -0.1580932745   -0.5207580851

Z-matrix Print:
$molecule
1 2
S 
C  1 1.747421
C  2 1.409222 1 110.797921
H  3 1.083733 2 121.944963 1 177.191831 0
C  3 1.387062 2 113.638750 1 -1.373603 0
H  5 1.084174 3 123.585820 2 178.628309 0
C  5 1.414496 3 113.590388 2 0.612656 0
C  7 1.413054 5 127.944269 3 -178.499649 0
C  8 1.408463 7 128.230426 5 -178.008046 0
H  9 1.084301 8 122.964703 7 0.172015 0
C  9 1.398807 8 113.277071 7 179.954742 0
H  11 1.083112 9 124.447701 8 -179.868504 0
C  11 1.389905 9 112.448417 8 0.004211 0
H  13 1.082941 11 127.337404 9 -179.879134 0
C  2 1.443966 1 119.736592 3 167.145079 0
C  15 1.393787 2 127.019670 1 -64.702260 0
H  16 1.084224 15 122.633588 2 13.849319 0
C  16 1.412494 15 113.164039 2 -164.946916 0
H  18 1.083269 16 123.989579 15 -179.220097 0
C  18 1.378318 16 112.549477 15 1.168386 0
H  20 1.082534 18 127.755409 16 -176.698239 0
S  13 1.716573 11 113.029986 9 0.093338 0
S  20 1.724375 18 112.501022 16 1.070500 0
$end

 
 --------------------------------------------------------------
 
                    Orbital Energies (a.u.)
 --------------------------------------------------------------
 
 Alpha MOs
 -- Occupied --
-89.078 -89.074 -89.052 -10.413 -10.413 -10.402 -10.390 -10.378
-10.371 -10.367 -10.367 -10.360 -10.355 -10.346 -10.330  -8.137
 -8.133  -8.111  -6.101  -6.097  -6.097  -6.093  -6.093  -6.090
 -6.076  -6.072  -6.068  -1.066  -1.043  -1.021  -0.945  -0.916
 -0.900  -0.885  -0.877  -0.842  -0.771  -0.748  -0.714  -0.698
 -0.691  -0.683  -0.667  -0.644  -0.608  -0.575  -0.573  -0.572
 -0.559  -0.555  -0.547  -0.538  -0.534  -0.520  -0.518  -0.506
 -0.498  -0.482  -0.448  -0.423  -0.414  -0.394  -0.386  -0.358
 -- Virtual --
 -0.229  -0.173  -0.157  -0.142  -0.132  -0.120  -0.114  -0.105
 -0.098  -0.095  -0.089  -0.087  -0.083  -0.082  -0.075  -0.074
 -0.070  -0.062  -0.057  -0.054  -0.050  -0.043  -0.036  -0.029
 -0.027  -0.020  -0.015  -0.011  -0.005  -0.001   0.001   0.005
  0.010   0.013   0.016   0.018   0.021   0.023   0.026   0.029
  0.033   0.036   0.040   0.043   0.043   0.047   0.049   0.053
  0.055   0.057   0.061   0.064   0.067   0.073   0.075   0.079
  0.085   0.088   0.093   0.097   0.103   0.107   0.110   0.113
  0.117   0.119   0.122   0.124   0.134   0.138   0.141   0.148
  0.152   0.159   0.162   0.169   0.175   0.178   0.186   0.187
  0.195   0.200   0.208   0.221   0.226   0.231   0.234   0.242
  0.250   0.257   0.258   0.266   0.275   0.319   0.328   0.346
  0.367   0.372   0.376   0.396   0.423   0.424   0.432   0.444
  0.460   0.464   0.482   0.498   0.499   0.501   0.508   0.512
  0.515   0.530   0.545   0.554   0.557   0.574   0.579   0.583
  0.594   0.595   0.604   0.615   0.616   0.638   0.641   0.652
  0.659   0.670   0.677   0.682   0.690   0.698   0.710   0.731
  0.764   0.770   0.788   0.802   0.806   0.811   0.819   0.823
  0.834   0.838   0.845   0.851   0.859   0.860   0.876   0.880
  0.893   0.910   0.911   0.917   0.927   0.947   0.956   0.960
  0.978   0.987   1.020   1.027   1.035   1.049   1.090   1.104
  1.108   1.114   1.129   1.143   1.173   1.187   1.190   1.198
  1.205   1.216   1.223   1.253   1.270   1.306   1.325   1.333
  1.370   1.390   1.404   1.442   1.470   1.515   1.536   1.552
  1.587   1.668   1.693   1.704   1.711   1.738   1.762   1.772
  1.781   1.782   1.798   1.817   1.857   1.873   1.878   1.900
  1.907   1.945   1.953   1.988   1.989   2.015   2.022   2.038
  2.059   2.069   2.088   2.098   2.129   2.157   2.193   2.221
  2.247   2.268   2.290   2.298   2.300   2.313   2.335   2.340
  2.366   2.373   2.385   2.389   2.407   2.437   2.455   2.468
  2.476   2.511   2.534   2.560   2.564   2.609   2.643   2.712
  2.717   2.742   2.763   2.786   2.792   2.986   3.038   3.059
  3.133   3.150   3.174   3.262   3.283   3.525   3.587   3.606
  3.823   3.830   3.848   4.093   4.146   4.157   4.168   4.182
  4.199   4.248   4.332   4.392   4.507   4.551   4.572
 
 Beta MOs
 -- Occupied --
-89.078 -89.074 -89.052 -10.410 -10.410 -10.401 -10.386 -10.377
-10.369 -10.366 -10.365 -10.359 -10.355 -10.345 -10.331  -8.137
 -8.133  -8.111  -6.101  -6.097  -6.097  -6.094  -6.094  -6.090
 -6.075  -6.072  -6.069  -1.062  -1.039  -1.018  -0.939  -0.913
 -0.898  -0.882  -0.875  -0.835  -0.767  -0.745  -0.711  -0.696
 -0.688  -0.682  -0.665  -0.642  -0.607  -0.572  -0.570  -0.563
 -0.557  -0.553  -0.540  -0.536  -0.532  -0.517  -0.510  -0.503
 -0.497  -0.482  -0.428  -0.421  -0.410  -0.390  -0.372
 -- Virtual --
 -0.305  -0.212  -0.165  -0.146  -0.141  -0.130  -0.116  -0.112
 -0.099  -0.096  -0.093  -0.087  -0.084  -0.081  -0.076  -0.074
 -0.072  -0.069  -0.062  -0.056  -0.053  -0.049  -0.043  -0.035
 -0.028  -0.025  -0.019  -0.014  -0.010  -0.004  -0.000   0.001
  0.006   0.011   0.014   0.017   0.020   0.021   0.024   0.027
  0.029   0.034   0.037   0.041   0.043   0.044   0.048   0.050
  0.054   0.055   0.058   0.062   0.065   0.068   0.073   0.077
  0.080   0.086   0.090   0.094   0.098   0.104   0.108   0.111
  0.113   0.118   0.120   0.123   0.125   0.135   0.140   0.142
  0.149   0.153   0.160   0.163   0.170   0.177   0.179   0.187
  0.188   0.196   0.202   0.210   0.223   0.228   0.232   0.235
  0.242   0.251   0.258   0.259   0.268   0.276   0.320   0.330
  0.347   0.368   0.374   0.376   0.396   0.423   0.425   0.434
  0.446   0.461   0.465   0.483   0.499   0.502   0.504   0.512
  0.515   0.522   0.533   0.548   0.556   0.560   0.577   0.581
  0.585   0.595   0.596   0.610   0.615   0.617   0.641   0.643
  0.654   0.662   0.672   0.680   0.684   0.692   0.701   0.712
  0.732   0.766   0.774   0.789   0.804   0.808   0.815   0.821
  0.826   0.835   0.840   0.846   0.852   0.860   0.861   0.877
  0.881   0.894   0.911   0.913   0.919   0.929   0.948   0.957
  0.961   0.978   0.989   1.022   1.030   1.038   1.052   1.093
  1.108   1.111   1.121   1.132   1.144   1.175   1.189   1.194
  1.202   1.213   1.218   1.226   1.255   1.273   1.311   1.330
  1.337   1.374   1.394   1.408   1.446   1.473   1.523   1.543
  1.562   1.593   1.672   1.696   1.705   1.716   1.742   1.764
  1.777   1.784   1.785   1.800   1.819   1.861   1.876   1.880
  1.906   1.910   1.950   1.956   1.993   1.995   2.019   2.029
  2.043   2.063   2.075   2.093   2.104   2.133   2.162   2.197
  2.223   2.249   2.271   2.293   2.302   2.304   2.317   2.337
  2.342   2.368   2.378   2.387   2.391   2.409   2.440   2.457
  2.471   2.479   2.513   2.536   2.563   2.567   2.611   2.647
  2.715   2.720   2.744   2.764   2.789   2.793   2.987   3.039
  3.060   3.133   3.150   3.175   3.264   3.284   3.526   3.589
  3.607   3.823   3.831   3.848   4.098   4.151   4.161   4.170
  4.184   4.202   4.253   4.335   4.396   4.510   4.554   4.575
 --------------------------------------------------------------
 
          Ground-State Mulliken Net Atomic Charges

     Atom                 Charge (a.u.)    Spin (a.u.)
  --------------------------------------------------------
      1 H                     0.246178      -0.013148
      2 H                     0.166195       0.001174
      3 C                     0.085745       0.258185
      4 C                    -0.346257      -0.037101
      5 S                    -0.054938      -0.031117
      6 C                     0.628962       0.140726
      7 H                     0.150738      -0.009384
      8 C                    -0.336392       0.065723
      9 H                     0.149652      -0.005831
     10 C                    -0.114344       0.156196
     11 C                    -0.032574       0.102813
     12 S                    -0.032205      -0.053222
     13 C                     0.145624       0.014737
     14 H                     0.178727      -0.002587
     15 C                    -0.221010       0.233681
     16 C                    -0.144735       0.037796
     17 H                     0.160354      -0.005274
     18 C                     0.173464       0.062166
     19 S                     0.165985      -0.017612
     20 C                    -0.339540      -0.015995
     21 C                    -0.010658       0.121938
     22 H                     0.153392       0.002110
     23 H                     0.227636      -0.005973
  --------------------------------------------------------
  Sum of atomic charges =     1.000000
  Sum of spin   charges =     1.000000

 -----------------------------------------------------------------
                    Cartesian Multipole Moments
 -----------------------------------------------------------------
    Charge (ESU x 10^10)
                 4.8032
    Dipole Moment (Debye)
         X      26.8834      Y      -2.1887      Z       0.0143
       Tot      26.9723
    Quadrupole Moments (Debye-Ang)
        XX     130.4432     XY      -7.6397     YY     -91.0450
        XZ       3.2039     YZ      -1.3602     ZZ    -106.0317
    Octopole Moments (Debye-Ang^2)
       XXX     426.0004    XXY     -33.5811    XYY    -584.2013
       YYY     109.1260    XXZ      54.9769    XYZ     -28.5331
       YYZ      24.1927    XZZ    -626.8948    YZZ      38.5440
       ZZZ      72.5617
    Hexadecapole Moments (Debye-Ang^3)
      XXXX   -5237.1918   XXXY    -218.2410   XXYY   -4896.5872
      XYYY     666.7320   YYYY    -729.8386   XXXZ     695.4234
      XXYZ    -337.3887   XYYZ     187.4924   YYYZ      10.7783
      XXZZ   -4930.9554   XYZZ     182.6716   YYZZ    -190.6565
      XZZZ     464.7573   YZZZ     -11.7861   ZZZZ    -333.2796
 -----------------------------------------------------------------
Archival summary:
1\1\nid00532\OPT\ProcedureUnspecified\BasisUnspecified\3128(1+,2)\bwood\TueMay3011:03:392017TueMay3011:03:392017\0\\#,OPT,ProcedureUnspecified,BasisUnspecified,\\1,2\S\C,1,1.74742\C,2,1.40922,1,110.798\H,3,1.08373,2,121.945,1,177.192,0\C,3,1.38706,2,113.639,1,-1.3736,0\H,5,1.08417,3,123.586,2,178.628,0\C,5,1.4145,3,113.59,2,0.612656,0\C,7,1.41305,5,127.944,3,-178.5,0\C,8,1.40846,7,128.23,5,-178.008,0\H,9,1.0843,8,122.965,7,0.172015,0\C,9,1.39881,8,113.277,7,179.955,0\H,11,1.08311,9,124.448,8,-179.869,0\C,11,1.3899,9,112.448,8,0.00421069,0\H,13,1.08294,11,127.337,9,-179.879,0\C,2,1.44397,1,119.737,3,167.145,0\C,15,1.39379,2,127.02,1,-64.7023,0\H,16,1.08422,15,122.634,2,13.8493,0\C,16,1.41249,15,113.164,2,-164.947,0\H,18,1.08327,16,123.99,15,-179.22,0\C,18,1.37832,16,112.549,15,1.16839,0\H,20,1.08253,18,127.755,16,-176.698,0\S,13,1.71657,11,113.03,9,0.0933378,0\S,20,1.72437,18,112.501,16,1.0705,0\\\@

 Total job time:  288.41s(wall), 306.06s(cpu) 
 Tue May 30 11:03:39 2017

        *************************************************************
        *                                                           *
        *  Thank you very much for using Q-Chem.  Have a nice day.  *
        *                                                           *
        *************************************************************


0 sent ACK to 0 
now end server 0 ... 
