srun -N 1 --ntasks-per-node 22 --cpus-per-task 2 --cpu_bind=cores --nodelist nid00524 /global/project/projectdirs/jcesr/qchem/qc44/cnl_qc441/dist/exe/qcprog.cori.haswell.exe .pt_nn_cation_-50.0.in.34074.qcin.1 /dev/shm/eg_qchem/qchem34074/
Process 1 of 22 is on nid00524 - thread support 0
Process 2 of 22 is on nid00524 - thread support 0
Process 3 of 22 is on nid00524 - thread support 0
Process 4 of 22 is on nid00524 - thread support 0
Process 5 of 22 is on nid00524 - thread support 0
Process 0 of 22 is on nid00524 - thread support 0
Process 6 of 22 is on nid00524 - thread support 0
Process 21 of 22 is on nid00524 - thread support 0
initial socket setup ...start
initial socket setup ...done 
now start server 0 ... 
nid00524 10.128.2
Q-Chem Developer Version! Running on 10.128.2.*
                  Welcome to Q-Chem
     A Quantum Leap Into The Future Of Chemistry


 Q-Chem 4.4, Q-Chem, Inc., Pleasanton, CA (2016)

 Y. Shao,  Z. Gan,  E. Epifanovsky,  A. T. B. Gilbert,  M. Wormit,  
 J. Kussmann,  A. W. Lange,  A. Behn,  J. Deng,  X. Feng,  D. Ghosh,  
 M. Goldey,  P. R. Horn,  L. D. Jacobson,  I. Kaliman,  F. Rob,  
 R. Z. Khaliullin,  T. Kus,  A. Landau,  J. Liu,  E. I. Proynov,  Y. M. Rhee,  
 R. M. Richard,  M. A. Rohrdanz,  R. P. Steele,  E. J. Sundstrom,  
 H. L. Woodcock III,  P. M. Zimmerman,  D. Zuev,  B. Albrecht,  E. Alguire,  
 B. Austin,  S. A. Baeppler,  G. J. O. Beran,  Y. A. Bernard,  
 E. J. Berquist,  K. Brandhorst,  K. B. Bravaya,  S. T. Brown,  D. Casanova,  
 C.-M. Chang,  Y. Chen,  S. H. Chien,  K. D. Closser,  M. P. Coons,  
 D. L. Crittenden,  S. Dasgupta,  M. Diedenhofen,  R. A. DiStasio Jr.,  
 H. Do,  A. D. Dutoi,  R. G. Edgar,  P.-T. Fang,  S. Fatehi,  Q. Feng,  
 L. Fusti-Molnar,  A. Ghysels,  A. Golubeva-Zadorozhnaya,  J. Gomes,  
 A. Gunina,  M. W. D. Hanson-Heine,  P. H. P. Harbach,  A. W. Hauser,  
 J. E. Herr,  E. G. Hohenstein,  Z. C. Holden,  K. Hui,  T.-C. Jagau,  H. Ji,  
 B. Kaduk,  K. Khistyaev,  Jaehoon Kim,  Jihan Kim,  R. A. King,  
 P. Klunzinger,  K. Koh,  D. Kosenkov,  T. Kowalczyk,  C. M. Krauter,  
 A. Kunitsa,  K. U. Lao,  A. Laurent,  K. V. Lawler,  J. Lee,  D. Lefrancois,  
 S. Lehtola,  S. V. Levchenko,  C. Y. Lin,  Y.-S. Lin,  F. Liu,  E. Livshits,  
 R. C. Lochan,  A. Luenser,  P. Manohar,  S. F. Manzer,  S.-P. Mao,  Y. Mao,  
 N. Mardirossian,  A. V. Marenich,  L. A. Martinez-Martinez,  S. A. Maurer,  
 N. J. Mayhall,  J.-M. Mewes,  A. F. Morrison,  K. Nanda,  T. S. Nguyen-Beck,  
 C. M. Oana,  R. Olivares-Amaya,  D. P. O'Neill,  J. A. Parkhill,  
 T. M. Perrine,  R. Peverati,  P. A. Pieniazek,  F. Plasser,  A. Prociuk,  
 D. R. Rehn,  E. Rosta,  N. J. Russ,  N. Sergueev,  S. M. Sharada,  
 S. Sharma,  D. W. Small,  A. Sodt,  T. Stauch,  T. Stein,  D. Stuck,  
 Y.-C. Su,  A. J. W. Thom,  T. Tsuchimochi,  L. Vogt,  O. Vydrov,  T. Wang,  
 M. A. Watson,  J. Wenzel,  A. White,  C. F. Williams,  V. Vanovschi,  
 K. Yao,  S. Yeganeh,  S. R. Yost,  Z.-Q. You,  I. Y. Zhang,  X. Zhang,  
 Y. Zhao,  B. R. Brooks,  G. K. L. Chan,  D. M. Chipman,  C. J. Cramer,  
 W. A. Goddard III,  M. S. Gordon,  W. J. Hehre,  A. Klamt,  
 H. F. Schaefer III,  M. W. Schmidt,  C. D. Sherrill,  D. G. Truhlar,  
 A. Warshel,  X. Xu,  A. Aspuru-Guzik,  R. Baer,  A. T. Bell,  N. A. Besley,  
 J.-D. Chai,  A. Dreuw,  B. D. Dunietz,  T. R. Furlani,  S. R. Gwaltney,  
 C.-P. Hsu,  Y. Jung,  J. Kong,  D. S. Lambrecht,  W. Liang,  C. Ochsenfeld,  
 V. A. Rassolov,  L. V. Slipchenko,  J. E. Subotnik,  T. Van Voorhis,  
 J. M. Herbert,  A. I. Krylov,  P. M. W. Gill,  M. Head-Gordon

 Contributors to earlier versions of Q-Chem not listed above: 
 R. D. Adamson,  J. Baker,  E. F. C. Byrd,  A. K. Chakraborty,  C.-L. Cheng,  
 H. Dachsel,  R. J. Doerksen,  G. Hawkins,  A. Heyden,  S. Hirata,  
 G. Kedziora,  F. J. Keil,  C. Kelley,  P. P. Korambath,  W. Kurlancheek,  
 A. M. Lee,  M. S. Lee,  D. Liotard,  I. Lotan,  P. E. Maslen,  N. Nair,  
 D. Neuhauser,  R. Olson,  B. Peters,  J. Ritchie,  N. E. Schultz,  
 N. Shenvi,  A. C. Simmonett,  K. S. Thanthiriwatte,  Q. Wu,  W. Zhang

 Please cite Q-Chem as follows:
 Y. Shao et al., Mol. Phys. 113, 184-215 (2015)
 DOI: 10.1080/00268976.2014.952696

 Q-Chem 4.4.2 for Intel X86 EM64T Linux

 Parts of Q-Chem use Armadillo 5.200.1 (Boston Tea Smuggler).
 http://arma.sourceforge.net/

 Q-Chem begins on Tue May 30 10:58:50 2017  

Host: nid00444
0

     Scratch files written to /dev/shm/eg_qchem/qchem34074.0//
 Parallel job on  22  processors

Checking the input file for inconsistencies... 	...done.

--------------------------------------------------------------
User input:
--------------------------------------------------------------
$molecule
 1  2
 H           0.00000000        0.00000000        0.00000000
 H           0.66366000       -2.46828000       -0.59127000
 C           0.99103000       -0.39106000       -0.11652000
 C           1.36812000       -1.67442000       -0.42485000
 S           2.34669000        0.62586000        0.08638000
 C           2.76167000       -1.82175000       -0.50822000
 H           3.26291000       -2.73877000       -0.76199000
 C           3.44671000       -0.65043000       -0.26057000
 H           4.55645000        1.43902671        0.15704385
 C           4.88382000       -0.65043000       -0.26057000
 C           5.26091000        0.64090194        0.01245390
 S           6.23948000       -1.67253113       -0.43550939
 C           6.65446000        0.79046248        0.09175311
 H           7.15570000        1.71409653        0.32028213
 C           7.33950000       -0.38720773       -0.12368600
 C           8.77661000       -0.38720773       -0.12368600
 H           8.96041000        1.22883749       -1.53824680
 C           9.46165000        0.53482027       -0.88735234
 S           9.87663000       -1.35602812        0.77669000
 C          10.85520000        0.44311635       -0.74506005
 C          11.23229000       -0.54991288        0.12440672
 H          11.55966000        1.06868105       -1.26137169
 H          12.22332000       -0.84201676        0.40932902
$end


$rem
         jobtype = opt
        exchange = b3lyp
           basis = 6-31++g**
  max_scf_cycles = 150
      mem_static = 281
       mem_total = 2818
      sym_ignore = true
        symmetry = false
          thresh = 12
$end


$opt
CONSTRAINT
tors 13 15 16 18 -50.0
ENDCONSTRAINT
$end

--------------------------------------------------------------
 ----------------------------------------------------------------
             Standard Nuclear Orientation (Angstroms)
    I     Atom           X                Y                Z
 ----------------------------------------------------------------
    1      H       0.0000000000     0.0000000000     0.0000000000
    2      H       0.6636600000    -2.4682800000    -0.5912700000
    3      C       0.9910300000    -0.3910600000    -0.1165200000
    4      C       1.3681200000    -1.6744200000    -0.4248500000
    5      S       2.3466900000     0.6258600000     0.0863800000
    6      C       2.7616700000    -1.8217500000    -0.5082200000
    7      H       3.2629100000    -2.7387700000    -0.7619900000
    8      C       3.4467100000    -0.6504300000    -0.2605700000
    9      H       4.5564500000     1.4390267100     0.1570438500
   10      C       4.8838200000    -0.6504300000    -0.2605700000
   11      C       5.2609100000     0.6409019400     0.0124539000
   12      S       6.2394800000    -1.6725311300    -0.4355093900
   13      C       6.6544600000     0.7904624800     0.0917531100
   14      H       7.1557000000     1.7140965300     0.3202821300
   15      C       7.3395000000    -0.3872077300    -0.1236860000
   16      C       8.7766100000    -0.3872077300    -0.1236860000
   17      H       8.9604100000     1.2288374900    -1.5382468000
   18      C       9.4616500000     0.5348202700    -0.8873523400
   19      S       9.8766300000    -1.3560281200     0.7766900000
   20      C      10.8552000000     0.4431163500    -0.7450600500
   21      C      11.2322900000    -0.5499128800     0.1244067200
   22      H      11.5596600000     1.0686810500    -1.2613716900
   23      H      12.2233200000    -0.8420167600     0.4093290200
 ----------------------------------------------------------------
 Nuclear Repulsion Energy =  1185.3192391010 hartrees
 There are       64 alpha and       63 beta electrons
 Requested basis set is 6-31++G(d,p)
 There are 110 shells and 345 basis functions

 Total QAlloc Memory Limit   2818 MB
 Mega-Array Size       275 MB
 MEM_STATIC part       281 MB
 A cutoff of  1.0D-12 yielded   4725 shell pairs
 There are     48167 function pairs

 Q-Chem warning in module /project/projectdirs/jcesr/qchem/qc44/cnl_qc441/compile/cori/qc_src/libqints/qchem/aobasis.C, line 68:

 Using reconstructed effective core potential

 
 -------------------------------------------------------
 OpenMP Integral Computing Module                       
 Release: version 1.0, May 2013, Q-Chem Inc. Pittsburgh 
 -------------------------------------------------------
 Integral Job Info:
 Integral job number is                      11
 Integral operator is                         1
 short-range coefficients                     0
 long-range coefficients              100000000
 Omega coefficients                           0
 if combine SR and LR in K                    0
 Integral screening is                        0
 Integral computing path is                   2
 max size of driver memory is            800000
 size of driver memory is                593474
 size of scratch memory is             15166112
 max col of scratch BK array               1296
 max len of scratch array in speh3          155
 max len of scratch index in speh4           18
 max int batch size is                      520
 min int batch size is                       52
 fixed nKL is                                52
 max L of basis functions is                  2
 order of int derivative is                   0
 number of shells is                        110
 number of basis is                         345
 number of cartesian basis is               345
 number of contracted shell pairs          4725
 number of primitive shell pairs          14785
 maxK2 (contraction) of shell pair           36
 max number of K2 of shell pair               1
 max number of CS2 of shell pair            507
 max number of PS2 of shell pair           3042
 mem total for path MDJ                  101288
 -------------------------------------------------------
 Smallest overlap matrix eigenvalue = 1.34E-07
 Linear dependence detected in AO basis
 Number of orthogonalized atomic orbitals = 342
 Maximum deviation from orthogonality = 8.870E-11

 Scale SEOQF with 1.000000e-02/1.000000e-01/1.000000e-01

 Standard Electronic Orientation quadrupole field applied
 Nucleus-field energy     =     0.0000000303 hartrees
 Guess from superposition of atomic densities
 Warning:  Energy on first SCF cycle will be non-variational
 An unrestricted hybrid HF-DFT SCF calculation will be
 performed using Pulay DIIS extrapolation
 Exchange:     0.2000 Hartree-Fock + 0.0800 Slater + 0.7200 B88
 Correlation:  0.1900 VWN1RPA + 0.8100 LYP
 Using SG-1 standard quadrature grid
 SCF converges when DIIS error is below 1.0E-08
 Inaccurate integrated density:
   Number of electrons =   127
   Numerical integral  =   127.999652576900
   Relative error      =     0.7871280133 %
 ---------------------------------------
  Cycle       Energy         DIIS Error
 ---------------------------------------
    1   -1660.7299957107      3.84E-02
    2   -1656.1594214685      3.52E-03
    3   -1655.8333087422      5.51E-03
    4   -1656.3527919802      8.04E-04
    5   -1656.3599495627      5.06E-04
    6   -1656.3636476840      1.95E-04
    7   -1656.3642572450      7.67E-05
    8   -1656.3643788886      1.91E-05
    9   -1656.3643964412      7.41E-06
   10   -1656.3644068294      3.19E-06
   11   -1656.3644142429      2.33E-06
   12   -1656.3644171648      9.98E-07
   13   -1656.3644180406      6.37E-07
   14   -1656.3644181287      3.08E-07
   15   -1656.3644181449      1.00E-07
   16   -1656.3644181472      5.48E-08
   17   -1656.3644181486      2.76E-08
   18   -1656.3644181490      2.08E-08
   19   -1656.3644181499      1.11E-08
   20   -1656.3644181493      6.54E-09 Convergence criterion met
 ---------------------------------------
 <S^2> = 0.7632
 SCF time:  CPU 27.47 s  wall 25.54 s
 SCF   energy in the final basis set = -1656.3644181493
 Total energy in the final basis set = -1656.3644181493
 
 --------------------------------------------------------------
 
                    Orbital Energies (a.u.)
 --------------------------------------------------------------
 
 Alpha MOs
 -- Occupied --
-89.086 -89.073 -89.056 -10.407 -10.405 -10.397 -10.384 -10.377
-10.361 -10.361 -10.356 -10.356 -10.348 -10.341 -10.330  -8.145
 -8.133  -8.115  -6.110  -6.106  -6.102  -6.097  -6.093  -6.090
 -6.080  -6.076  -6.073  -1.082  -1.054  -1.034  -0.957  -0.917
 -0.902  -0.895  -0.882  -0.848  -0.773  -0.750  -0.709  -0.705
 -0.692  -0.683  -0.676  -0.653  -0.609  -0.583  -0.582  -0.573
 -0.562  -0.553  -0.552  -0.539  -0.529  -0.525  -0.521  -0.509
 -0.496  -0.485  -0.452  -0.423  -0.411  -0.396  -0.392  -0.361
 -- Virtual --
 -0.219  -0.170  -0.147  -0.142  -0.121  -0.116  -0.108  -0.104
 -0.102  -0.095  -0.094  -0.091  -0.081  -0.080  -0.074  -0.073
 -0.068  -0.062  -0.059  -0.054  -0.050  -0.043  -0.037  -0.034
 -0.026  -0.021  -0.016  -0.014  -0.007  -0.002   0.004   0.007
  0.008   0.013   0.014   0.017   0.021   0.027   0.028   0.033
  0.035   0.039   0.041   0.043   0.044   0.049   0.052   0.054
  0.055   0.061   0.061   0.064   0.068   0.074   0.075   0.081
  0.086   0.095   0.099   0.102   0.107   0.109   0.113   0.118
  0.121   0.125   0.129   0.131   0.135   0.148   0.150   0.151
  0.163   0.168   0.168   0.172   0.174   0.178   0.188   0.192
  0.208   0.212   0.218   0.228   0.234   0.240   0.248   0.251
  0.256   0.264   0.275   0.288   0.309   0.328   0.343   0.353
  0.373   0.390   0.399   0.404   0.417   0.436   0.462   0.464
  0.485   0.491   0.497   0.501   0.506   0.508   0.514   0.520
  0.528   0.542   0.552   0.561   0.571   0.575   0.587   0.595
  0.599   0.602   0.612   0.615   0.623   0.642   0.651   0.658
  0.663   0.668   0.677   0.679   0.698   0.721   0.744   0.768
  0.791   0.798   0.805   0.811   0.820   0.826   0.832   0.842
  0.847   0.850   0.858   0.872   0.878   0.889   0.899   0.905
  0.906   0.916   0.920   0.943   0.956   0.968   0.974   0.978
  1.002   1.016   1.037   1.039   1.049   1.077   1.095   1.111
  1.134   1.151   1.151   1.180   1.186   1.200   1.212   1.214
  1.222   1.234   1.245   1.266   1.273   1.309   1.323   1.352
  1.381   1.403   1.451   1.483   1.505   1.554   1.565   1.617
  1.667   1.697   1.721   1.744   1.755   1.775   1.784   1.790
  1.790   1.838   1.842   1.845   1.880   1.902   1.912   1.941
  1.947   1.979   1.983   2.032   2.049   2.060   2.073   2.083
  2.092   2.122   2.143   2.147   2.177   2.193   2.230   2.252
  2.277   2.303   2.314   2.325   2.330   2.344   2.364   2.388
  2.390   2.396   2.421   2.443   2.450   2.465   2.476   2.518
  2.532   2.541   2.572   2.583   2.615   2.677   2.690   2.711
  2.756   2.782   2.803   2.819   3.027   3.060   3.086   3.157
  3.171   3.201   3.291   3.307   3.556   3.621   3.637   3.818
  3.844   3.853   4.100   4.144   4.168   4.183   4.195   4.214
  4.240   4.329   4.407   4.506   4.561   4.580
 
 Beta MOs
 -- Occupied --
-89.086 -89.073 -89.056 -10.403 -10.403 -10.396 -10.381 -10.376
-10.360 -10.359 -10.356 -10.354 -10.348 -10.340 -10.330  -8.145
 -8.133  -8.115  -6.110  -6.106  -6.102  -6.098  -6.094  -6.090
 -6.080  -6.076  -6.073  -1.077  -1.050  -1.031  -0.951  -0.915
 -0.898  -0.892  -0.880  -0.841  -0.770  -0.747  -0.706  -0.702
 -0.690  -0.680  -0.674  -0.652  -0.607  -0.581  -0.572  -0.571
 -0.560  -0.551  -0.545  -0.537  -0.526  -0.520  -0.516  -0.507
 -0.495  -0.484  -0.432  -0.420  -0.407  -0.393  -0.375
 -- Virtual --
 -0.309  -0.204  -0.161  -0.142  -0.135  -0.117  -0.115  -0.104
 -0.102  -0.096  -0.092  -0.090  -0.086  -0.080  -0.079  -0.074
 -0.071  -0.068  -0.061  -0.058  -0.053  -0.049  -0.042  -0.036
 -0.034  -0.025  -0.020  -0.015  -0.013  -0.006  -0.002   0.004
  0.008   0.008   0.013   0.015   0.017   0.022   0.028   0.029
  0.033   0.036   0.040   0.042   0.043   0.045   0.050   0.052
  0.054   0.055   0.061   0.062   0.065   0.069   0.075   0.076
  0.082   0.087   0.095   0.100   0.103   0.107   0.110   0.114
  0.118   0.122   0.126   0.130   0.131   0.136   0.148   0.151
  0.151   0.164   0.169   0.169   0.173   0.175   0.179   0.189
  0.194   0.209   0.213   0.219   0.229   0.236   0.241   0.248
  0.252   0.258   0.266   0.276   0.290   0.310   0.330   0.345
  0.354   0.373   0.391   0.401   0.405   0.418   0.437   0.463
  0.465   0.489   0.492   0.502   0.502   0.508   0.512   0.520
  0.523   0.532   0.544   0.555   0.562   0.573   0.578   0.589
  0.596   0.601   0.605   0.616   0.617   0.626   0.645   0.653
  0.660   0.666   0.670   0.679   0.684   0.701   0.724   0.745
  0.769   0.792   0.800   0.808   0.813   0.824   0.829   0.833
  0.843   0.848   0.852   0.859   0.873   0.880   0.891   0.901
  0.907   0.908   0.917   0.922   0.944   0.956   0.969   0.975
  0.979   1.003   1.017   1.039   1.042   1.053   1.080   1.098
  1.114   1.138   1.153   1.157   1.183   1.190   1.204   1.215
  1.219   1.226   1.236   1.246   1.269   1.278   1.312   1.327
  1.355   1.384   1.407   1.454   1.490   1.509   1.564   1.571
  1.624   1.669   1.700   1.724   1.749   1.757   1.777   1.785
  1.792   1.794   1.841   1.847   1.849   1.884   1.905   1.916
  1.945   1.950   1.983   1.990   2.039   2.058   2.066   2.079
  2.088   2.098   2.126   2.149   2.151   2.181   2.198   2.233
  2.253   2.283   2.306   2.317   2.327   2.336   2.345   2.366
  2.390   2.395   2.400   2.423   2.447   2.453   2.468   2.478
  2.520   2.535   2.543   2.576   2.584   2.617   2.680   2.694
  2.713   2.757   2.783   2.805   2.821   3.028   3.061   3.087
  3.157   3.171   3.202   3.293   3.308   3.557   3.622   3.638
  3.818   3.845   3.853   4.104   4.149   4.172   4.186   4.198
  4.216   4.245   4.332   4.411   4.509   4.563   4.582
 --------------------------------------------------------------
 
          Ground-State Mulliken Net Atomic Charges

     Atom                 Charge (a.u.)    Spin (a.u.)
  --------------------------------------------------------
      1 H                     0.251313      -0.012615
      2 H                     0.157787       0.001197
      3 C                     0.098221       0.255978
      4 C                    -0.391842      -0.039881
      5 S                    -0.101638      -0.035154
      6 C                     0.543893       0.147151
      7 H                     0.142833      -0.009026
      8 C                     0.124917       0.067237
      9 H                     0.072539      -0.007349
     10 C                    -0.176832       0.157238
     11 C                    -0.381516       0.097508
     12 S                     0.257401      -0.050266
     13 C                    -0.107217       0.004489
     14 H                     0.184491      -0.001196
     15 C                    -0.109780       0.214464
     16 C                    -0.189045       0.040303
     17 H                     0.174637      -0.005088
     18 C                     0.303748       0.077395
     19 S                     0.159551      -0.020486
     20 C                    -0.400809      -0.018423
     21 C                     0.001774       0.142248
     22 H                     0.156001       0.000840
     23 H                     0.229573      -0.006564
  --------------------------------------------------------
  Sum of atomic charges =     1.000000
  Sum of spin   charges =     1.000000

 -----------------------------------------------------------------
                    Cartesian Multipole Moments
 -----------------------------------------------------------------
    Charge (ESU x 10^10)
                 4.8032
    Dipole Moment (Debye)
         X      27.4524      Y      -1.6821      Z      -1.1094
       Tot      27.5263
    Quadrupole Moments (Debye-Ang)
        XX     139.2145     XY      -3.7220     YY     -92.2485
        XZ      -6.0516     YZ       0.1198     ZZ    -106.4573
    Octopole Moments (Debye-Ang^2)
       XXX     530.6789    XXY      24.1624    XYY    -584.5877
       YYY     138.7307    XXZ     -30.3440    XYZ     -22.6837
       YYZ       6.9677    XZZ    -640.9752    YZZ      54.2754
       ZZZ      40.4314
    Hexadecapole Moments (Debye-Ang^3)
      XXXX   -4090.6228   XXXY     523.9006   XXYY   -4858.4473
      XYYY     882.2855   YYYY    -801.7509   XXXZ    -166.3918
      XXYZ    -314.4813   XYYZ      39.6549   YYYZ       6.0314
      XXZZ   -5100.5454   XYZZ     326.5884   YYZZ    -185.3929
      XZZZ     164.3540   YZZZ     -19.8091   ZZZZ    -273.6279
 -----------------------------------------------------------------
 Calculating analytic gradient of the SCF energy
 Gradient of SCF Energy
            1           2           3           4           5           6
    1   0.0069776   0.0045316  -0.0049048  -0.0020363   0.0032591   0.0261956
    2  -0.0034270   0.0049121   0.0001095   0.0142031  -0.0276795   0.0127085
    3  -0.0012347   0.0009069  -0.0003372   0.0044384  -0.0058978   0.0042047
            7           8           9          10          11          12
    1  -0.0015388  -0.0232159  -0.0022454   0.0471026  -0.0625839   0.0027834
    2   0.0061460   0.0607972  -0.0059721  -0.0445189  -0.0326063   0.0416741
    3   0.0004887   0.0118630  -0.0017374  -0.0099920  -0.0080303   0.0044500
           13          14          15          16          17          18
    1   0.0266506  -0.0028302  -0.0120525   0.0096814   0.0015196  -0.0101648
    2  -0.0221959  -0.0044152  -0.0045316   0.0036532  -0.0042241  -0.0116104
    3   0.0021080  -0.0012767  -0.0073854   0.0064635   0.0037324   0.0022952
           19          20          21          22          23
    1   0.0021353  -0.0021888   0.0037420  -0.0039869  -0.0068306
    2   0.0235593  -0.0030561  -0.0011663  -0.0036063   0.0012467
    3  -0.0119271   0.0055798   0.0010441   0.0039194  -0.0036755
 Max gradient component =       6.258E-02
 RMS gradient           =       1.718E-02
 Gradient time:  CPU 4.23 s  wall 4.23 s
 Geometry Optimization Parameters
   NAtoms,    NIC,     NZ,  NCons,   NDum,   NFix, NCnnct, MaxDiis
       23     166       0       1       0       0       0       0


** CONSTRAINED OPTIMIZATION IN DELOCALIZED INTERNAL COORDINATES **
   Searching for a Minimum

   Optimization Cycle:   1

                       Coordinates (Angstroms)
     ATOM                X               Y               Z
      1  H         0.0000000000    0.0000000000    0.0000000000
      2  H         0.6636600000   -2.4682800000   -0.5912700000
      3  C         0.9910300000   -0.3910600000   -0.1165200000
      4  C         1.3681200000   -1.6744200000   -0.4248500000
      5  S         2.3466900000    0.6258600000    0.0863800000
      6  C         2.7616700000   -1.8217500000   -0.5082200000
      7  H         3.2629100000   -2.7387700000   -0.7619900000
      8  C         3.4467100000   -0.6504300000   -0.2605700000
      9  H         4.5564500000    1.4390267100    0.1570438500
     10  C         4.8838200000   -0.6504300000   -0.2605700000
     11  C         5.2609100000    0.6409019400    0.0124539000
     12  S         6.2394800000   -1.6725311300   -0.4355093900
     13  C         6.6544600000    0.7904624800    0.0917531100
     14  H         7.1557000000    1.7140965300    0.3202821300
     15  C         7.3395000000   -0.3872077300   -0.1236860000
     16  C         8.7766100000   -0.3872077300   -0.1236860000
     17  H         8.9604100000    1.2288374900   -1.5382468000
     18  C         9.4616500000    0.5348202700   -0.8873523400
     19  S         9.8766300000   -1.3560281200    0.7766900000
     20  C        10.8552000000    0.4431163500   -0.7450600500
     21  C        11.2322900000   -0.5499128800    0.1244067200
     22  H        11.5596600000    1.0686810500   -1.2613716900
     23  H        12.2233200000   -0.8420167600    0.4093290200
   Point Group: c1    Number of degrees of freedom:    63


   Energy is  -1656.364418149

              Constraints and their Current Values
                                        Value     Constraint
   Dihedral:       13  15  16  18      -50.000      -50.000

 Attempting to Generate Delocalized Internal Coordinates

 62 Hessian modes will be used to form the next step
  Hessian Eigenvalues:
     0.045000    0.045000    0.045000    0.045000    0.045000    0.045000
     0.045001    0.045001    0.045001    0.045002    0.045003    0.045003
     0.045011    0.045012    0.045012    0.045025    0.045032    0.045058
     0.045059    0.159944    0.159945    0.159945    0.159992    0.159993
     0.159993    0.160000    0.160000    0.221307    0.221308    0.227041
     0.237995    0.238010    0.245411    0.249662    0.249670    0.249670
     0.249825    0.326317    0.326319    0.326962    0.340043    0.340044
     0.340629    0.365512    0.365512    0.365513    0.366888    0.366889
     0.366889    0.370099    0.370100    0.399845    0.399845    0.435419
     0.435419    0.435422    0.463117    0.463122    0.464282    0.495500
     0.495500    0.495533

 Minimum Search - Taking Simple RFO Step
 Searching for Lamda that Minimizes Along All modes
 Value Taken    Lamda =  -0.06490013
 Calculated Step too Large.  Step scaled by  0.681469
 Step Taken.  Stepsize is  0.300000

                             Maximum     Tolerance    Cnvgd?
         Gradient           0.080370      0.000300      NO
         Displacement       0.172403      0.001200      NO
         Energy change     *********      0.000001      NO


 New Cartesian Coordinates Obtained by Inverse Iteration

 Displacement from previous Coordinates is:  1.999422
 ----------------------------------------------------------------
             Standard Nuclear Orientation (Angstroms)
    I     Atom           X                Y                Z
 ----------------------------------------------------------------
    1      H      -0.1222458774    -0.3134829690    -0.0221278846
    2      H       0.7980283927    -2.7104744177    -0.6228130933
    3      C       0.9119002868    -0.5995425895    -0.1285515138
    4      C       1.4186007295    -1.8452512419    -0.4423132313
    5      S       2.1437735475     0.5728349289     0.1021680395
    6      C       2.8200390316    -1.8406340540    -0.5049617032
    7      H       3.4162479928    -2.7060794806    -0.7561062521
    8      C       3.3898708545    -0.5891939160    -0.2368690489
    9      H       4.6179067776     1.7479909231     0.2278666226
   10      C       4.8209908753    -0.3963526531    -0.2100736956
   11      C       5.2760798451     0.9113796436     0.0641278756
   12      S       6.1610379364    -1.4570987815    -0.4080961456
   13      C       6.6683210270     1.0225015170     0.1167900339
   14      H       7.2066379160     1.9318817253     0.3393440285
   15      C       7.3111983826    -0.1919618269    -0.1166187684
   16      C       8.7481169104    -0.3074112602    -0.1455352993
   17      H       9.1178115587     1.3054104713    -1.5571468788
   18      C       9.5367188272     0.5483087381    -0.9104957061
   19      S       9.7338176150    -1.4215154941     0.7430676112
   20      C      10.9137271343     0.2939659858    -0.7737484013
   21      C      11.1706555427    -0.7482739949     0.0923510964
   22      H      11.6892581451     0.8419470354    -1.2878576001
   23      H      12.1283865488    -1.1531898190     0.3770363747
 ----------------------------------------------------------------
 Nuclear Repulsion Energy =  1176.2618439229 hartrees
 There are       64 alpha and       63 beta electrons
 Applying Cartesian multipole field
    Component          Value
    ---------          -----
     (2,0,0)        1.00000E-12
     (0,2,0)        2.00000E-11
     (0,0,2)       -3.00000E-11
 Nucleus-field energy     =     0.0000000303 hartrees
 Requested basis set is 6-31++G(d,p)
 There are 110 shells and 345 basis functions
 A cutoff of  1.0D-12 yielded   4696 shell pairs
 There are     47830 function pairs

 Q-Chem warning in module /project/projectdirs/jcesr/qchem/qc44/cnl_qc441/compile/cori/qc_src/libqints/qchem/aobasis.C, line 68:

 Using reconstructed effective core potential

 Smallest overlap matrix eigenvalue = 1.00E-07
 Linear dependence detected in AO basis
 Number of orthogonalized atomic orbitals = 342
 Maximum deviation from orthogonality = 6.227E-11
 Guess MOs from SCF MO coefficient file
 Reading MOs from coefficient file
 Reading MOs from coefficient file
 An unrestricted hybrid HF-DFT SCF calculation will be
 performed using Pulay DIIS extrapolation
 Exchange:     0.2000 Hartree-Fock + 0.0800 Slater + 0.7200 B88
 Correlation:  0.1900 VWN1RPA + 0.8100 LYP
 Using SG-1 standard quadrature grid
 SCF converges when DIIS error is below 1.0E-08
 Geometry optimization detected.  Setting ReadMinima to 0
 Setting SaveMinima to 0
 Inaccurate integrated density:
   Number of electrons =   127
   Numerical integral  =   126.737155394525
   Relative error      =    -0.2069642563 %
 ---------------------------------------
  Cycle       Energy         DIIS Error
 ---------------------------------------
    1   -1656.0887977047      5.17E-03
    2   -1656.3715527101      1.14E-03
    3   -1656.3290257196      1.95E-03
    4   -1656.3927637897      3.42E-04
    5   -1656.3945369376      1.12E-04
    6   -1656.3947261317      4.62E-05
    7   -1656.3947586066      1.86E-05
    8   -1656.3947646602      5.33E-06
    9   -1656.3947651911      2.32E-06
   10   -1656.3947653553      6.96E-07
   11   -1656.3947654046      4.11E-07
   12   -1656.3947654259      1.98E-07
   13   -1656.3947654365      1.04E-07
   14   -1656.3947654398      4.86E-08
   15   -1656.3947654406      2.75E-08
   16   -1656.3947654415      1.29E-08
   17   -1656.3947654414      7.24E-09 Convergence criterion met
 ---------------------------------------
 <S^2> = 0.7646
 SCF time:  CPU 24.32 s  wall 22.43 s
 SCF   energy in the final basis set = -1656.3947654414
 Total energy in the final basis set = -1656.3947654414
 
 --------------------------------------------------------------
 
                    Orbital Energies (a.u.)
 --------------------------------------------------------------
 
 Alpha MOs
 -- Occupied --
-89.082 -89.073 -89.057 -10.411 -10.409 -10.399 -10.385 -10.379
-10.366 -10.363 -10.360 -10.360 -10.349 -10.344 -10.332  -8.141
 -8.132  -8.116  -6.106  -6.102  -6.098  -6.097  -6.093  -6.089
 -6.081  -6.077  -6.073  -1.071  -1.047  -1.028  -0.946  -0.913
 -0.896  -0.894  -0.881  -0.843  -0.770  -0.745  -0.709  -0.704
 -0.690  -0.681  -0.671  -0.650  -0.608  -0.575  -0.574  -0.571
 -0.558  -0.552  -0.548  -0.538  -0.530  -0.525  -0.521  -0.510
 -0.497  -0.487  -0.448  -0.422  -0.411  -0.396  -0.391  -0.358
 -- Virtual --
 -0.223  -0.172  -0.149  -0.139  -0.125  -0.115  -0.109  -0.106
 -0.102  -0.094  -0.093  -0.092  -0.081  -0.080  -0.075  -0.073
 -0.068  -0.062  -0.060  -0.054  -0.050  -0.042  -0.038  -0.034
 -0.024  -0.022  -0.015  -0.014  -0.006  -0.003   0.004   0.007
  0.009   0.011   0.015   0.017   0.022   0.026   0.029   0.032
  0.034   0.039   0.041   0.043   0.044   0.048   0.050   0.052
  0.055   0.058   0.061   0.063   0.067   0.072   0.075   0.080
  0.087   0.088   0.096   0.102   0.106   0.109   0.112   0.116
  0.117   0.121   0.126   0.130   0.137   0.145   0.147   0.150
  0.157   0.162   0.166   0.169   0.176   0.181   0.184   0.193
  0.202   0.207   0.215   0.223   0.231   0.238   0.244   0.249
  0.251   0.260   0.268   0.280   0.309   0.325   0.338   0.348
  0.375   0.386   0.395   0.404   0.418   0.432   0.455   0.458
  0.474   0.483   0.490   0.498   0.503   0.509   0.515   0.520
  0.527   0.536   0.551   0.557   0.571   0.573   0.582   0.589
  0.594   0.603   0.609   0.613   0.624   0.643   0.646   0.650
  0.668   0.671   0.673   0.680   0.699   0.717   0.730   0.765
  0.791   0.799   0.803   0.810   0.818   0.821   0.831   0.838
  0.841   0.848   0.850   0.860   0.872   0.881   0.893   0.899
  0.903   0.911   0.916   0.940   0.950   0.965   0.968   0.972
  0.992   1.011   1.025   1.035   1.046   1.076   1.083   1.109
  1.127   1.138   1.151   1.184   1.188   1.196   1.208   1.209
  1.215   1.232   1.240   1.259   1.286   1.313   1.322   1.349
  1.381   1.399   1.424   1.484   1.502   1.551   1.560   1.614
  1.665   1.690   1.719   1.733   1.752   1.765   1.775   1.786
  1.793   1.821   1.824   1.827   1.871   1.876   1.899   1.920
  1.929   1.964   1.969   2.020   2.032   2.045   2.062   2.074
  2.082   2.103   2.115   2.127   2.154   2.175   2.224   2.245
  2.269   2.298   2.305   2.314   2.317   2.337   2.347   2.376
  2.378   2.389   2.394   2.426   2.436   2.461   2.468   2.484
  2.522   2.530   2.563   2.575   2.608   2.669   2.691   2.705
  2.752   2.766   2.772   2.801   2.998   3.045   3.071   3.143
  3.157   3.192   3.274   3.292   3.533   3.598   3.618   3.816
  3.837   3.849   4.092   4.140   4.164   4.170   4.184   4.205
  4.237   4.322   4.396   4.498   4.551   4.574
 
 Beta MOs
 -- Occupied --
-89.083 -89.073 -89.057 -10.409 -10.406 -10.398 -10.382 -10.378
-10.364 -10.361 -10.360 -10.358 -10.350 -10.343 -10.333  -8.142
 -8.132  -8.116  -6.106  -6.102  -6.099  -6.097  -6.093  -6.089
 -6.080  -6.077  -6.074  -1.066  -1.042  -1.025  -0.940  -0.911
 -0.895  -0.889  -0.880  -0.836  -0.766  -0.742  -0.706  -0.701
 -0.688  -0.679  -0.669  -0.648  -0.606  -0.572  -0.569  -0.564
 -0.556  -0.550  -0.541  -0.536  -0.528  -0.522  -0.513  -0.508
 -0.496  -0.486  -0.428  -0.419  -0.407  -0.393  -0.374
 -- Virtual --
 -0.306  -0.207  -0.163  -0.142  -0.135  -0.121  -0.114  -0.105
 -0.102  -0.097  -0.093  -0.091  -0.084  -0.080  -0.079  -0.073
 -0.072  -0.067  -0.061  -0.059  -0.053  -0.049  -0.041  -0.037
 -0.033  -0.023  -0.021  -0.014  -0.013  -0.006  -0.003   0.004
  0.007   0.010   0.012   0.015   0.017   0.023   0.027   0.030
  0.033   0.036   0.040   0.041   0.044   0.045   0.050   0.051
  0.053   0.056   0.058   0.062   0.064   0.068   0.073   0.076
  0.081   0.087   0.089   0.096   0.103   0.106   0.110   0.113
  0.117   0.118   0.122   0.127   0.131   0.138   0.146   0.148
  0.150   0.159   0.163   0.167   0.170   0.177   0.182   0.186
  0.194   0.203   0.209   0.217   0.225   0.232   0.239   0.244
  0.250   0.252   0.261   0.270   0.282   0.310   0.327   0.339
  0.349   0.375   0.388   0.397   0.405   0.419   0.433   0.456
  0.459   0.475   0.484   0.492   0.503   0.505   0.513   0.521
  0.524   0.531   0.539   0.553   0.558   0.572   0.577   0.585
  0.591   0.596   0.606   0.612   0.617   0.627   0.646   0.648
  0.651   0.670   0.674   0.675   0.684   0.702   0.720   0.732
  0.766   0.792   0.802   0.805   0.811   0.822   0.824   0.832
  0.839   0.842   0.850   0.851   0.862   0.873   0.882   0.895
  0.900   0.904   0.912   0.917   0.941   0.951   0.966   0.970
  0.973   0.993   1.013   1.028   1.038   1.049   1.079   1.086
  1.112   1.130   1.143   1.155   1.187   1.192   1.199   1.210
  1.215   1.219   1.235   1.242   1.261   1.292   1.316   1.326
  1.352   1.385   1.404   1.428   1.489   1.509   1.561   1.566
  1.620   1.668   1.693   1.722   1.737   1.754   1.767   1.777
  1.788   1.796   1.825   1.827   1.832   1.874   1.880   1.902
  1.925   1.932   1.968   1.975   2.027   2.040   2.049   2.067
  2.080   2.088   2.106   2.121   2.132   2.158   2.180   2.227
  2.247   2.275   2.301   2.308   2.319   2.320   2.339   2.349
  2.377   2.383   2.391   2.397   2.429   2.440   2.463   2.470
  2.487   2.524   2.532   2.566   2.577   2.610   2.672   2.696
  2.707   2.754   2.768   2.773   2.803   2.999   3.046   3.072
  3.143   3.157   3.193   3.275   3.293   3.534   3.600   3.619
  3.816   3.838   3.849   4.096   4.144   4.168   4.173   4.187
  4.207   4.242   4.325   4.400   4.501   4.554   4.577
 --------------------------------------------------------------
 
          Ground-State Mulliken Net Atomic Charges

     Atom                 Charge (a.u.)    Spin (a.u.)
  --------------------------------------------------------
      1 H                     0.247582      -0.012664
      2 H                     0.163029       0.001511
      3 C                     0.078772       0.249927
      4 C                    -0.346825      -0.041696
      5 S                    -0.021224      -0.035336
      6 C                     0.452644       0.144221
      7 H                     0.139727      -0.009381
      8 C                    -0.085359       0.061556
      9 H                     0.123249      -0.007304
     10 C                    -0.071816       0.163633
     11 C                    -0.245193       0.099707
     12 S                     0.124101      -0.055798
     13 C                    -0.029318       0.009916
     14 H                     0.181229      -0.001522
     15 C                    -0.166762       0.220543
     16 C                    -0.204040       0.038380
     17 H                     0.175585      -0.005524
     18 C                     0.332873       0.080793
     19 S                     0.145013      -0.020025
     20 C                    -0.408162      -0.021138
     21 C                     0.026962       0.145961
     22 H                     0.156457       0.000980
     23 H                     0.231476      -0.006741
  --------------------------------------------------------
  Sum of atomic charges =     1.000000
  Sum of spin   charges =     1.000000

 -----------------------------------------------------------------
                    Cartesian Multipole Moments
 -----------------------------------------------------------------
    Charge (ESU x 10^10)
                 4.8032
    Dipole Moment (Debye)
         X      27.4778      Y      -1.6291      Z      -1.0936
       Tot      27.5478
    Quadrupole Moments (Debye-Ang)
        XX     140.1294     XY      -3.0669     YY     -90.9731
        XZ      -6.6741     YZ       0.1654     ZZ    -106.8421
    Octopole Moments (Debye-Ang^2)
       XXX     551.4097    XXY      10.6841    XYY    -571.4435
       YYY     131.3801    XXZ     -43.7944    XYZ     -23.5222
       YYZ       7.8098    XZZ    -637.1182    YZZ      51.7906
       ZZZ      39.8071
    Hexadecapole Moments (Debye-Ang^3)
      XXXX   -3800.2294   XXXY     215.6459   XXYY   -4731.6710
      XYYY     832.1868   YYYY    -802.4383   XXXZ    -353.8888
      XXYZ    -326.2883   XYYZ      58.2400   YYYZ       8.5890
      XXZZ   -5049.3836   XYZZ     308.3153   YYZZ    -187.9397
      XZZZ     179.9680   YZZZ     -19.2253   ZZZZ    -272.4165
 -----------------------------------------------------------------
 Calculating analytic gradient of the SCF energy
 Gradient of SCF Energy
            1           2           3           4           5           6
    1   0.0029639   0.0013215  -0.0020662  -0.0037300   0.0002524   0.0099157
    2  -0.0012629   0.0017866  -0.0007220   0.0041341  -0.0147846   0.0043277
    3  -0.0007432   0.0003521  -0.0003808   0.0020469  -0.0025119   0.0021102
            7           8           9          10          11          12
    1  -0.0009605  -0.0279823   0.0036970   0.0336401  -0.0249825  -0.0002274
    2   0.0027587   0.0367581  -0.0026240  -0.0428267  -0.0056727   0.0267218
    3  -0.0002505   0.0069479  -0.0011544  -0.0107776  -0.0016474   0.0018376
           13          14          15          16          17          18
    1   0.0185718  -0.0009965  -0.0108893   0.0081730   0.0007500  -0.0048338
    2  -0.0068964  -0.0016707  -0.0025524  -0.0030784  -0.0018959  -0.0044517
    3   0.0048599  -0.0003473  -0.0045768   0.0076364   0.0012857  -0.0033624
           19          20          21          22          23
    1   0.0021374  -0.0009457   0.0005749  -0.0016479  -0.0027356
    2   0.0132082   0.0003811  -0.0010065  -0.0009066   0.0002754
    3  -0.0043133   0.0016525   0.0017981   0.0016551  -0.0021169
 Max gradient component =       4.283E-02
 RMS gradient           =       1.081E-02
 Gradient time:  CPU 4.21 s  wall 4.21 s
 Geometry Optimization Parameters
   NAtoms,    NIC,     NZ,  NCons,   NDum,   NFix, NCnnct, MaxDiis
       23     166       0       1       0       0       0       0

 Cartesian Hessian Update
 Hessian Updated using BFGS Update


** CONSTRAINED OPTIMIZATION IN DELOCALIZED INTERNAL COORDINATES **
   Searching for a Minimum

   Optimization Cycle:   2

                       Coordinates (Angstroms)
     ATOM                X               Y               Z
      1  H        -0.1222458774   -0.3134829690   -0.0221278846
      2  H         0.7980283927   -2.7104744177   -0.6228130933
      3  C         0.9119002868   -0.5995425895   -0.1285515138
      4  C         1.4186007295   -1.8452512419   -0.4423132313
      5  S         2.1437735475    0.5728349289    0.1021680395
      6  C         2.8200390316   -1.8406340540   -0.5049617032
      7  H         3.4162479928   -2.7060794806   -0.7561062521
      8  C         3.3898708545   -0.5891939160   -0.2368690489
      9  H         4.6179067776    1.7479909231    0.2278666226
     10  C         4.8209908753   -0.3963526531   -0.2100736956
     11  C         5.2760798451    0.9113796436    0.0641278756
     12  S         6.1610379364   -1.4570987815   -0.4080961456
     13  C         6.6683210270    1.0225015170    0.1167900339
     14  H         7.2066379160    1.9318817253    0.3393440285
     15  C         7.3111983826   -0.1919618269   -0.1166187684
     16  C         8.7481169104   -0.3074112602   -0.1455352993
     17  H         9.1178115587    1.3054104713   -1.5571468788
     18  C         9.5367188272    0.5483087381   -0.9104957061
     19  S         9.7338176150   -1.4215154941    0.7430676112
     20  C        10.9137271343    0.2939659858   -0.7737484013
     21  C        11.1706555427   -0.7482739949    0.0923510964
     22  H        11.6892581451    0.8419470354   -1.2878576001
     23  H        12.1283865488   -1.1531898190    0.3770363747
   Point Group: c1    Number of degrees of freedom:    63


   Energy is  -1656.394765441

              Constraints and their Current Values
                                        Value     Constraint
   Dihedral:       13  15  16  18      -50.000      -50.000
 Hessian Updated using BFGS Update

 62 Hessian modes will be used to form the next step
  Hessian Eigenvalues:
     0.044422    0.045000    0.045000    0.045000    0.045000    0.045001
     0.045001    0.045001    0.045001    0.045002    0.045003    0.045003
     0.045011    0.045012    0.045012    0.045026    0.045034    0.045057
     0.045064    0.159496    0.159944    0.159946    0.159981    0.159993
     0.159994    0.160000    0.160253    0.192020    0.221309    0.221824
     0.230233    0.238062    0.238870    0.246582    0.249669    0.249670
     0.284045    0.324178    0.326530    0.327325    0.338646    0.340059
     0.340392    0.365160    0.365513    0.365517    0.366531    0.366889
     0.367329    0.369914    0.370100    0.399734    0.414794    0.434831
     0.435420    0.437040    0.462543    0.463126    0.470973    0.495163
     0.495502    0.578246

 Minimum Search - Taking Simple RFO Step
 Searching for Lamda that Minimizes Along All modes
 Value Taken    Lamda =  -0.02195181
 Calculated Step too Large.  Step scaled by  0.857219
 Step Taken.  Stepsize is  0.300000

                             Maximum     Tolerance    Cnvgd?
         Gradient           0.030902      0.000300      NO
         Displacement       0.123431      0.001200      NO
         Energy change     -0.030347      0.000001      NO


 New Cartesian Coordinates Obtained by Inverse Iteration

 Displacement from previous Coordinates is:  1.534408
 ----------------------------------------------------------------
             Standard Nuclear Orientation (Angstroms)
    I     Atom           X                Y                Z
 ----------------------------------------------------------------
    1      H      -0.0995814642    -0.4885828976    -0.0206609981
    2      H       0.9434600407    -2.8448583006    -0.6203497406
    3      C       0.9530246419    -0.7212626116    -0.1259252339
    4      C       1.5231138053    -1.9477814432    -0.4400875126
    5      S       2.1118278917     0.5295764142     0.1072424372
    6      C       2.9202178381    -1.8772262730    -0.4962684776
    7      H       3.5617217650    -2.7172497979    -0.7398595010
    8      C       3.4188775598    -0.5859301931    -0.2234138261
    9      H       4.5608212816     1.9250064686     0.2730964240
   10      C       4.7869459655    -0.2241295934    -0.1765278392
   11      C       5.2369085414     1.0959574884     0.0921628483
   12      S       6.1236475730    -1.3121411664    -0.4042010304
   13      C       6.6187092376     1.2040654329     0.1136566694
   14      H       7.1615318452     2.1151659723     0.3323273854
   15      C       7.2692287116    -0.0213378541    -0.1396499534
   16      C       8.6948224231    -0.2131573800    -0.1776032250
   17      H       9.2502740339     1.3982379744    -1.5439574021
   18      C       9.5803839260     0.5800697278    -0.9143822300
   19      S       9.5487908491    -1.4742440154     0.6775721355
   20      C      10.9228989780     0.1715648653    -0.7765846378
   21      C      11.0580197847    -0.9188069056     0.0628329826
   22      H      11.7609766919     0.6493975546    -1.2696105103
   23      H      11.9702580790    -1.4265749966     0.3496276958
 ----------------------------------------------------------------
 Nuclear Repulsion Energy =  1178.6258005457 hartrees
 There are       64 alpha and       63 beta electrons
 Applying Cartesian multipole field
    Component          Value
    ---------          -----
     (2,0,0)        1.00000E-12
     (0,2,0)        2.00000E-11
     (0,0,2)       -3.00000E-11
 Nucleus-field energy     =     0.0000000307 hartrees
 Requested basis set is 6-31++G(d,p)
 There are 110 shells and 345 basis functions
 A cutoff of  1.0D-12 yielded   4690 shell pairs
 There are     47800 function pairs

 Q-Chem warning in module /project/projectdirs/jcesr/qchem/qc44/cnl_qc441/compile/cori/qc_src/libqints/qchem/aobasis.C, line 68:

 Using reconstructed effective core potential

 Smallest overlap matrix eigenvalue = 6.04E-08
 Linear dependence detected in AO basis
 Number of orthogonalized atomic orbitals = 342
 Maximum deviation from orthogonality = 6.386E-11
 Guess MOs from SCF MO coefficient file
 Reading MOs from coefficient file
 Reading MOs from coefficient file
 An unrestricted hybrid HF-DFT SCF calculation will be
 performed using Pulay DIIS extrapolation
 Exchange:     0.2000 Hartree-Fock + 0.0800 Slater + 0.7200 B88
 Correlation:  0.1900 VWN1RPA + 0.8100 LYP
 Using SG-1 standard quadrature grid
 SCF converges when DIIS error is below 1.0E-08
 Geometry optimization detected.  Setting ReadMinima to 0
 Setting SaveMinima to 0
 Inaccurate integrated density:
   Number of electrons =   127
   Numerical integral  =   126.839228857671
   Relative error      =    -0.1265914507 %
 ---------------------------------------
  Cycle       Energy         DIIS Error
 ---------------------------------------
    1   -1656.2320453862      3.77E-03
    2   -1656.3949824652      7.95E-04
    3   -1656.3671320988      1.50E-03
    4   -1656.4061203341      2.15E-04
    5   -1656.4068111631      8.00E-05
    6   -1656.4069106230      3.00E-05
    7   -1656.4069254714      1.21E-05
    8   -1656.4069282105      3.79E-06
    9   -1656.4069286529      1.51E-06
   10   -1656.4069288127      7.45E-07
   11   -1656.4069289131      4.36E-07
   12   -1656.4069289529      2.12E-07
   13   -1656.4069289708      1.25E-07
   14   -1656.4069289747      5.05E-08
   15   -1656.4069289758      2.89E-08
   16   -1656.4069289765      1.40E-08
   17   -1656.4069289772      5.53E-09 Convergence criterion met
 ---------------------------------------
 <S^2> = 0.7661
 SCF time:  CPU 24.23 s  wall 22.35 s
 SCF   energy in the final basis set = -1656.4069289772
 Total energy in the final basis set = -1656.4069289772
 
 --------------------------------------------------------------
 
                    Orbital Energies (a.u.)
 --------------------------------------------------------------
 
 Alpha MOs
 -- Occupied --
-89.080 -89.072 -89.057 -10.411 -10.410 -10.397 -10.386 -10.380
-10.369 -10.365 -10.364 -10.363 -10.351 -10.347 -10.334  -8.138
 -8.131  -8.116  -6.103  -6.099  -6.095  -6.095  -6.092  -6.088
 -6.081  -6.077  -6.073  -1.067  -1.042  -1.024  -0.944  -0.915
 -0.898  -0.889  -0.880  -0.840  -0.770  -0.746  -0.710  -0.702
 -0.690  -0.680  -0.668  -0.644  -0.607  -0.574  -0.572  -0.569
 -0.557  -0.553  -0.547  -0.538  -0.532  -0.522  -0.519  -0.511
 -0.499  -0.488  -0.447  -0.424  -0.412  -0.396  -0.390  -0.354
 -- Virtual --
 -0.227  -0.175  -0.152  -0.140  -0.129  -0.115  -0.109  -0.108
 -0.099  -0.095  -0.092  -0.087  -0.082  -0.080  -0.074  -0.073
 -0.066  -0.062  -0.060  -0.054  -0.049  -0.041  -0.040  -0.030
 -0.024  -0.021  -0.016  -0.012  -0.006  -0.003   0.004   0.006
  0.008   0.011   0.015   0.017   0.023   0.027   0.029   0.032
  0.035   0.039   0.040   0.042   0.044   0.048   0.050   0.051
  0.057   0.057   0.062   0.063   0.068   0.073   0.077   0.080
  0.083   0.088   0.096   0.102   0.105   0.107   0.113   0.115
  0.117   0.119   0.125   0.130   0.137   0.144   0.147   0.148
  0.154   0.161   0.165   0.168   0.179   0.183   0.183   0.193
  0.201   0.203   0.216   0.220   0.233   0.235   0.240   0.247
  0.251   0.258   0.266   0.280   0.311   0.326   0.330   0.357
  0.375   0.382   0.400   0.402   0.428   0.436   0.445   0.450
  0.464   0.479   0.487   0.501   0.503   0.507   0.514   0.521
  0.529   0.542   0.552   0.557   0.572   0.576   0.580   0.587
  0.595   0.604   0.607   0.614   0.626   0.642   0.644   0.647
  0.666   0.679   0.680   0.689   0.699   0.715   0.733   0.765
  0.789   0.792   0.801   0.811   0.816   0.820   0.824   0.835
  0.839   0.847   0.849   0.860   0.869   0.881   0.888   0.893
  0.899   0.911   0.917   0.936   0.945   0.959   0.962   0.969
  0.985   1.008   1.026   1.041   1.046   1.076   1.082   1.110
  1.121   1.131   1.152   1.177   1.188   1.197   1.207   1.210
  1.215   1.233   1.242   1.277   1.302   1.318   1.336   1.352
  1.393   1.402   1.425   1.486   1.512   1.550   1.557   1.605
  1.663   1.696   1.706   1.725   1.751   1.765   1.775   1.785
  1.791   1.805   1.814   1.822   1.867   1.875   1.905   1.909
  1.925   1.957   1.972   2.010   2.028   2.040   2.055   2.068
  2.085   2.096   2.108   2.117   2.141   2.174   2.221   2.242
  2.270   2.290   2.295   2.304   2.312   2.332   2.340   2.370
  2.376   2.381   2.390   2.414   2.437   2.457   2.465   2.474
  2.517   2.527   2.560   2.569   2.599   2.659   2.706   2.725
  2.739   2.765   2.778   2.795   2.984   3.036   3.066   3.134
  3.148   3.174   3.264   3.282   3.526   3.591   3.607   3.814
  3.834   3.851   4.094   4.137   4.165   4.167   4.179   4.197
  4.242   4.323   4.394   4.499   4.551   4.575
 
 Beta MOs
 -- Occupied --
-89.080 -89.072 -89.057 -10.408 -10.407 -10.397 -10.383 -10.379
-10.367 -10.364 -10.363 -10.361 -10.352 -10.345 -10.334  -8.139
 -8.131  -8.116  -6.103  -6.099  -6.096  -6.096  -6.092  -6.088
 -6.080  -6.077  -6.073  -1.062  -1.039  -1.021  -0.938  -0.913
 -0.896  -0.884  -0.879  -0.833  -0.766  -0.743  -0.707  -0.700
 -0.688  -0.679  -0.666  -0.642  -0.605  -0.571  -0.567  -0.563
 -0.555  -0.551  -0.541  -0.535  -0.531  -0.520  -0.510  -0.507
 -0.498  -0.487  -0.428  -0.421  -0.408  -0.393  -0.373
 -- Virtual --
 -0.301  -0.211  -0.166  -0.146  -0.135  -0.125  -0.114  -0.107
 -0.098  -0.097  -0.093  -0.091  -0.081  -0.079  -0.078  -0.074
 -0.072  -0.065  -0.061  -0.059  -0.053  -0.047  -0.040  -0.039
 -0.029  -0.023  -0.020  -0.015  -0.011  -0.005  -0.002   0.005
  0.007   0.009   0.012   0.015   0.018   0.024   0.027   0.030
  0.033   0.036   0.039   0.041   0.043   0.045   0.049   0.050
  0.052   0.057   0.058   0.063   0.064   0.068   0.074   0.078
  0.082   0.084   0.089   0.097   0.103   0.106   0.108   0.114
  0.116   0.118   0.120   0.126   0.131   0.139   0.145   0.148
  0.149   0.155   0.161   0.166   0.169   0.179   0.184   0.184
  0.194   0.203   0.205   0.217   0.223   0.235   0.236   0.241
  0.249   0.251   0.259   0.268   0.281   0.313   0.327   0.331
  0.358   0.376   0.384   0.401   0.403   0.430   0.436   0.447
  0.452   0.465   0.479   0.488   0.503   0.507   0.512   0.521
  0.525   0.531   0.546   0.553   0.558   0.574   0.577   0.583
  0.588   0.597   0.607   0.611   0.620   0.628   0.644   0.647
  0.650   0.667   0.682   0.685   0.690   0.703   0.718   0.734
  0.766   0.791   0.795   0.803   0.812   0.820   0.821   0.826
  0.836   0.840   0.848   0.850   0.862   0.870   0.882   0.890
  0.895   0.901   0.913   0.918   0.937   0.946   0.961   0.963
  0.970   0.986   1.010   1.029   1.044   1.049   1.080   1.085
  1.113   1.126   1.136   1.155   1.178   1.192   1.200   1.210
  1.217   1.219   1.235   1.244   1.279   1.308   1.323   1.340
  1.356   1.396   1.406   1.429   1.490   1.520   1.560   1.564
  1.611   1.668   1.698   1.708   1.729   1.753   1.766   1.776
  1.789   1.794   1.810   1.817   1.825   1.871   1.879   1.908
  1.914   1.928   1.961   1.976   2.016   2.035   2.045   2.059
  2.073   2.090   2.101   2.113   2.122   2.145   2.179   2.224
  2.243   2.276   2.294   2.296   2.310   2.315   2.333   2.342
  2.372   2.381   2.382   2.393   2.417   2.441   2.460   2.467
  2.477   2.519   2.529   2.564   2.571   2.601   2.661   2.709
  2.727   2.742   2.767   2.780   2.797   2.985   3.037   3.067
  3.134   3.149   3.174   3.265   3.283   3.527   3.592   3.608
  3.814   3.834   3.851   4.098   4.141   4.169   4.170   4.182
  4.199   4.247   4.326   4.399   4.502   4.554   4.578
 --------------------------------------------------------------
 
          Ground-State Mulliken Net Atomic Charges

     Atom                 Charge (a.u.)    Spin (a.u.)
  --------------------------------------------------------
      1 H                     0.243673      -0.012927
      2 H                     0.165615       0.001540
      3 C                     0.054795       0.253644
      4 C                    -0.277001      -0.042063
      5 S                    -0.039741      -0.031567
      6 C                     0.454562       0.147722
      7 H                     0.142384      -0.009579
      8 C                    -0.179765       0.051165
      9 H                     0.142998      -0.006687
     10 C                    -0.070874       0.164370
     11 C                    -0.120119       0.089045
     12 S                    -0.047257      -0.057023
     13 C                     0.093192       0.025041
     14 H                     0.179651      -0.002180
     15 C                    -0.202291       0.218357
     16 C                    -0.211498       0.030443
     17 H                     0.175539      -0.006242
     18 C                     0.344410       0.085316
     19 S                     0.111216      -0.017513
     20 C                    -0.402403      -0.024059
     21 C                     0.053629       0.148953
     22 H                     0.155855       0.001145
     23 H                     0.233431      -0.006898
  --------------------------------------------------------
  Sum of atomic charges =     1.000000
  Sum of spin   charges =     1.000000

 -----------------------------------------------------------------
                    Cartesian Multipole Moments
 -----------------------------------------------------------------
    Charge (ESU x 10^10)
                 4.8032
    Dipole Moment (Debye)
         X      27.4805      Y      -1.6091      Z      -1.1091
       Tot      27.5499
    Quadrupole Moments (Debye-Ang)
        XX     138.0222     XY      -3.1975     YY     -89.1999
        XZ      -7.5928     YZ       0.2917     ZZ    -107.1833
    Octopole Moments (Debye-Ang^2)
       XXX     522.2313    XXY      -2.1094    XYY    -556.7260
       YYY     125.3170    XXZ     -56.9013    XYZ     -22.6666
       YYZ       9.1560    XZZ    -636.5173    YZZ      50.1250
       ZZZ      42.0385
    Hexadecapole Moments (Debye-Ang^3)
      XXXX   -3996.4828   XXXY     -10.7914   XXYY   -4569.9397
      XYYY     791.1123   YYYY    -820.9320   XXXZ    -503.9169
      XXYZ    -319.9099   XYYZ      77.5469   YYYZ       7.3406
      XXZZ   -4999.1679   XYZZ     296.9564   YYZZ    -193.5205
      XZZZ     218.2457   YZZZ     -21.0153   ZZZZ    -265.7714
 -----------------------------------------------------------------
 Calculating analytic gradient of the SCF energy
 Gradient of SCF Energy
            1           2           3           4           5           6
    1  -0.0000193   0.0001741   0.0019492  -0.0006144   0.0033370   0.0025317
    2   0.0005939  -0.0002155  -0.0010699  -0.0011244  -0.0008884  -0.0023348
    3  -0.0001455  -0.0000208  -0.0002543   0.0001964   0.0004796   0.0002939
            7           8           9          10          11          12
    1   0.0002779  -0.0092474  -0.0004845   0.0128535  -0.0054777  -0.0023791
    2  -0.0000723   0.0170951   0.0010567  -0.0189944   0.0027486   0.0050771
    3  -0.0007576   0.0029807  -0.0003193  -0.0056236   0.0005037  -0.0015817
           13          14          15          16          17          18
    1   0.0022911  -0.0007042  -0.0071154   0.0039011  -0.0000497  -0.0012266
    2   0.0004585   0.0000796  -0.0012724  -0.0050722  -0.0001942  -0.0012923
    3   0.0059242   0.0003529  -0.0036706   0.0063475  -0.0004125  -0.0061350
           19          20          21          22          23
    1   0.0003800  -0.0000005  -0.0004904   0.0001198  -0.0000060
    2   0.0046687   0.0011938   0.0000726   0.0002666  -0.0007805
    3   0.0005123  -0.0002540   0.0021748   0.0001893  -0.0007806
 Max gradient component =       1.899E-02
 RMS gradient           =       4.355E-03
 Gradient time:  CPU 4.22 s  wall 4.20 s
 Geometry Optimization Parameters
   NAtoms,    NIC,     NZ,  NCons,   NDum,   NFix, NCnnct, MaxDiis
       23     166       0       1       0       0       0       0

 Cartesian Hessian Update
 Hessian Updated using BFGS Update


** CONSTRAINED OPTIMIZATION IN DELOCALIZED INTERNAL COORDINATES **
   Searching for a Minimum

   Optimization Cycle:   3

                       Coordinates (Angstroms)
     ATOM                X               Y               Z
      1  H        -0.0995814642   -0.4885828976   -0.0206609981
      2  H         0.9434600407   -2.8448583006   -0.6203497406
      3  C         0.9530246419   -0.7212626116   -0.1259252339
      4  C         1.5231138053   -1.9477814432   -0.4400875126
      5  S         2.1118278917    0.5295764142    0.1072424372
      6  C         2.9202178381   -1.8772262730   -0.4962684776
      7  H         3.5617217650   -2.7172497979   -0.7398595010
      8  C         3.4188775598   -0.5859301931   -0.2234138261
      9  H         4.5608212816    1.9250064686    0.2730964240
     10  C         4.7869459655   -0.2241295934   -0.1765278392
     11  C         5.2369085414    1.0959574884    0.0921628483
     12  S         6.1236475730   -1.3121411664   -0.4042010304
     13  C         6.6187092376    1.2040654329    0.1136566694
     14  H         7.1615318452    2.1151659723    0.3323273854
     15  C         7.2692287116   -0.0213378541   -0.1396499534
     16  C         8.6948224231   -0.2131573800   -0.1776032250
     17  H         9.2502740339    1.3982379744   -1.5439574021
     18  C         9.5803839260    0.5800697278   -0.9143822300
     19  S         9.5487908491   -1.4742440154    0.6775721355
     20  C        10.9228989780    0.1715648653   -0.7765846378
     21  C        11.0580197847   -0.9188069056    0.0628329826
     22  H        11.7609766919    0.6493975546   -1.2696105103
     23  H        11.9702580790   -1.4265749966    0.3496276958
   Point Group: c1    Number of degrees of freedom:    63


   Energy is  -1656.406928977

              Constraints and their Current Values
                                        Value     Constraint
   Dihedral:       13  15  16  18      -50.000      -50.000
 Hessian Updated using BFGS Update

 61 Hessian modes will be used to form the next step
  Hessian Eigenvalues:
     0.040829    0.045000    0.045000    0.045000    0.045001    0.045001
     0.045001    0.045002    0.045003    0.045003    0.045007    0.045012
     0.045012    0.045012    0.045028    0.045056    0.045058    0.045123
     0.156061    0.159945    0.159961    0.159987    0.159993    0.159999
     0.160016    0.160478    0.174767    0.221316    0.223047    0.230592
     0.238228    0.240482    0.249377    0.249670    0.261694    0.279579
     0.322978    0.326505    0.328017    0.338167    0.340070    0.341521
     0.365510    0.365513    0.365807    0.366889    0.367228    0.367978
     0.370100    0.370953    0.401122    0.423585    0.435413    0.435594
     0.442718    0.463118    0.464426    0.482114    0.495345    0.497777
     0.580273

 Minimum Search - Taking Simple RFO Step
 Searching for Lamda that Minimizes Along All modes
 Value Taken    Lamda =  -0.00495221
 Step Taken.  Stepsize is  0.256826

                             Maximum     Tolerance    Cnvgd?
         Gradient           0.010360      0.000300      NO
         Displacement       0.096293      0.001200      NO
         Energy change     -0.012164      0.000001      NO


 New Cartesian Coordinates Obtained by Inverse Iteration

 Displacement from previous Coordinates is:  1.006170
 ----------------------------------------------------------------
             Standard Nuclear Orientation (Angstroms)
    I     Atom           X                Y                Z
 ----------------------------------------------------------------
    1      H      -0.1150397547    -0.6054569158    -0.0459461642
    2      H       1.0210558102    -2.9245687000    -0.5971733158
    3      C       0.9472180022    -0.7985087798    -0.1369418210
    4      C       1.5692895970    -2.0062135665    -0.4253608039
    5      S       2.0651052742     0.4886806628     0.0854889325
    6      C       2.9651429440    -1.8956588032    -0.4646769585
    7      H       3.6313399282    -2.7232096720    -0.6822737483
    8      C       3.4276909769    -0.5887943017    -0.2058746715
    9      H       4.5404107020     2.0145788603     0.2897491481
   10      C       4.7605780145    -0.1279752930    -0.1506245448
   11      C       5.2195194710     1.1912441017     0.0969423894
   12      S       6.1169318683    -1.2122061242    -0.3949400862
   13      C       6.6007352132     1.3064094073     0.0879373101
   14      H       7.1438590518     2.2207080112     0.2958195745
   15      C       7.2663591129     0.0892725646    -0.1749180262
   16      C       8.6814222373    -0.1355812910    -0.1945693903
   17      H       9.3690638042     1.4904428839    -1.4765434538
   18      C       9.6313284036     0.6212417980    -0.8841295258
   19      S       9.4344524591    -1.5119517590     0.5925126649
   20      C      10.9385448462     0.1054151668    -0.7613649107
   21      C      10.9876455980    -1.0330388633     0.0192106063
   22      H      11.8138907619     0.5440139477    -1.2255234193
   23      H      11.8603356778    -1.6130848647     0.2926366742
 ----------------------------------------------------------------
 Nuclear Repulsion Energy =  1179.4602979848 hartrees
 There are       64 alpha and       63 beta electrons
 Applying Cartesian multipole field
    Component          Value
    ---------          -----
     (2,0,0)        1.00000E-12
     (0,2,0)        2.00000E-11
     (0,0,2)       -3.00000E-11
 Nucleus-field energy     =     0.0000000313 hartrees
 Requested basis set is 6-31++G(d,p)
 There are 110 shells and 345 basis functions
 A cutoff of  1.0D-12 yielded   4689 shell pairs
 There are     47825 function pairs

 Q-Chem warning in module /project/projectdirs/jcesr/qchem/qc44/cnl_qc441/compile/cori/qc_src/libqints/qchem/aobasis.C, line 68:

 Using reconstructed effective core potential

 Smallest overlap matrix eigenvalue = 6.51E-08
 Linear dependence detected in AO basis
 Number of orthogonalized atomic orbitals = 342
 Maximum deviation from orthogonality = 8.148E-11
 Guess MOs from SCF MO coefficient file
 Reading MOs from coefficient file
 Reading MOs from coefficient file
 An unrestricted hybrid HF-DFT SCF calculation will be
 performed using Pulay DIIS extrapolation
 Exchange:     0.2000 Hartree-Fock + 0.0800 Slater + 0.7200 B88
 Correlation:  0.1900 VWN1RPA + 0.8100 LYP
 Using SG-1 standard quadrature grid
 SCF converges when DIIS error is below 1.0E-08
 Geometry optimization detected.  Setting ReadMinima to 0
 Setting SaveMinima to 0
 ---------------------------------------
  Cycle       Energy         DIIS Error
 ---------------------------------------
    1   -1656.3166098143      2.50E-03
    2   -1656.4032324178      6.00E-04
    3   -1656.3852781346      1.19E-03
    4   -1656.4093330396      1.76E-04
    5   -1656.4098346109      5.95E-05
    6   -1656.4098971609      1.92E-05
    7   -1656.4099034384      7.66E-06
    8   -1656.4099045714      3.19E-06
    9   -1656.4099048749      1.29E-06
   10   -1656.4099049749      7.12E-07
   11   -1656.4099050429      4.76E-07
   12   -1656.4099050700      2.01E-07
   13   -1656.4099050818      9.85E-08
   14   -1656.4099050840      3.09E-08
   15   -1656.4099050834      1.53E-08
   16   -1656.4099050834      7.71E-09 Convergence criterion met
 ---------------------------------------
 <S^2> = 0.7662
 SCF time:  CPU 22.78 s  wall 21.19 s
 SCF   energy in the final basis set = -1656.4099050834
 Total energy in the final basis set = -1656.4099050834
 
 --------------------------------------------------------------
 
                    Orbital Energies (a.u.)
 --------------------------------------------------------------
 
 Alpha MOs
 -- Occupied --
-89.076 -89.070 -89.058 -10.411 -10.411 -10.397 -10.385 -10.382
-10.369 -10.368 -10.366 -10.363 -10.351 -10.350 -10.336  -8.135
 -8.129  -8.117  -6.100  -6.096  -6.093  -6.092  -6.089  -6.086
 -6.082  -6.078  -6.074  -1.065  -1.041  -1.024  -0.944  -0.914
 -0.896  -0.888  -0.881  -0.841  -0.771  -0.748  -0.711  -0.704
 -0.689  -0.680  -0.669  -0.643  -0.609  -0.573  -0.571  -0.570
 -0.559  -0.554  -0.547  -0.540  -0.533  -0.520  -0.518  -0.509
 -0.495  -0.488  -0.449  -0.422  -0.410  -0.398  -0.391  -0.353
 -- Virtual --
 -0.228  -0.177  -0.153  -0.138  -0.128  -0.113  -0.109  -0.108
 -0.099  -0.094  -0.092  -0.084  -0.081  -0.079  -0.076  -0.072
 -0.066  -0.062  -0.060  -0.054  -0.048  -0.042  -0.040  -0.030
 -0.024  -0.021  -0.017  -0.012  -0.005  -0.003   0.004   0.005
  0.008   0.011   0.015   0.017   0.024   0.027   0.029   0.033
  0.036   0.038   0.039   0.041   0.043   0.046   0.051   0.051
  0.057   0.058   0.062   0.065   0.068   0.073   0.078   0.079
  0.082   0.088   0.097   0.101   0.103   0.106   0.112   0.115
  0.118   0.119   0.127   0.129   0.137   0.145   0.146   0.149
  0.152   0.162   0.166   0.169   0.180   0.181   0.186   0.193
  0.201   0.203   0.216   0.221   0.233   0.235   0.241   0.248
  0.251   0.259   0.269   0.281   0.309   0.326   0.327   0.361
  0.377   0.380   0.397   0.400   0.431   0.436   0.437   0.447
  0.461   0.476   0.485   0.502   0.505   0.509   0.515   0.519
  0.528   0.545   0.549   0.556   0.572   0.579   0.580   0.587
  0.596   0.604   0.606   0.614   0.629   0.637   0.641   0.647
  0.664   0.678   0.682   0.690   0.698   0.713   0.735   0.764
  0.788   0.792   0.801   0.810   0.816   0.816   0.823   0.835
  0.838   0.849   0.849   0.857   0.870   0.878   0.886   0.892
  0.899   0.911   0.922   0.936   0.944   0.960   0.964   0.970
  0.977   1.008   1.023   1.044   1.046   1.071   1.082   1.108
  1.117   1.129   1.149   1.176   1.189   1.196   1.205   1.210
  1.213   1.232   1.242   1.289   1.310   1.324   1.339   1.350
  1.401   1.408   1.432   1.488   1.519   1.547   1.556   1.588
  1.661   1.695   1.704   1.718   1.750   1.765   1.772   1.775
  1.788   1.803   1.811   1.820   1.866   1.872   1.904   1.909
  1.922   1.955   1.974   2.003   2.023   2.039   2.044   2.061
  2.078   2.094   2.105   2.120   2.138   2.179   2.223   2.239
  2.274   2.281   2.290   2.303   2.314   2.330   2.337   2.370
  2.378   2.383   2.389   2.408   2.442   2.458   2.463   2.479
  2.515   2.526   2.562   2.568   2.597   2.651   2.705   2.734
  2.747   2.765   2.792   2.805   2.983   3.037   3.068   3.136
  3.146   3.172   3.265   3.280   3.524   3.590   3.605   3.810
  3.834   3.855   4.096   4.136   4.164   4.168   4.179   4.192
  4.243   4.324   4.394   4.500   4.552   4.577
 
 Beta MOs
 -- Occupied --
-89.076 -89.070 -89.058 -10.408 -10.408 -10.396 -10.382 -10.382
-10.368 -10.365 -10.365 -10.361 -10.351 -10.348 -10.337  -8.135
 -8.129  -8.117  -6.100  -6.096  -6.093  -6.092  -6.089  -6.086
 -6.082  -6.078  -6.075  -1.060  -1.037  -1.021  -0.938  -0.912
 -0.895  -0.884  -0.879  -0.834  -0.767  -0.745  -0.708  -0.702
 -0.687  -0.678  -0.667  -0.641  -0.607  -0.570  -0.569  -0.562
 -0.557  -0.552  -0.542  -0.536  -0.531  -0.517  -0.509  -0.507
 -0.494  -0.487  -0.430  -0.420  -0.406  -0.395  -0.375
 -- Virtual --
 -0.300  -0.213  -0.167  -0.147  -0.133  -0.125  -0.113  -0.108
 -0.098  -0.098  -0.093  -0.091  -0.081  -0.079  -0.075  -0.074
 -0.071  -0.065  -0.061  -0.059  -0.053  -0.046  -0.041  -0.039
 -0.029  -0.023  -0.020  -0.016  -0.011  -0.004  -0.003   0.005
  0.006   0.008   0.012   0.015   0.017   0.025   0.028   0.030
  0.034   0.036   0.039   0.040   0.042   0.044   0.047   0.052
  0.052   0.058   0.058   0.063   0.065   0.069   0.075   0.079
  0.080   0.083   0.089   0.097   0.102   0.104   0.107   0.113
  0.115   0.119   0.121   0.128   0.130   0.138   0.146   0.147
  0.150   0.153   0.162   0.167   0.170   0.181   0.182   0.187
  0.194   0.203   0.205   0.218   0.223   0.234   0.236   0.242
  0.249   0.252   0.260   0.270   0.282   0.311   0.327   0.329
  0.362   0.377   0.381   0.398   0.402   0.433   0.437   0.439
  0.448   0.463   0.477   0.486   0.503   0.509   0.515   0.520
  0.525   0.529   0.548   0.552   0.557   0.575   0.580   0.582
  0.588   0.597   0.604   0.612   0.619   0.631   0.640   0.645
  0.648   0.665   0.682   0.687   0.691   0.702   0.716   0.736
  0.765   0.789   0.795   0.803   0.811   0.817   0.820   0.825
  0.837   0.839   0.850   0.850   0.860   0.872   0.879   0.887
  0.894   0.900   0.913   0.923   0.937   0.945   0.962   0.965
  0.971   0.978   1.010   1.025   1.046   1.050   1.074   1.085
  1.111   1.123   1.133   1.152   1.178   1.192   1.200   1.207
  1.216   1.218   1.235   1.244   1.292   1.313   1.330   1.343
  1.354   1.405   1.411   1.436   1.491   1.527   1.554   1.565
  1.595   1.665   1.697   1.705   1.723   1.753   1.766   1.776
  1.778   1.790   1.807   1.814   1.823   1.870   1.876   1.909
  1.912   1.926   1.959   1.978   2.010   2.029   2.043   2.049
  2.066   2.083   2.099   2.110   2.125   2.143   2.184   2.225
  2.241   2.278   2.283   2.296   2.308   2.318   2.331   2.339
  2.372   2.383   2.385   2.392   2.410   2.445   2.461   2.466
  2.482   2.516   2.529   2.566   2.570   2.599   2.654   2.708
  2.736   2.750   2.767   2.794   2.807   2.984   3.038   3.069
  3.136   3.147   3.172   3.266   3.281   3.525   3.591   3.606
  3.810   3.834   3.856   4.100   4.140   4.167   4.171   4.182
  4.194   4.248   4.328   4.398   4.503   4.554   4.579
 --------------------------------------------------------------
 
          Ground-State Mulliken Net Atomic Charges

     Atom                 Charge (a.u.)    Spin (a.u.)
  --------------------------------------------------------
      1 H                     0.243502      -0.012529
      2 H                     0.165616       0.001343
      3 C                     0.061275       0.245448
      4 C                    -0.250520      -0.038113
      5 S                    -0.049074      -0.026789
      6 C                     0.487483       0.141995
      7 H                     0.144011      -0.009250
      8 C                    -0.262988       0.046995
      9 H                     0.151540      -0.005880
     10 C                    -0.082316       0.169043
     11 C                    -0.046480       0.077729
     12 S                    -0.189319      -0.056486
     13 C                     0.170134       0.041884
     14 H                     0.178701      -0.003140
     15 C                    -0.188963       0.203691
     16 C                    -0.175402       0.027888
     17 H                     0.174530      -0.007005
     18 C                     0.305905       0.093520
     19 S                     0.078825      -0.017652
     20 C                    -0.375982      -0.026414
     21 C                     0.067572       0.160128
     22 H                     0.156167       0.001266
     23 H                     0.235784      -0.007671
  --------------------------------------------------------
  Sum of atomic charges =     1.000000
  Sum of spin   charges =     1.000000

 -----------------------------------------------------------------
                    Cartesian Multipole Moments
 -----------------------------------------------------------------
    Charge (ESU x 10^10)
                 4.8032
    Dipole Moment (Debye)
         X      27.7851      Y      -1.5886      Z      -1.1387
       Tot      27.8538
    Quadrupole Moments (Debye-Ang)
        XX     141.8452     XY      -3.1260     YY     -88.1769
        XZ      -8.3656     YZ       0.2052     ZZ    -107.6922
    Octopole Moments (Debye-Ang^2)
       XXX     566.6525    XXY      -8.8943    XYY    -545.6623
       YYY     121.7419    XXZ     -67.6683    XYZ     -21.9266
       YYZ      10.8245    XZZ    -638.2015    YZZ      49.3398
       ZZZ      45.8785
    Hexadecapole Moments (Debye-Ang^3)
      XXXX   -3450.1648   XXXY    -145.3087   XXYY   -4449.1344
      XYYY     758.8076   YYYY    -837.8079   XXXZ    -623.2056
      XXYZ    -306.3062   XYYZ      92.2067   YYYZ       4.4904
      XXZZ   -4994.0288   XYZZ     289.0938   YYZZ    -197.8579
      XZZZ     260.3921   YZZZ     -21.2686   ZZZZ    -252.1400
 -----------------------------------------------------------------
 Calculating analytic gradient of the SCF energy
 Gradient of SCF Energy
            1           2           3           4           5           6
    1  -0.0004698  -0.0003289  -0.0014706  -0.0000857   0.0020334  -0.0002775
    2   0.0003443   0.0001200  -0.0009741   0.0000763  -0.0011804  -0.0018948
    3  -0.0000399   0.0000965   0.0001393   0.0000216   0.0000022   0.0000806
            7           8           9          10          11          12
    1   0.0003345   0.0026794  -0.0008806  -0.0013939   0.0013566  -0.0023437
    2   0.0001697   0.0033373  -0.0000434  -0.0032868   0.0023680   0.0015715
    3  -0.0004472   0.0002235  -0.0004072  -0.0015436   0.0002629  -0.0010976
           13          14          15          16          17          18
    1  -0.0011554   0.0004075   0.0002726   0.0020981  -0.0003171  -0.0014894
    2  -0.0007709  -0.0003042   0.0013662   0.0000234  -0.0002132  -0.0026296
    3   0.0060079   0.0004475  -0.0057524   0.0051065  -0.0003992  -0.0047934
           19          20          21          22          23
    1  -0.0005485   0.0003656   0.0008522   0.0002601   0.0001009
    2   0.0020510  -0.0008572   0.0013241  -0.0000088  -0.0005886
    3   0.0011315   0.0005403   0.0007766   0.0000476  -0.0004041
 Max gradient component =       6.008E-03
 RMS gradient           =       1.750E-03
 Gradient time:  CPU 4.24 s  wall 4.21 s
 Geometry Optimization Parameters
   NAtoms,    NIC,     NZ,  NCons,   NDum,   NFix, NCnnct, MaxDiis
       23     166       0       1       0       0       0       0

 Cartesian Hessian Update
 Hessian Updated using BFGS Update


** CONSTRAINED OPTIMIZATION IN DELOCALIZED INTERNAL COORDINATES **
   Searching for a Minimum

   Optimization Cycle:   4

                       Coordinates (Angstroms)
     ATOM                X               Y               Z
      1  H        -0.1150397547   -0.6054569158   -0.0459461642
      2  H         1.0210558102   -2.9245687000   -0.5971733158
      3  C         0.9472180022   -0.7985087798   -0.1369418210
      4  C         1.5692895970   -2.0062135665   -0.4253608039
      5  S         2.0651052742    0.4886806628    0.0854889325
      6  C         2.9651429440   -1.8956588032   -0.4646769585
      7  H         3.6313399282   -2.7232096720   -0.6822737483
      8  C         3.4276909769   -0.5887943017   -0.2058746715
      9  H         4.5404107020    2.0145788603    0.2897491481
     10  C         4.7605780145   -0.1279752930   -0.1506245448
     11  C         5.2195194710    1.1912441017    0.0969423894
     12  S         6.1169318683   -1.2122061242   -0.3949400862
     13  C         6.6007352132    1.3064094073    0.0879373101
     14  H         7.1438590518    2.2207080112    0.2958195745
     15  C         7.2663591129    0.0892725646   -0.1749180262
     16  C         8.6814222373   -0.1355812910   -0.1945693903
     17  H         9.3690638042    1.4904428839   -1.4765434538
     18  C         9.6313284036    0.6212417980   -0.8841295258
     19  S         9.4344524591   -1.5119517590    0.5925126649
     20  C        10.9385448462    0.1054151668   -0.7613649107
     21  C        10.9876455980   -1.0330388633    0.0192106063
     22  H        11.8138907619    0.5440139477   -1.2255234193
     23  H        11.8603356778   -1.6130848647    0.2926366742
   Point Group: c1    Number of degrees of freedom:    63


   Energy is  -1656.409905083

              Constraints and their Current Values
                                        Value     Constraint
   Dihedral:       13  15  16  18      -50.000      -50.000
 Hessian Updated using BFGS Update

 62 Hessian modes will be used to form the next step
  Hessian Eigenvalues:
     0.028164    0.045000    0.045000    0.045000    0.045001    0.045001
     0.045001    0.045002    0.045002    0.045003    0.045007    0.045007
     0.045012    0.045012    0.045021    0.045036    0.045057    0.045085
     0.045177    0.159419    0.159945    0.159978    0.159983    0.159997
     0.160003    0.160377    0.162452    0.199438    0.221452    0.223076
     0.230281    0.238243    0.241663    0.249670    0.250855    0.262647
     0.285708    0.322326    0.326587    0.327779    0.338237    0.340252
     0.341377    0.365513    0.365513    0.365804    0.366892    0.367235
     0.367936    0.370111    0.370892    0.400635    0.422510    0.435459
     0.436152    0.442880    0.463366    0.464297    0.481101    0.495765
     0.498888    0.584187

 Minimum Search - Taking Simple RFO Step
 Searching for Lamda that Minimizes Along All modes
 Value Taken    Lamda =  -0.00108137
 Step Taken.  Stepsize is  0.181674

                             Maximum     Tolerance    Cnvgd?
         Gradient           0.003646      0.000300      NO
         Displacement       0.092555      0.001200      NO
         Energy change     -0.002976      0.000001      NO


 New Cartesian Coordinates Obtained by Inverse Iteration

 Displacement from previous Coordinates is:  0.460512
 ----------------------------------------------------------------
             Standard Nuclear Orientation (Angstroms)
    I     Atom           X                Y                Z
 ----------------------------------------------------------------
    1      H      -0.1125793120    -0.6289115678    -0.0707484665
    2      H       1.0435426736    -2.9488312688    -0.5663550116
    3      C       0.9516390504    -0.8130203547    -0.1487386346
[...]
      2 H                     0.163921       0.001374
      3 C                     0.057264       0.234416
      4 C                    -0.241725      -0.037262
      5 S                    -0.046592      -0.023188
      6 C                     0.489677       0.139665
      7 H                     0.144084      -0.009069
      8 C                    -0.253372       0.037715
      9 H                     0.148808      -0.004835
     10 C                    -0.099511       0.174910
     11 C                    -0.077268       0.064375
     12 S                    -0.224304      -0.056479
     13 C                     0.146390       0.054658
     14 H                     0.178034      -0.004098
     15 C                    -0.007088       0.191246
     16 C                    -0.096314       0.017647
     17 H                     0.168806      -0.008196
     18 C                     0.093093       0.121144
     19 S                     0.077339      -0.023399
     20 C                    -0.281852      -0.036682
     21 C                     0.023636       0.185858
     22 H                     0.157333       0.001823
     23 H                     0.237713      -0.009569
  --------------------------------------------------------
  Sum of atomic charges =     1.000000
  Sum of spin   charges =     1.000000

 -----------------------------------------------------------------
                    Cartesian Multipole Moments
 -----------------------------------------------------------------
    Charge (ESU x 10^10)
                 4.8032
    Dipole Moment (Debye)
         X      28.3639      Y      -1.5836      Z      -1.2001
       Tot      28.4334
    Quadrupole Moments (Debye-Ang)
        XX     149.1338     XY      -3.5243     YY     -86.9776
        XZ      -9.1047     YZ      -0.0867     ZZ    -108.7613
    Octopole Moments (Debye-Ang^2)
       XXX     648.6727    XXY     -12.9741    XYY    -533.3553
       YYY     121.9464    XXZ     -77.0797    XYZ     -19.6422
       YYZ      14.5222    XZZ    -646.0967    YZZ      50.4698
       ZZZ      56.4017
    Hexadecapole Moments (Debye-Ang^3)
      XXXX   -2532.7248   XXXY    -180.2730   XXYY   -4323.2839
      XYYY     762.3956   YYYY    -865.2672   XXXZ    -722.8955
      XXYZ    -264.7963   XYYZ     107.2157   YYYZ      -2.1099
      XXZZ   -5057.7217   XYZZ     295.4865   YYZZ    -204.6670
      XZZZ     334.4112   YZZZ     -19.9414   ZZZZ    -225.1755
 -----------------------------------------------------------------
 Calculating analytic gradient of the SCF energy
 Gradient of SCF Energy
            1           2           3           4           5           6
    1   0.0000043  -0.0000025  -0.0000395   0.0000452   0.0000401  -0.0000313
    2   0.0000052  -0.0000093  -0.0000279   0.0000065  -0.0000043  -0.0000455
    3  -0.0000031  -0.0000053   0.0000081   0.0000138   0.0000098  -0.0000082
            7           8           9          10          11          12
    1  -0.0000017  -0.0000445  -0.0000021   0.0000279   0.0001148  -0.0001019
    2  -0.0000006  -0.0000174  -0.0000141  -0.0000806   0.0001265   0.0000103
    3  -0.0000064  -0.0000260  -0.0000010  -0.0000265  -0.0000076   0.0000236
           13          14          15          16          17          18
    1  -0.0006924   0.0000139   0.0008053   0.0002347  -0.0000013  -0.0003420
    2  -0.0018390   0.0000021   0.0005243   0.0054849   0.0000177  -0.0041903
    3   0.0070691  -0.0000155  -0.0146360   0.0136660   0.0000321  -0.0060708
           19          20          21          22          23
    1  -0.0000534  -0.0000240   0.0000479   0.0000058  -0.0000034
    2   0.0000402  -0.0000110   0.0000258   0.0000035  -0.0000068
    3  -0.0000086  -0.0000146   0.0000161   0.0000023  -0.0000114
 Max gradient component =       1.464E-02
 RMS gradient           =       2.799E-03
 Gradient time:  CPU 4.30 s  wall 4.22 s
 Geometry Optimization Parameters
   NAtoms,    NIC,     NZ,  NCons,   NDum,   NFix, NCnnct, MaxDiis
       23     166       0       1       0       0       0       0

 Cartesian Hessian Update
 Hessian Updated using BFGS Update


** CONSTRAINED OPTIMIZATION IN DELOCALIZED INTERNAL COORDINATES **
   Searching for a Minimum

   Optimization Cycle:  12

                       Coordinates (Angstroms)
     ATOM                X               Y               Z
      1  H        -0.1139100349   -0.6028389842   -0.1496438527
      2  H         1.0346175609   -2.9538840188   -0.4895486760
      3  C         0.9502177036   -0.7982230380   -0.1926214400
      4  C         1.5765301883   -2.0236735807   -0.3704268349
      5  S         2.0591652776    0.5031161223   -0.0294954959
      6  C         2.9733191038   -1.9154980471   -0.3745569506
      7  H         3.6415276115   -2.7606769884   -0.4965934112
      8  C         3.4292360154   -0.5974142762   -0.1982872190
      9  H         4.5361491653    2.0170957388    0.2632272983
     10  C         4.7632199718   -0.1292306197   -0.1499437704
     11  C         5.2132390087    1.1944151583    0.0639796098
     12  S         6.1315511349   -1.2088984016   -0.3927217509
     13  C         6.5914639657    1.3244901856    0.0314236094
     14  H         7.1207777742    2.2520268286    0.2148686392
     15  C         7.2692434839    0.1119636180   -0.2270516866
     16  C         8.6790954041   -0.0999133999   -0.1646195989
     17  H         9.4348042950    1.6318857993   -1.2625999186
     18  C         9.6615896197    0.6901736644   -0.7758235007
     19  S         9.3838790807   -1.5970611195    0.4341244199
     20  C        10.9463781506    0.1209866137   -0.7170579544
     21  C        10.9513885749   -1.1083541987   -0.0831155328
     22  H        11.8372431505    0.5826717946   -1.1251746305
     23  H        11.8061537938   -1.7374003805    0.1310951077
   Point Group: c1    Number of degrees of freedom:    63


   Energy is  -1656.411190016

              Constraints and their Current Values
                                        Value     Constraint
   Dihedral:       13  15  16  18      -50.000      -50.000
 Hessian Updated using BFGS Update

 61 Hessian modes will be used to form the next step
  Hessian Eigenvalues:
     0.005121    0.014106    0.039406    0.045000    0.045001    0.045001
     0.045002    0.045003    0.045004    0.045005    0.045012    0.045015
     0.045020    0.045039    0.045061    0.045093    0.045210    0.045221
     0.154097    0.159942    0.159965    0.159998    0.160035    0.160190
     0.160493    0.161373    0.181954    0.221614    0.222670    0.228126
     0.239775    0.246146    0.247356    0.250800    0.267249    0.283133
     0.304944    0.327155    0.327702    0.334121    0.340180    0.341178
     0.365515    0.365525    0.365832    0.366902    0.367300    0.367986
     0.370132    0.371099    0.400411    0.427863    0.434681    0.437741
     0.450608    0.461856    0.464288    0.479048    0.493139    0.498985
     0.581868

 Minimum Search - Taking Simple RFO Step
 Searching for Lamda that Minimizes Along All modes
 Value Taken    Lamda =   0.00000000
 Step Taken.  Stepsize is  0.005510

                             Maximum     Tolerance    Cnvgd?
         Gradient           0.000108      0.000300     YES
         Displacement       0.002914      0.001200      NO
         Energy change     -0.000001      0.000001     YES

 Final energy is   -1656.41119001550     


 ******************************
 **  OPTIMIZATION CONVERGED  **
 ******************************

                       Coordinates (Angstroms)
     ATOM                X               Y               Z
      1  H        -0.1139100349   -0.6028389842   -0.1496438527
      2  H         1.0346175609   -2.9538840188   -0.4895486760
      3  C         0.9502177036   -0.7982230380   -0.1926214400
      4  C         1.5765301883   -2.0236735807   -0.3704268349
      5  S         2.0591652776    0.5031161223   -0.0294954959
      6  C         2.9733191038   -1.9154980471   -0.3745569506
      7  H         3.6415276115   -2.7606769884   -0.4965934112
      8  C         3.4292360154   -0.5974142762   -0.1982872190
      9  H         4.5361491653    2.0170957388    0.2632272983
     10  C         4.7632199718   -0.1292306197   -0.1499437704
     11  C         5.2132390087    1.1944151583    0.0639796098
     12  S         6.1315511349   -1.2088984016   -0.3927217509
     13  C         6.5914639657    1.3244901856    0.0314236094
     14  H         7.1207777742    2.2520268286    0.2148686392
     15  C         7.2692434839    0.1119636180   -0.2270516866
     16  C         8.6790954041   -0.0999133999   -0.1646195989
     17  H         9.4348042950    1.6318857993   -1.2625999186
     18  C         9.6615896197    0.6901736644   -0.7758235007
     19  S         9.3838790807   -1.5970611195    0.4341244199
     20  C        10.9463781506    0.1209866137   -0.7170579544
     21  C        10.9513885749   -1.1083541987   -0.0831155328
     22  H        11.8372431505    0.5826717946   -1.1251746305
     23  H        11.8061537938   -1.7374003805    0.1310951077

Z-matrix Print:
$molecule
1 2
S 
C  1 1.751133
C  2 1.412946 1 110.668074
H  3 1.083582 2 122.087950 1 176.904506 0
C  3 1.384732 2 113.648734 1 -1.302923 0
H  5 1.083953 3 123.692925 2 179.073841 0
C  5 1.414326 3 113.643664 2 0.816148 0
C  7 1.414583 5 127.950092 3 -178.995859 0
C  8 1.405801 7 128.347965 5 -178.126220 0
H  9 1.084308 8 123.030300 7 0.167560 0
C  9 1.400978 8 113.288945 7 179.909648 0
H  11 1.083121 9 124.389695 8 -179.856189 0
C  11 1.387664 9 112.468977 8 0.019615 0
H  13 1.082770 11 127.445960 9 -179.903413 0
C  2 1.427050 1 122.276629 3 171.222276 0
C  15 1.401108 2 126.154713 1 140.216853 0
H  16 1.084069 15 122.617991 2 8.092303 0
C  16 1.406453 15 113.211821 2 -170.492565 0
H  18 1.083214 16 124.267173 15 -179.460805 0
C  18 1.383180 16 112.466614 15 0.910927 0
H  20 1.082686 18 127.584040 16 -177.315665 0
S  13 1.717515 11 112.946238 9 0.052701 0
S  20 1.721470 18 112.750925 16 0.698442 0
$end

 
 --------------------------------------------------------------
 
                    Orbital Energies (a.u.)
 --------------------------------------------------------------
 
 Alpha MOs
 -- Occupied --
-89.075 -89.068 -89.061 -10.410 -10.410 -10.394 -10.386 -10.382
-10.372 -10.367 -10.366 -10.360 -10.354 -10.348 -10.339  -8.134
 -8.127  -8.120  -6.099  -6.095  -6.091  -6.091  -6.087  -6.084
 -6.084  -6.080  -6.077  -1.064  -1.041  -1.025  -0.944  -0.914
 -0.894  -0.890  -0.882  -0.841  -0.771  -0.747  -0.709  -0.707
 -0.689  -0.678  -0.671  -0.643  -0.608  -0.572  -0.570  -0.569
 -0.560  -0.552  -0.548  -0.543  -0.533  -0.520  -0.518  -0.510
 -0.495  -0.489  -0.451  -0.421  -0.408  -0.402  -0.394  -0.350
 -- Virtual --
 -0.229  -0.178  -0.154  -0.137  -0.127  -0.113  -0.109  -0.107
 -0.100  -0.093  -0.092  -0.082  -0.081  -0.079  -0.077  -0.071
 -0.066  -0.062  -0.059  -0.054  -0.047  -0.043  -0.039  -0.031
 -0.024  -0.021  -0.018  -0.011  -0.005  -0.004   0.004   0.007
  0.008   0.012   0.014   0.016   0.024   0.028   0.029   0.034
  0.036   0.036   0.039   0.041   0.044   0.045   0.052   0.053
  0.058   0.058   0.064   0.065   0.067   0.074   0.077   0.080
  0.083   0.090   0.096   0.100   0.103   0.107   0.112   0.113
  0.118   0.121   0.129   0.131   0.136   0.144   0.149   0.151
  0.154   0.162   0.167   0.171   0.180   0.183   0.189   0.192
  0.203   0.205   0.218   0.225   0.231   0.236   0.240   0.248
  0.250   0.260   0.269   0.277   0.310   0.325   0.329   0.356
  0.379   0.380   0.395   0.398   0.428   0.429   0.438   0.445
  0.463   0.475   0.486   0.503   0.507   0.510   0.512   0.519
  0.527   0.540   0.544   0.557   0.567   0.579   0.582   0.589
  0.596   0.598   0.606   0.610   0.625   0.635   0.639   0.650
  0.665   0.673   0.683   0.691   0.697   0.710   0.734   0.761
  0.788   0.793   0.800   0.809   0.814   0.818   0.823   0.830
  0.840   0.846   0.851   0.852   0.873   0.876   0.882   0.894
  0.897   0.909   0.926   0.942   0.948   0.962   0.965   0.968
  0.973   1.007   1.023   1.043   1.052   1.068   1.087   1.111
  1.118   1.134   1.146   1.173   1.193   1.196   1.201   1.205
  1.212   1.223   1.241   1.269   1.314   1.323   1.340   1.345
  1.403   1.419   1.451   1.485   1.514   1.524   1.557   1.570
  1.663   1.698   1.702   1.720   1.753   1.767   1.771   1.775
  1.790   1.805   1.814   1.836   1.862   1.872   1.898   1.912
  1.922   1.950   1.971   2.000   2.015   2.030   2.042   2.061
  2.074   2.087   2.111   2.122   2.145   2.180   2.226   2.236
  2.272   2.282   2.292   2.303   2.314   2.330   2.336   2.370
  2.377   2.385   2.386   2.411   2.443   2.455   2.470   2.480
  2.516   2.526   2.564   2.569   2.596   2.644   2.707   2.734
  2.750   2.768   2.794   2.805   2.986   3.036   3.070   3.138
  3.143   3.174   3.269   3.276   3.524   3.593   3.602   3.802
  3.836   3.860   4.100   4.134   4.165   4.171   4.179   4.192
  4.242   4.325   4.395   4.501   4.553   4.575
 
 Beta MOs
 -- Occupied --
-89.076 -89.068 -89.061 -10.407 -10.407 -10.394 -10.386 -10.379
-10.369 -10.366 -10.365 -10.359 -10.352 -10.348 -10.340  -8.135
 -8.127  -8.120  -6.099  -6.095  -6.092  -6.091  -6.087  -6.084
 -6.084  -6.080  -6.077  -1.059  -1.037  -1.022  -0.938  -0.912
 -0.893  -0.887  -0.880  -0.834  -0.767  -0.744  -0.707  -0.704
 -0.687  -0.677  -0.669  -0.641  -0.607  -0.569  -0.568  -0.562
 -0.558  -0.550  -0.544  -0.537  -0.531  -0.517  -0.509  -0.508
 -0.494  -0.488  -0.432  -0.419  -0.404  -0.398  -0.377
 -- Virtual --
 -0.297  -0.213  -0.168  -0.149  -0.132  -0.123  -0.112  -0.107
 -0.100  -0.097  -0.092  -0.091  -0.081  -0.079  -0.075  -0.073
 -0.070  -0.065  -0.061  -0.058  -0.053  -0.045  -0.042  -0.038
 -0.030  -0.023  -0.020  -0.017  -0.010  -0.004  -0.003   0.005
  0.007   0.008   0.012   0.015   0.017   0.025   0.029   0.030
  0.035   0.037   0.037   0.040   0.042   0.044   0.046   0.053
  0.054   0.058   0.059   0.065   0.066   0.069   0.075   0.079
  0.080   0.085   0.091   0.097   0.101   0.104   0.108   0.113
  0.114   0.119   0.122   0.130   0.132   0.138   0.145   0.150
  0.151   0.155   0.163   0.168   0.172   0.181   0.184   0.190
  0.193   0.205   0.206   0.220   0.227   0.232   0.237   0.241
  0.249   0.251   0.261   0.270   0.278   0.311   0.326   0.330
  0.357   0.380   0.381   0.395   0.400   0.429   0.430   0.439
  0.446   0.464   0.476   0.487   0.505   0.511   0.515   0.516
  0.525   0.529   0.542   0.548   0.559   0.570   0.581   0.584
  0.590   0.597   0.598   0.610   0.615   0.629   0.640   0.640
  0.651   0.666   0.677   0.688   0.692   0.701   0.714   0.736
  0.762   0.790   0.795   0.802   0.810   0.815   0.821   0.825
  0.831   0.842   0.848   0.852   0.853   0.874   0.877   0.883
  0.896   0.899   0.911   0.927   0.943   0.949   0.963   0.966
  0.969   0.974   1.009   1.025   1.046   1.055   1.072   1.089
  1.113   1.124   1.139   1.149   1.176   1.196   1.200   1.204
  1.207   1.219   1.228   1.242   1.273   1.317   1.329   1.343
  1.349   1.407   1.422   1.456   1.489   1.520   1.531   1.566
  1.577   1.666   1.701   1.703   1.725   1.754   1.769   1.773
  1.781   1.792   1.809   1.816   1.841   1.866   1.876   1.902
  1.915   1.927   1.953   1.976   2.007   2.020   2.037   2.047
  2.066   2.078   2.092   2.117   2.127   2.148   2.185   2.228
  2.238   2.276   2.285   2.297   2.307   2.318   2.331   2.338
  2.372   2.381   2.388   2.390   2.414   2.446   2.458   2.473
  2.483   2.517   2.529   2.567   2.572   2.598   2.647   2.710
  2.736   2.753   2.769   2.796   2.807   2.987   3.037   3.071
  3.138   3.143   3.174   3.270   3.277   3.525   3.595   3.603
  3.802   3.836   3.860   4.104   4.138   4.168   4.174   4.182
  4.194   4.246   4.328   4.399   4.504   4.555   4.578
 --------------------------------------------------------------
 
          Ground-State Mulliken Net Atomic Charges

     Atom                 Charge (a.u.)    Spin (a.u.)
  --------------------------------------------------------
      1 H                     0.241930      -0.012054
      2 H                     0.163921       0.001374
      3 C                     0.057264       0.234416
      4 C                    -0.241725      -0.037262
      5 S                    -0.046592      -0.023188
      6 C                     0.489677       0.139665
      7 H                     0.144084      -0.009069
      8 C                    -0.253372       0.037715
      9 H                     0.148808      -0.004835
     10 C                    -0.099511       0.174910
     11 C                    -0.077268       0.064375
     12 S                    -0.224304      -0.056479
     13 C                     0.146390       0.054658
     14 H                     0.178034      -0.004098
     15 C                    -0.007088       0.191246
     16 C                    -0.096314       0.017647
     17 H                     0.168806      -0.008196
     18 C                     0.093093       0.121144
     19 S                     0.077339      -0.023399
     20 C                    -0.281852      -0.036682
     21 C                     0.023636       0.185858
     22 H                     0.157333       0.001823
     23 H                     0.237713      -0.009569
  --------------------------------------------------------
  Sum of atomic charges =     1.000000
  Sum of spin   charges =     1.000000

 -----------------------------------------------------------------
                    Cartesian Multipole Moments
 -----------------------------------------------------------------
    Charge (ESU x 10^10)
                 4.8032
    Dipole Moment (Debye)
         X      28.3639      Y      -1.5836      Z      -1.2001
       Tot      28.4334
    Quadrupole Moments (Debye-Ang)
        XX     149.1338     XY      -3.5243     YY     -86.9776
        XZ      -9.1047     YZ      -0.0867     ZZ    -108.7613
    Octopole Moments (Debye-Ang^2)
       XXX     648.6727    XXY     -12.9741    XYY    -533.3553
       YYY     121.9464    XXZ     -77.0797    XYZ     -19.6422
       YYZ      14.5222    XZZ    -646.0967    YZZ      50.4698
       ZZZ      56.4017
    Hexadecapole Moments (Debye-Ang^3)
      XXXX   -2532.7248   XXXY    -180.2730   XXYY   -4323.2839
      XYYY     762.3956   YYYY    -865.2672   XXXZ    -722.8955
      XXYZ    -264.7963   XYYZ     107.2157   YYYZ      -2.1099
      XXZZ   -5057.7217   XYZZ     295.4865   YYZZ    -204.6670
      XZZZ     334.4112   YZZZ     -19.9414   ZZZZ    -225.1755
 -----------------------------------------------------------------
Archival summary:
1\1\nid00524\OPT\ProcedureUnspecified\BasisUnspecified\3128(1+,2)\bwood\TueMay3011:03:202017TueMay3011:03:202017\0\\#,OPT,ProcedureUnspecified,BasisUnspecified,\\1,2\S\C,1,1.75113\C,2,1.41295,1,110.668\H,3,1.08358,2,122.088,1,176.905,0\C,3,1.38473,2,113.649,1,-1.30292,0\H,5,1.08395,3,123.693,2,179.074,0\C,5,1.41433,3,113.644,2,0.816148,0\C,7,1.41458,5,127.95,3,-178.996,0\C,8,1.4058,7,128.348,5,-178.126,0\H,9,1.08431,8,123.03,7,0.16756,0\C,9,1.40098,8,113.289,7,179.91,0\H,11,1.08312,9,124.39,8,-179.856,0\C,11,1.38766,9,112.469,8,0.019615,0\H,13,1.08277,11,127.446,9,-179.903,0\C,2,1.42705,1,122.277,3,171.222,0\C,15,1.40111,2,126.155,1,140.217,0\H,16,1.08407,15,122.618,2,8.0923,0\C,16,1.40645,15,113.212,2,-170.493,0\H,18,1.08321,16,124.267,15,-179.461,0\C,18,1.38318,16,112.467,15,0.910927,0\H,20,1.08269,18,127.584,16,-177.316,0\S,13,1.71752,11,112.946,9,0.0527014,0\S,20,1.72147,18,112.751,16,0.698442,0\\\@

 Total job time:  269.74s(wall), 286.77s(cpu) 
 Tue May 30 11:03:20 2017

        *************************************************************
        *                                                           *
        *  Thank you very much for using Q-Chem.  Have a nice day.  *
        *                                                           *
        *************************************************************


0 sent ACK to 0 
now end server 0 ... 
