srun -N 1 --ntasks-per-node 22 --cpus-per-task 2 --cpu_bind=cores --nodelist nid00526 /global/project/projectdirs/jcesr/qchem/qc44/cnl_qc441/dist/exe/qcprog.cori.haswell.exe .pt_nn_cation_-170.0.in.33087.qcin.1 /dev/shm/eg_qchem/qchem33087/
Process 2 of 22 is on nid00526 - thread support 0
Process 3 of 22 is on nid00526 - thread support 0
Process 4 of 22 is on nid00526 - thread support 0
Process 5 of 22 is on nid00526 - thread support 0
Process 6 of 22 is on nid00526 - thread support 0
Process 21 of 22 is on nid00526 - thread support 0
Process 1 of 22 is on nid00526 - thread support 0
Process 0 of 22 is on nid00526 - thread support 0
initial socket setup ...start
initial socket setup ...done 
now start server 0 ... 
nid00526 10.128.2
Q-Chem Developer Version! Running on 10.128.2.*
                  Welcome to Q-Chem
     A Quantum Leap Into The Future Of Chemistry


 Q-Chem 4.4, Q-Chem, Inc., Pleasanton, CA (2016)

 Y. Shao,  Z. Gan,  E. Epifanovsky,  A. T. B. Gilbert,  M. Wormit,  
 J. Kussmann,  A. W. Lange,  A. Behn,  J. Deng,  X. Feng,  D. Ghosh,  
 M. Goldey,  P. R. Horn,  L. D. Jacobson,  I. Kaliman,  F. Rob,  
 R. Z. Khaliullin,  T. Kus,  A. Landau,  J. Liu,  E. I. Proynov,  Y. M. Rhee,  
 R. M. Richard,  M. A. Rohrdanz,  R. P. Steele,  E. J. Sundstrom,  
 H. L. Woodcock III,  P. M. Zimmerman,  D. Zuev,  B. Albrecht,  E. Alguire,  
 B. Austin,  S. A. Baeppler,  G. J. O. Beran,  Y. A. Bernard,  
 E. J. Berquist,  K. Brandhorst,  K. B. Bravaya,  S. T. Brown,  D. Casanova,  
 C.-M. Chang,  Y. Chen,  S. H. Chien,  K. D. Closser,  M. P. Coons,  
 D. L. Crittenden,  S. Dasgupta,  M. Diedenhofen,  R. A. DiStasio Jr.,  
 H. Do,  A. D. Dutoi,  R. G. Edgar,  P.-T. Fang,  S. Fatehi,  Q. Feng,  
 L. Fusti-Molnar,  A. Ghysels,  A. Golubeva-Zadorozhnaya,  J. Gomes,  
 A. Gunina,  M. W. D. Hanson-Heine,  P. H. P. Harbach,  A. W. Hauser,  
 J. E. Herr,  E. G. Hohenstein,  Z. C. Holden,  K. Hui,  T.-C. Jagau,  H. Ji,  
 B. Kaduk,  K. Khistyaev,  Jaehoon Kim,  Jihan Kim,  R. A. King,  
 P. Klunzinger,  K. Koh,  D. Kosenkov,  T. Kowalczyk,  C. M. Krauter,  
 A. Kunitsa,  K. U. Lao,  A. Laurent,  K. V. Lawler,  J. Lee,  D. Lefrancois,  
 S. Lehtola,  S. V. Levchenko,  C. Y. Lin,  Y.-S. Lin,  F. Liu,  E. Livshits,  
 R. C. Lochan,  A. Luenser,  P. Manohar,  S. F. Manzer,  S.-P. Mao,  Y. Mao,  
 N. Mardirossian,  A. V. Marenich,  L. A. Martinez-Martinez,  S. A. Maurer,  
 N. J. Mayhall,  J.-M. Mewes,  A. F. Morrison,  K. Nanda,  T. S. Nguyen-Beck,  
 C. M. Oana,  R. Olivares-Amaya,  D. P. O'Neill,  J. A. Parkhill,  
 T. M. Perrine,  R. Peverati,  P. A. Pieniazek,  F. Plasser,  A. Prociuk,  
 D. R. Rehn,  E. Rosta,  N. J. Russ,  N. Sergueev,  S. M. Sharada,  
 S. Sharma,  D. W. Small,  A. Sodt,  T. Stauch,  T. Stein,  D. Stuck,  
 Y.-C. Su,  A. J. W. Thom,  T. Tsuchimochi,  L. Vogt,  O. Vydrov,  T. Wang,  
 M. A. Watson,  J. Wenzel,  A. White,  C. F. Williams,  V. Vanovschi,  
 K. Yao,  S. Yeganeh,  S. R. Yost,  Z.-Q. You,  I. Y. Zhang,  X. Zhang,  
 Y. Zhao,  B. R. Brooks,  G. K. L. Chan,  D. M. Chipman,  C. J. Cramer,  
 W. A. Goddard III,  M. S. Gordon,  W. J. Hehre,  A. Klamt,  
 H. F. Schaefer III,  M. W. Schmidt,  C. D. Sherrill,  D. G. Truhlar,  
 A. Warshel,  X. Xu,  A. Aspuru-Guzik,  R. Baer,  A. T. Bell,  N. A. Besley,  
 J.-D. Chai,  A. Dreuw,  B. D. Dunietz,  T. R. Furlani,  S. R. Gwaltney,  
 C.-P. Hsu,  Y. Jung,  J. Kong,  D. S. Lambrecht,  W. Liang,  C. Ochsenfeld,  
 V. A. Rassolov,  L. V. Slipchenko,  J. E. Subotnik,  T. Van Voorhis,  
 J. M. Herbert,  A. I. Krylov,  P. M. W. Gill,  M. Head-Gordon

 Contributors to earlier versions of Q-Chem not listed above: 
 R. D. Adamson,  J. Baker,  E. F. C. Byrd,  A. K. Chakraborty,  C.-L. Cheng,  
 H. Dachsel,  R. J. Doerksen,  G. Hawkins,  A. Heyden,  S. Hirata,  
 G. Kedziora,  F. J. Keil,  C. Kelley,  P. P. Korambath,  W. Kurlancheek,  
 A. M. Lee,  M. S. Lee,  D. Liotard,  I. Lotan,  P. E. Maslen,  N. Nair,  
 D. Neuhauser,  R. Olson,  B. Peters,  J. Ritchie,  N. E. Schultz,  
 N. Shenvi,  A. C. Simmonett,  K. S. Thanthiriwatte,  Q. Wu,  W. Zhang

 Please cite Q-Chem as follows:
 Y. Shao et al., Mol. Phys. 113, 184-215 (2015)
 DOI: 10.1080/00268976.2014.952696

 Q-Chem 4.4.2 for Intel X86 EM64T Linux

 Parts of Q-Chem use Armadillo 5.200.1 (Boston Tea Smuggler).
 http://arma.sourceforge.net/

 Q-Chem begins on Tue May 30 10:58:44 2017  

Host: nid00444
0

     Scratch files written to /dev/shm/eg_qchem/qchem33087.0//
 Parallel job on  22  processors

Checking the input file for inconsistencies... 	...done.

--------------------------------------------------------------
User input:
--------------------------------------------------------------
$molecule
 1  2
 H           0.00000000        0.00000000        0.00000000
 H           0.66366000       -2.46828000       -0.59127000
 C           0.99103000       -0.39106000       -0.11652000
 C           1.36812000       -1.67442000       -0.42485000
 S           2.34669000        0.62586000        0.08638000
 C           2.76167000       -1.82175000       -0.50822000
 H           3.26291000       -2.73877000       -0.76199000
 C           3.44671000       -0.65043000       -0.26057000
 H           4.55645000        1.43902671        0.15704385
 C           4.88382000       -0.65043000       -0.26057000
 C           5.26091000        0.64090194        0.01245390
 S           6.23948000       -1.67253113       -0.43550939
 C           6.65446000        0.79046248        0.09175311
 H           7.15570000        1.71409653        0.32028213
 C           7.33950000       -0.38720773       -0.12368600
 C           8.77661000       -0.38720773       -0.12368600
 H           8.96041000       -2.42027592       -0.81594181
 C           9.46165000       -1.50957618       -0.54035250
 S           9.87663000        0.87695096        0.26514908
 C          10.85520000       -1.34049548       -0.53208071
 C          11.23229000       -0.09100055       -0.10682556
 H          11.55966000       -2.10041683       -0.81567982
 H          12.22332000        0.30180133        0.00368268
$end


$rem
         jobtype = opt
        exchange = b3lyp
           basis = 6-31++g**
  max_scf_cycles = 150
      mem_static = 281
       mem_total = 2818
      sym_ignore = true
        symmetry = false
          thresh = 12
$end


$opt
CONSTRAINT
tors 13 15 16 18 -170.0
ENDCONSTRAINT
$end

--------------------------------------------------------------
 ----------------------------------------------------------------
             Standard Nuclear Orientation (Angstroms)
    I     Atom           X                Y                Z
 ----------------------------------------------------------------
    1      H       0.0000000000     0.0000000000     0.0000000000
    2      H       0.6636600000    -2.4682800000    -0.5912700000
    3      C       0.9910300000    -0.3910600000    -0.1165200000
    4      C       1.3681200000    -1.6744200000    -0.4248500000
    5      S       2.3466900000     0.6258600000     0.0863800000
    6      C       2.7616700000    -1.8217500000    -0.5082200000
    7      H       3.2629100000    -2.7387700000    -0.7619900000
    8      C       3.4467100000    -0.6504300000    -0.2605700000
    9      H       4.5564500000     1.4390267100     0.1570438500
   10      C       4.8838200000    -0.6504300000    -0.2605700000
   11      C       5.2609100000     0.6409019400     0.0124539000
   12      S       6.2394800000    -1.6725311300    -0.4355093900
   13      C       6.6544600000     0.7904624800     0.0917531100
   14      H       7.1557000000     1.7140965300     0.3202821300
   15      C       7.3395000000    -0.3872077300    -0.1236860000
   16      C       8.7766100000    -0.3872077300    -0.1236860000
   17      H       8.9604100000    -2.4202759200    -0.8159418100
   18      C       9.4616500000    -1.5095761800    -0.5403525000
   19      S       9.8766300000     0.8769509600     0.2651490800
   20      C      10.8552000000    -1.3404954800    -0.5320807100
   21      C      11.2322900000    -0.0910005500    -0.1068255600
   22      H      11.5596600000    -2.1004168300    -0.8156798200
   23      H      12.2233200000     0.3018013300     0.0036826800
 ----------------------------------------------------------------
 Nuclear Repulsion Energy =  1186.4851946943 hartrees
 There are       64 alpha and       63 beta electrons
 Requested basis set is 6-31++G(d,p)
 There are 110 shells and 345 basis functions

 Total QAlloc Memory Limit   2818 MB
 Mega-Array Size       275 MB
 MEM_STATIC part       281 MB
 A cutoff of  1.0D-12 yielded   4724 shell pairs
 There are     48196 function pairs

 Q-Chem warning in module /project/projectdirs/jcesr/qchem/qc44/cnl_qc441/compile/cori/qc_src/libqints/qchem/aobasis.C, line 68:

 Using reconstructed effective core potential

 
 -------------------------------------------------------
 OpenMP Integral Computing Module                       
 Release: version 1.0, May 2013, Q-Chem Inc. Pittsburgh 
 -------------------------------------------------------
 Integral Job Info:
 Integral job number is                      11
 Integral operator is                         1
 short-range coefficients                     0
 long-range coefficients              100000000
 Omega coefficients                           0
 if combine SR and LR in K                    0
 Integral screening is                        0
 Integral computing path is                   2
 max size of driver memory is            800000
 size of driver memory is                593474
 size of scratch memory is             15166112
 max col of scratch BK array               1296
 max len of scratch array in speh3          155
 max len of scratch index in speh4           18
 max int batch size is                      520
 min int batch size is                       52
 fixed nKL is                                52
 max L of basis functions is                  2
 order of int derivative is                   0
 number of shells is                        110
 number of basis is                         345
 number of cartesian basis is               345
 number of contracted shell pairs          4724
 number of primitive shell pairs          14816
 maxK2 (contraction) of shell pair           36
 max number of K2 of shell pair               1
 max number of CS2 of shell pair            511
 max number of PS2 of shell pair           3054
 mem total for path MDJ                  101288
 -------------------------------------------------------
 Smallest overlap matrix eigenvalue = 8.37E-08
 Linear dependence detected in AO basis
 Number of orthogonalized atomic orbitals = 342
 Maximum deviation from orthogonality = 9.863E-11

 Scale SEOQF with 1.000000e-02/1.000000e-01/1.000000e-01

 Standard Electronic Orientation quadrupole field applied
 Nucleus-field energy     =     0.0000000327 hartrees
 Guess from superposition of atomic densities
 Warning:  Energy on first SCF cycle will be non-variational
 An unrestricted hybrid HF-DFT SCF calculation will be
 performed using Pulay DIIS extrapolation
 Exchange:     0.2000 Hartree-Fock + 0.0800 Slater + 0.7200 B88
 Correlation:  0.1900 VWN1RPA + 0.8100 LYP
 Using SG-1 standard quadrature grid
 SCF converges when DIIS error is below 1.0E-08
 Inaccurate integrated density:
   Number of electrons =   127
   Numerical integral  =   127.999811146635
   Relative error      =     0.7872528714 %
 ---------------------------------------
  Cycle       Energy         DIIS Error
 ---------------------------------------
    1   -1660.7354301462      3.84E-02
    2   -1656.1494074360      3.65E-03
    3   -1655.7975456907      5.73E-03
    4   -1656.3477779216      1.15E-03
    5   -1656.3651408188      5.85E-04
    6   -1656.3709242793      1.82E-04
    7   -1656.3714768479      7.69E-05
    8   -1656.3716104894      2.10E-05
    9   -1656.3716314347      6.39E-06
   10   -1656.3716455559      3.68E-06
   11   -1656.3716526157      2.65E-06
   12   -1656.3716571813      1.03E-06
   13   -1656.3716583668      6.19E-07
   14   -1656.3716584386      2.73E-07
   15   -1656.3716584576      6.45E-08
   16   -1656.3716584588      4.91E-08
   17   -1656.3716584580      1.51E-08
   18   -1656.3716584585      9.52E-09 Convergence criterion met
 ---------------------------------------
 <S^2> = 0.7664
 SCF time:  CPU 24.69 s  wall 23.45 s
 SCF   energy in the final basis set = -1656.3716584585
 Total energy in the final basis set = -1656.3716584585
 
 --------------------------------------------------------------
 
                    Orbital Energies (a.u.)
 --------------------------------------------------------------
 
 Alpha MOs
 -- Occupied --
-89.087 -89.066 -89.065 -10.406 -10.404 -10.389 -10.387 -10.376
-10.374 -10.358 -10.356 -10.350 -10.349 -10.340 -10.339  -8.146
 -8.127  -8.124  -6.111  -6.107  -6.102  -6.091  -6.089  -6.087
 -6.085  -6.084  -6.081  -1.080  -1.052  -1.039  -0.956  -0.916
 -0.900  -0.896  -0.888  -0.850  -0.775  -0.750  -0.716  -0.699
 -0.690  -0.683  -0.676  -0.658  -0.606  -0.583  -0.580  -0.572
 -0.565  -0.552  -0.551  -0.547  -0.533  -0.526  -0.522  -0.506
 -0.492  -0.490  -0.461  -0.423  -0.407  -0.405  -0.398  -0.352
 -- Virtual --
 -0.223  -0.171  -0.141  -0.134  -0.126  -0.113  -0.111  -0.107
 -0.096  -0.095  -0.092  -0.086  -0.082  -0.081  -0.077  -0.075
 -0.067  -0.065  -0.065  -0.051  -0.046  -0.042  -0.038  -0.033
 -0.029  -0.024  -0.019  -0.009  -0.006   0.001   0.004   0.005
  0.008   0.014   0.017   0.020   0.026   0.028   0.030   0.034
  0.038   0.039   0.043   0.044   0.047   0.048   0.050   0.054
  0.056   0.062   0.065   0.070   0.072   0.076   0.080   0.083
  0.087   0.092   0.095   0.097   0.107   0.117   0.117   0.120
  0.121   0.123   0.130   0.132   0.144   0.149   0.152   0.157
  0.164   0.169   0.171   0.175   0.177   0.188   0.198   0.204
  0.212   0.221   0.233   0.240   0.240   0.244   0.253   0.260
  0.264   0.268   0.278   0.299   0.307   0.329   0.350   0.363
  0.371   0.377   0.383   0.405   0.426   0.443   0.463   0.469
  0.485   0.489   0.497   0.507   0.507   0.514   0.515   0.519
  0.523   0.524   0.546   0.571   0.576   0.577   0.585   0.593
  0.596   0.598   0.604   0.613   0.626   0.647   0.651   0.659
  0.664   0.668   0.672   0.689   0.690   0.714   0.744   0.752
  0.796   0.803   0.805   0.811   0.814   0.824   0.826   0.837
  0.843   0.855   0.859   0.868   0.878   0.890   0.897   0.908
  0.926   0.939   0.943   0.953   0.972   0.978   0.980   0.995
  1.019   1.028   1.042   1.047   1.062   1.104   1.117   1.125
  1.132   1.154   1.161   1.182   1.196   1.199   1.201   1.215
  1.221   1.223   1.236   1.261   1.278   1.291   1.307   1.345
  1.349   1.436   1.470   1.488   1.511   1.560   1.567   1.570
  1.676   1.694   1.716   1.737   1.767   1.777   1.785   1.793
  1.815   1.838   1.848   1.856   1.880   1.908   1.920   1.943
  1.950   1.959   1.993   2.023   2.048   2.054   2.059   2.086
  2.096   2.106   2.131   2.157   2.191   2.194   2.235   2.238
  2.276   2.309   2.313   2.326   2.333   2.340   2.365   2.391
  2.393   2.400   2.419   2.448   2.455   2.456   2.495   2.518
  2.534   2.552   2.579   2.583   2.594   2.690   2.712   2.727
  2.766   2.784   2.820   2.839   3.025   3.060   3.101   3.163
  3.164   3.202   3.297   3.299   3.564   3.625   3.631   3.822
  3.851   3.855   4.115   4.118   4.167   4.177   4.182   4.194
  4.229   4.325   4.411   4.516   4.565   4.584
 
 Beta MOs
 -- Occupied --
-89.087 -89.067 -89.065 -10.403 -10.401 -10.389 -10.386 -10.373
-10.371 -10.357 -10.356 -10.348 -10.347 -10.341 -10.339  -8.146
 -8.127  -8.125  -6.111  -6.107  -6.103  -6.091  -6.089  -6.087
 -6.085  -6.084  -6.082  -1.076  -1.049  -1.035  -0.950  -0.914
 -0.896  -0.893  -0.886  -0.843  -0.771  -0.747  -0.713  -0.696
 -0.688  -0.680  -0.675  -0.656  -0.604  -0.580  -0.572  -0.570
 -0.563  -0.550  -0.545  -0.542  -0.532  -0.521  -0.516  -0.504
 -0.491  -0.489  -0.442  -0.421  -0.402  -0.400  -0.380
 -- Virtual --
 -0.300  -0.208  -0.160  -0.140  -0.132  -0.116  -0.112  -0.109
 -0.105  -0.094  -0.087  -0.086  -0.083  -0.081  -0.077  -0.074
 -0.073  -0.067  -0.065  -0.064  -0.051  -0.045  -0.042  -0.037
 -0.032  -0.028  -0.022  -0.018  -0.008  -0.006   0.003   0.004
  0.005   0.009   0.015   0.018   0.020   0.027   0.029   0.030
  0.035   0.038   0.039   0.043   0.045   0.048   0.049   0.050
  0.055   0.057   0.064   0.067   0.070   0.072   0.076   0.081
  0.083   0.088   0.093   0.097   0.099   0.108   0.117   0.118
  0.120   0.122   0.123   0.132   0.133   0.146   0.149   0.154
  0.157   0.165   0.170   0.171   0.175   0.178   0.190   0.199
  0.206   0.212   0.222   0.233   0.240   0.242   0.245   0.254
  0.261   0.265   0.269   0.279   0.300   0.307   0.330   0.352
  0.364   0.371   0.378   0.383   0.407   0.427   0.444   0.464
  0.470   0.487   0.493   0.501   0.511   0.513   0.516   0.517
  0.524   0.525   0.530   0.547   0.572   0.578   0.580   0.591
  0.595   0.597   0.599   0.606   0.619   0.631   0.648   0.653
  0.662   0.666   0.669   0.677   0.690   0.695   0.719   0.745
  0.753   0.797   0.805   0.806   0.814   0.816   0.826   0.829
  0.839   0.844   0.857   0.860   0.870   0.879   0.891   0.898
  0.909   0.927   0.941   0.945   0.954   0.973   0.979   0.982
  0.996   1.021   1.030   1.046   1.049   1.064   1.107   1.120
  1.129   1.136   1.160   1.163   1.187   1.200   1.201   1.206
  1.220   1.225   1.228   1.239   1.263   1.283   1.294   1.313
  1.348   1.353   1.439   1.473   1.495   1.518   1.569   1.573
  1.576   1.678   1.696   1.720   1.740   1.768   1.778   1.787
  1.795   1.820   1.842   1.851   1.860   1.884   1.912   1.924
  1.946   1.956   1.961   1.999   2.028   2.053   2.061   2.067
  2.093   2.101   2.112   2.133   2.163   2.196   2.199   2.237
  2.240   2.281   2.312   2.317   2.329   2.335   2.346   2.368
  2.392   2.397   2.404   2.421   2.450   2.458   2.459   2.498
  2.520   2.537   2.554   2.582   2.586   2.596   2.693   2.715
  2.730   2.767   2.786   2.821   2.842   3.026   3.061   3.102
  3.163   3.164   3.202   3.298   3.300   3.565   3.626   3.632
  3.822   3.851   3.856   4.119   4.122   4.172   4.180   4.184
  4.196   4.234   4.328   4.416   4.519   4.568   4.587
 --------------------------------------------------------------
 
          Ground-State Mulliken Net Atomic Charges

     Atom                 Charge (a.u.)    Spin (a.u.)
  --------------------------------------------------------
      1 H                     0.249696      -0.011199
      2 H                     0.154245       0.001436
      3 C                     0.077534       0.228060
      4 C                    -0.336505      -0.042285
      5 S                    -0.079185      -0.027773
      6 C                     0.542067       0.145455
      7 H                     0.141552      -0.008849
      8 C                     0.193167       0.036923
      9 H                     0.060618      -0.005961
     10 C                    -0.144344       0.172900
     11 C                    -0.541734       0.058679
     12 S                     0.012328      -0.046705
     13 C                    -0.227032       0.026863
     14 H                     0.129070      -0.003624
     15 C                     0.075156       0.183779
     16 C                    -0.065986       0.034303
     17 H                     0.129289      -0.008698
     18 C                     0.435929       0.129004
     19 S                     0.023959      -0.025636
     20 C                    -0.287229      -0.038331
     21 C                     0.057713       0.210946
     22 H                     0.157242       0.001660
     23 H                     0.242449      -0.010946
  --------------------------------------------------------
  Sum of atomic charges =     1.000000
  Sum of spin   charges =     1.000000

 -----------------------------------------------------------------
                    Cartesian Multipole Moments
 -----------------------------------------------------------------
    Charge (ESU x 10^10)
                 4.8032
    Dipole Moment (Debye)
         X      29.1032      Y      -2.6830      Z      -1.0683
       Tot      29.2461
    Quadrupole Moments (Debye-Ang)
        XX     160.6967     XY     -13.8150     YY     -89.3669
        XZ      -6.8090     YZ       5.7529     ZZ    -108.9182
    Octopole Moments (Debye-Ang^2)
       XXX     779.8752    XXY     -72.9772    XYY    -551.6036
       YYY     107.8794    XXZ     -43.6194    XYZ      36.8869
       YYZ       7.2444    XZZ    -663.9939    YZZ      44.5386
       ZZZ      55.6895
    Hexadecapole Moments (Debye-Ang^3)
      XXXX   -1268.0410   XXXY    -437.1223   XXYY   -4520.7242
      XYYY     572.6014   YYYY    -823.3570   XXXZ    -319.1696
      XXYZ     287.5984   XYYZ      39.5114   YYYZ     -74.1468
      XXZZ   -5322.7618   XYZZ     229.6006   YYZZ    -185.3341
      XZZZ     318.4970   YZZZ    -115.5181   ZZZZ    -202.9622
 -----------------------------------------------------------------
 Calculating analytic gradient of the SCF energy
 Gradient of SCF Energy
            1           2           3           4           5           6
    1   0.0068436   0.0045580  -0.0046875  -0.0000333   0.0027949   0.0235615
    2  -0.0034418   0.0048260   0.0019552   0.0120340  -0.0265777   0.0107258
    3  -0.0011588   0.0010250  -0.0000502   0.0038235  -0.0056925   0.0034155
            7           8           9          10          11          12
    1  -0.0015324  -0.0212345  -0.0021647   0.0451383  -0.0647086   0.0022075
    2   0.0061627   0.0629519  -0.0058817  -0.0472934  -0.0337535   0.0414559
    3   0.0005639   0.0117758  -0.0006939  -0.0084141  -0.0087633   0.0081874
           13          14          15          16          17          18
    1   0.0335452  -0.0020686  -0.0285030   0.0280514   0.0007556  -0.0210093
    2  -0.0202017  -0.0057805  -0.0324555   0.0311267   0.0058305   0.0117666
    3  -0.0067476  -0.0001544  -0.0065209   0.0097501   0.0031669   0.0011040
           19          20          21          22          23
    1   0.0035818   0.0009739   0.0050013  -0.0042840  -0.0067870
    2  -0.0268709   0.0112609   0.0009631   0.0046611  -0.0034637
    3  -0.0098338   0.0030016   0.0012433   0.0019644  -0.0009920
 Max gradient component =       6.471E-02
 RMS gradient           =       1.903E-02
 Gradient time:  CPU 4.33 s  wall 4.23 s
 Geometry Optimization Parameters
   NAtoms,    NIC,     NZ,  NCons,   NDum,   NFix, NCnnct, MaxDiis
       23     166       0       1       0       0       0       0


** CONSTRAINED OPTIMIZATION IN DELOCALIZED INTERNAL COORDINATES **
   Searching for a Minimum

   Optimization Cycle:   1

                       Coordinates (Angstroms)
     ATOM                X               Y               Z
      1  H         0.0000000000    0.0000000000    0.0000000000
      2  H         0.6636600000   -2.4682800000   -0.5912700000
      3  C         0.9910300000   -0.3910600000   -0.1165200000
      4  C         1.3681200000   -1.6744200000   -0.4248500000
      5  S         2.3466900000    0.6258600000    0.0863800000
      6  C         2.7616700000   -1.8217500000   -0.5082200000
      7  H         3.2629100000   -2.7387700000   -0.7619900000
      8  C         3.4467100000   -0.6504300000   -0.2605700000
      9  H         4.5564500000    1.4390267100    0.1570438500
     10  C         4.8838200000   -0.6504300000   -0.2605700000
     11  C         5.2609100000    0.6409019400    0.0124539000
     12  S         6.2394800000   -1.6725311300   -0.4355093900
     13  C         6.6544600000    0.7904624800    0.0917531100
     14  H         7.1557000000    1.7140965300    0.3202821300
     15  C         7.3395000000   -0.3872077300   -0.1236860000
     16  C         8.7766100000   -0.3872077300   -0.1236860000
     17  H         8.9604100000   -2.4202759200   -0.8159418100
     18  C         9.4616500000   -1.5095761800   -0.5403525000
     19  S         9.8766300000    0.8769509600    0.2651490800
     20  C        10.8552000000   -1.3404954800   -0.5320807100
     21  C        11.2322900000   -0.0910005500   -0.1068255600
     22  H        11.5596600000   -2.1004168300   -0.8156798200
     23  H        12.2233200000    0.3018013300    0.0036826800
   Point Group: c1    Number of degrees of freedom:    63


   Energy is  -1656.371658459

              Constraints and their Current Values
                                        Value     Constraint
   Dihedral:       13  15  16  18     -170.000     -170.000

 Attempting to Generate Delocalized Internal Coordinates

 62 Hessian modes will be used to form the next step
  Hessian Eigenvalues:
     0.045000    0.045000    0.045000    0.045000    0.045000    0.045000
     0.045001    0.045001    0.045001    0.045002    0.045003    0.045003
     0.045011    0.045012    0.045012    0.045025    0.045032    0.045058
     0.045059    0.159944    0.159945    0.159945    0.159992    0.159993
     0.159993    0.160000    0.160000    0.221307    0.221308    0.227041
     0.237995    0.238010    0.245411    0.249662    0.249670    0.249670
     0.249825    0.326317    0.326319    0.326962    0.340043    0.340044
     0.340629    0.365512    0.365512    0.365513    0.366888    0.366889
     0.366889    0.370099    0.370100    0.399845    0.399845    0.435419
     0.435419    0.435422    0.463117    0.463122    0.464282    0.495500
     0.495500    0.495533

 Minimum Search - Taking Simple RFO Step
 Searching for Lamda that Minimizes Along All modes
 Value Taken    Lamda =  -0.06816359
 Calculated Step too Large.  Step scaled by  0.676399
 Step Taken.  Stepsize is  0.300000

                             Maximum     Tolerance    Cnvgd?
         Gradient           0.087155      0.000300      NO
         Displacement       0.159412      0.001200      NO
         Energy change     *********      0.000001      NO


 New Cartesian Coordinates Obtained by Inverse Iteration

 Displacement from previous Coordinates is:  1.657843
 ----------------------------------------------------------------
             Standard Nuclear Orientation (Angstroms)
    I     Atom           X                Y                Z
 ----------------------------------------------------------------
    1      H      -0.0970514358    -0.2679341856    -0.0519969527
    2      H       0.7965389813    -2.6767844134    -0.6400539304
    3      C       0.9337314820    -0.5677011202    -0.1510337006
    4      C       1.4267104848    -1.8190276449    -0.4578183475
    5      S       2.1800487665     0.5883696243     0.0835489350
    6      C       2.8297286578    -1.8322516615    -0.5118046654
    7      H       3.4163447166    -2.7058340720    -0.7570808609
    8      C       3.4133517925    -0.5889396952    -0.2447250783
    9      H       4.6643518562     1.7324199076     0.2173092032
   10      C       4.8473211993    -0.4144867418    -0.2098055645
   11      C       5.3143627257     0.8875966948     0.0646011717
   12      S       6.1746196199    -1.4932802783    -0.3957542253
   13      C       6.7054988970     0.9800530545     0.1287924896
   14      H       7.2496262959     1.8872466199     0.3481077038
   15      C       7.3391903662    -0.2440990056    -0.0964158731
   16      C       8.7641853259    -0.3850768218    -0.1282169046
   17      H       8.8492211878    -2.4484870476    -0.8279808575
   18      C       9.3951793965    -1.5579007738    -0.5519266843
   19      S       9.9350746191     0.8330195559     0.2562834842
   20      C      10.7956433739    -1.4621231768    -0.5535635663
   21      C      11.2313458184    -0.2223751457    -0.1311643372
   22      H      11.4642719447    -2.2593209887    -0.8422222075
   23      H      12.2475839276     0.1221657159    -0.0280862714
 ----------------------------------------------------------------
 Nuclear Repulsion Energy =  1177.3067169509 hartrees
 There are       64 alpha and       63 beta electrons
 Applying Cartesian multipole field
    Component          Value
    ---------          -----
     (2,0,0)        1.00000E-12
     (0,2,0)        2.00000E-11
     (0,0,2)       -3.00000E-11
 Nucleus-field energy     =     0.0000000327 hartrees
 Requested basis set is 6-31++G(d,p)
 There are 110 shells and 345 basis functions
 A cutoff of  1.0D-12 yielded   4713 shell pairs
 There are     48057 function pairs

 Q-Chem warning in module /project/projectdirs/jcesr/qchem/qc44/cnl_qc441/compile/cori/qc_src/libqints/qchem/aobasis.C, line 68:

 Using reconstructed effective core potential

 Smallest overlap matrix eigenvalue = 7.67E-08
 Linear dependence detected in AO basis
 Number of orthogonalized atomic orbitals = 342
 Maximum deviation from orthogonality = 5.194E-11
 Guess MOs from SCF MO coefficient file
 Reading MOs from coefficient file
 Reading MOs from coefficient file
 An unrestricted hybrid HF-DFT SCF calculation will be
 performed using Pulay DIIS extrapolation
 Exchange:     0.2000 Hartree-Fock + 0.0800 Slater + 0.7200 B88
 Correlation:  0.1900 VWN1RPA + 0.8100 LYP
 Using SG-1 standard quadrature grid
 SCF converges when DIIS error is below 1.0E-08
 Geometry optimization detected.  Setting ReadMinima to 0
 Setting SaveMinima to 0
 Inaccurate integrated density:
   Number of electrons =   127
   Numerical integral  =   126.835717718472
   Relative error      =    -0.1293561272 %
 ---------------------------------------
  Cycle       Energy         DIIS Error
 ---------------------------------------
    1   -1656.1416599132      5.05E-03
    2   -1656.3785938064      1.19E-03
    3   -1656.3279033940      2.10E-03
    4   -1656.4023562305      2.80E-04
    5   -1656.4035256715      9.26E-05
    6   -1656.4036550680      3.33E-05
    7   -1656.4036717371      1.61E-05
    8   -1656.4036762548      3.81E-06
    9   -1656.4036765628      2.28E-06
   10   -1656.4036767171      5.32E-07
   11   -1656.4036767760      3.41E-07
   12   -1656.4036768051      1.57E-07
   13   -1656.4036768219      8.09E-08
   14   -1656.4036768258      5.42E-08
   15   -1656.4036768269      2.50E-08
   16   -1656.4036768277      1.07E-08
   17   -1656.4036768275      5.32E-09 Convergence criterion met
 ---------------------------------------
 <S^2> = 0.7684
 SCF time:  CPU 24.02 s  wall 22.33 s
 SCF   energy in the final basis set = -1656.4036768275
 Total energy in the final basis set = -1656.4036768275
 
 --------------------------------------------------------------
 
                    Orbital Energies (a.u.)
 --------------------------------------------------------------
 
 Alpha MOs
 -- Occupied --
-89.082 -89.066 -89.066 -10.410 -10.408 -10.391 -10.389 -10.376
-10.376 -10.362 -10.361 -10.354 -10.353 -10.342 -10.342  -8.141
 -8.126  -8.125  -6.106  -6.102  -6.097  -6.090  -6.089  -6.086
 -6.086  -6.083  -6.082  -1.070  -1.045  -1.032  -0.946  -0.914
 -0.893  -0.893  -0.888  -0.845  -0.771  -0.746  -0.713  -0.700
 -0.687  -0.680  -0.674  -0.654  -0.606  -0.576  -0.573  -0.569
 -0.561  -0.551  -0.547  -0.546  -0.531  -0.528  -0.522  -0.510
 -0.494  -0.491  -0.457  -0.422  -0.405  -0.404  -0.398  -0.349
 -- Virtual --
 -0.227  -0.174  -0.138  -0.133  -0.128  -0.116  -0.112  -0.106
 -0.098  -0.095  -0.089  -0.086  -0.082  -0.081  -0.077  -0.076
 -0.068  -0.064  -0.064  -0.052  -0.046  -0.042  -0.035  -0.032
 -0.028  -0.024  -0.019  -0.009  -0.006   0.001   0.003   0.004
  0.007   0.013   0.018   0.020   0.026   0.028   0.032   0.034
  0.035   0.038   0.042   0.045   0.046   0.048   0.053   0.053
  0.056   0.061   0.066   0.067   0.071   0.072   0.080   0.082
  0.085   0.089   0.094   0.099   0.105   0.109   0.116   0.119
  0.121   0.123   0.128   0.129   0.139   0.147   0.148   0.154
  0.158   0.160   0.171   0.176   0.181   0.184   0.192   0.205
  0.209   0.212   0.231   0.235   0.238   0.241   0.248   0.256
  0.262   0.265   0.276   0.285   0.315   0.326   0.340   0.364
  0.371   0.381   0.383   0.393   0.430   0.438   0.463   0.466
  0.473   0.480   0.498   0.507   0.509   0.511   0.514   0.516
  0.520   0.523   0.542   0.570   0.570   0.573   0.585   0.589
  0.590   0.595   0.597   0.616   0.623   0.631   0.652   0.656
  0.661   0.674   0.676   0.691   0.692   0.713   0.732   0.745
  0.797   0.800   0.805   0.810   0.816   0.820   0.823   0.831
  0.840   0.846   0.855   0.860   0.868   0.881   0.894   0.901
  0.931   0.934   0.946   0.950   0.966   0.972   0.978   0.982
  1.023   1.032   1.036   1.045   1.050   1.097   1.112   1.122
  1.126   1.148   1.153   1.182   1.187   1.195   1.201   1.204
  1.215   1.217   1.239   1.273   1.291   1.302   1.312   1.342
  1.352   1.420   1.448   1.500   1.515   1.552   1.558   1.563
  1.675   1.695   1.705   1.725   1.758   1.769   1.784   1.785
  1.801   1.823   1.829   1.840   1.877   1.878   1.907   1.920
  1.929   1.951   1.980   2.017   2.033   2.040   2.049   2.076
  2.083   2.098   2.104   2.132   2.165   2.179   2.229   2.232
  2.271   2.299   2.303   2.317   2.322   2.328   2.350   2.375
  2.381   2.391   2.404   2.424   2.436   2.440   2.485   2.491
  2.524   2.547   2.569   2.573   2.589   2.695   2.716   2.718
  2.769   2.769   2.792   2.817   2.999   3.044   3.086   3.149
  3.150   3.193   3.281   3.283   3.542   3.605   3.611   3.821
  3.844   3.848   4.115   4.121   4.165   4.169   4.178   4.184
  4.228   4.320   4.400   4.511   4.555   4.579
 
 Beta MOs
 -- Occupied --
-89.082 -89.066 -89.066 -10.407 -10.405 -10.390 -10.389 -10.374
-10.373 -10.361 -10.360 -10.352 -10.351 -10.343 -10.342  -8.141
 -8.126  -8.125  -6.106  -6.102  -6.098  -6.090  -6.090  -6.086
 -6.086  -6.083  -6.082  -1.066  -1.042  -1.029  -0.941  -0.912
 -0.891  -0.891  -0.885  -0.838  -0.768  -0.743  -0.711  -0.698
 -0.685  -0.678  -0.673  -0.652  -0.604  -0.572  -0.568  -0.565
 -0.559  -0.549  -0.545  -0.538  -0.529  -0.527  -0.512  -0.509
 -0.493  -0.490  -0.438  -0.419  -0.402  -0.400  -0.379
 -- Virtual --
 -0.296  -0.211  -0.163  -0.137  -0.130  -0.119  -0.115  -0.112
 -0.104  -0.094  -0.089  -0.085  -0.082  -0.081  -0.077  -0.076
 -0.073  -0.067  -0.064  -0.063  -0.052  -0.044  -0.041  -0.034
 -0.031  -0.027  -0.022  -0.018  -0.008  -0.006   0.003   0.004
  0.005   0.007   0.014   0.018   0.020   0.027   0.029   0.032
  0.034   0.036   0.039   0.042   0.046   0.048   0.048   0.053
  0.054   0.057   0.063   0.066   0.068   0.072   0.073   0.081
  0.083   0.086   0.090   0.095   0.101   0.105   0.110   0.116
  0.120   0.122   0.123   0.129   0.131   0.140   0.148   0.150
  0.155   0.159   0.161   0.172   0.177   0.182   0.184   0.194
  0.207   0.210   0.214   0.232   0.235   0.240   0.243   0.249
  0.258   0.262   0.265   0.278   0.286   0.315   0.328   0.341
  0.365   0.371   0.381   0.383   0.395   0.431   0.439   0.464
  0.467   0.474   0.481   0.503   0.510   0.511   0.516   0.516
  0.519   0.524   0.530   0.543   0.571   0.571   0.576   0.587
  0.591   0.592   0.596   0.599   0.622   0.629   0.632   0.653
  0.657   0.664   0.675   0.680   0.693   0.695   0.717   0.733
  0.746   0.798   0.803   0.807   0.811   0.818   0.822   0.827
  0.833   0.841   0.846   0.856   0.862   0.870   0.882   0.895
  0.903   0.932   0.935   0.948   0.951   0.967   0.973   0.979
  0.983   1.026   1.033   1.038   1.049   1.054   1.100   1.115
  1.127   1.130   1.151   1.157   1.185   1.190   1.198   1.204
  1.208   1.220   1.223   1.241   1.275   1.295   1.307   1.318
  1.345   1.355   1.423   1.451   1.507   1.522   1.555   1.567
  1.572   1.678   1.696   1.711   1.726   1.759   1.770   1.786
  1.787   1.806   1.828   1.833   1.844   1.880   1.882   1.911
  1.927   1.932   1.953   1.986   2.023   2.039   2.046   2.055
  2.082   2.088   2.100   2.110   2.137   2.172   2.184   2.231
  2.234   2.277   2.302   2.304   2.321   2.326   2.331   2.352
  2.376   2.386   2.396   2.405   2.426   2.438   2.443   2.488
  2.494   2.528   2.548   2.572   2.577   2.590   2.698   2.717
  2.722   2.770   2.771   2.793   2.820   3.000   3.045   3.087
  3.149   3.150   3.193   3.282   3.284   3.543   3.606   3.613
  3.821   3.844   3.848   4.118   4.125   4.168   4.174   4.180
  4.186   4.233   4.324   4.404   4.514   4.558   4.582
 --------------------------------------------------------------
 
          Ground-State Mulliken Net Atomic Charges

     Atom                 Charge (a.u.)    Spin (a.u.)
  --------------------------------------------------------
      1 H                     0.245778      -0.011161
      2 H                     0.159183       0.001701
      3 C                     0.070618       0.219293
      4 C                    -0.287594      -0.041774
      5 S                    -0.001439      -0.026945
      6 C                     0.503576       0.140958
      7 H                     0.144129      -0.009065
      8 C                    -0.019728       0.030132
      9 H                     0.115987      -0.005750
     10 C                    -0.079623       0.181632
     11 C                    -0.348076       0.060302
     12 S                    -0.190013      -0.055123
     13 C                    -0.144209       0.031794
     14 H                     0.137909      -0.003967
     15 C                    -0.015406       0.186219
     16 C                    -0.146098       0.030022
     17 H                     0.142335      -0.009137
     18 C                     0.489042       0.138464
     19 S                     0.023099      -0.026385
     20 C                    -0.243375      -0.041288
     21 C                     0.042807       0.219743
     22 H                     0.160315       0.001818
     23 H                     0.240780      -0.011480
  --------------------------------------------------------
  Sum of atomic charges =     1.000000
  Sum of spin   charges =     1.000000

 -----------------------------------------------------------------
                    Cartesian Multipole Moments
 -----------------------------------------------------------------
    Charge (ESU x 10^10)
                 4.8032
    Dipole Moment (Debye)
         X      29.2275      Y      -2.6353      Z      -1.0582
       Tot      29.3651
    Quadrupole Moments (Debye-Ang)
        XX     162.4441     XY     -13.3180     YY     -88.2505
        XZ      -6.6897     YZ       6.1074     ZZ    -109.3209
    Octopole Moments (Debye-Ang^2)
       XXX     801.0227    XXY     -83.7918    XYY    -542.6520
       YYY     101.3289    XXZ     -45.0042    XYZ      39.2245
       YYZ       6.2606    XZZ    -663.7242    YZZ      42.3688
       ZZZ      54.2820
    Hexadecapole Moments (Debye-Ang^3)
      XXXX   -1081.3607   XXXY    -672.4050   XXYY   -4455.0268
      XYYY     531.2404   YYYY    -818.0265   XXXZ    -352.4006
      XXYZ     307.1373   XYYZ      32.8303   YYYZ     -69.7948
      XXZZ   -5320.6725   XYZZ     214.9835   YYZZ    -186.9707
      XZZZ     308.4498   YZZZ    -116.0240   ZZZZ    -204.0689
 -----------------------------------------------------------------
 Calculating analytic gradient of the SCF energy
 Gradient of SCF Energy
            1           2           3           4           5           6
    1   0.0029373   0.0013402  -0.0021994  -0.0026116  -0.0001812   0.0088074
    2  -0.0014138   0.0018257   0.0002066   0.0035549  -0.0148472   0.0031814
    3  -0.0006145   0.0004298  -0.0002867   0.0016850  -0.0027677   0.0019612
            7           8           9          10          11          12
    1  -0.0008740  -0.0265563   0.0036071   0.0328634  -0.0272086   0.0013542
    2   0.0028909   0.0390478  -0.0027634  -0.0444281  -0.0058212   0.0268034
    3  -0.0001626   0.0067496  -0.0002077  -0.0087390  -0.0024310   0.0051213
           13          14          15          16          17          18
    1   0.0215251  -0.0004366  -0.0217644   0.0209738   0.0005383  -0.0098323
    2  -0.0057847  -0.0024930  -0.0210736   0.0245438   0.0021978   0.0037614
    3  -0.0038791   0.0005701  -0.0029904   0.0088107   0.0018661  -0.0018744
           19          20          21          22          23
    1  -0.0008664   0.0021501   0.0009598  -0.0015273  -0.0029987
    2  -0.0131458   0.0037729  -0.0003312   0.0016285  -0.0013128
    3  -0.0048243   0.0004973   0.0007220   0.0007682  -0.0004038
 Max gradient component =       4.443E-02
 RMS gradient           =       1.219E-02
 Gradient time:  CPU 4.32 s  wall 4.19 s
 Geometry Optimization Parameters
   NAtoms,    NIC,     NZ,  NCons,   NDum,   NFix, NCnnct, MaxDiis
       23     166       0       1       0       0       0       0

 Cartesian Hessian Update
 Hessian Updated using BFGS Update


** CONSTRAINED OPTIMIZATION IN DELOCALIZED INTERNAL COORDINATES **
   Searching for a Minimum

   Optimization Cycle:   2

                       Coordinates (Angstroms)
     ATOM                X               Y               Z
      1  H        -0.0970514358   -0.2679341856   -0.0519969527
      2  H         0.7965389813   -2.6767844134   -0.6400539304
      3  C         0.9337314820   -0.5677011202   -0.1510337006
      4  C         1.4267104848   -1.8190276449   -0.4578183475
      5  S         2.1800487665    0.5883696243    0.0835489350
      6  C         2.8297286578   -1.8322516615   -0.5118046654
      7  H         3.4163447166   -2.7058340720   -0.7570808609
      8  C         3.4133517925   -0.5889396952   -0.2447250783
      9  H         4.6643518562    1.7324199076    0.2173092032
     10  C         4.8473211993   -0.4144867418   -0.2098055645
     11  C         5.3143627257    0.8875966948    0.0646011717
     12  S         6.1746196199   -1.4932802783   -0.3957542253
     13  C         6.7054988970    0.9800530545    0.1287924896
     14  H         7.2496262959    1.8872466199    0.3481077038
     15  C         7.3391903662   -0.2440990056   -0.0964158731
     16  C         8.7641853259   -0.3850768218   -0.1282169046
     17  H         8.8492211878   -2.4484870476   -0.8279808575
     18  C         9.3951793965   -1.5579007738   -0.5519266843
     19  S         9.9350746191    0.8330195559    0.2562834842
     20  C        10.7956433739   -1.4621231768   -0.5535635663
     21  C        11.2313458184   -0.2223751457   -0.1311643372
     22  H        11.4642719447   -2.2593209887   -0.8422222075
     23  H        12.2475839276    0.1221657159   -0.0280862714
   Point Group: c1    Number of degrees of freedom:    63


   Energy is  -1656.403676828

              Constraints and their Current Values
                                        Value     Constraint
   Dihedral:       13  15  16  18     -170.000     -170.000
 Hessian Updated using BFGS Update

 62 Hessian modes will be used to form the next step
  Hessian Eigenvalues:
     0.044965    0.045000    0.045000    0.045000    0.045000    0.045000
     0.045001    0.045001    0.045002    0.045002    0.045003    0.045005
     0.045011    0.045011    0.045012    0.045022    0.045032    0.045052
     0.045059    0.159026    0.159945    0.159947    0.159990    0.159993
     0.159993    0.160000    0.160352    0.190315    0.221308    0.222015
     0.229795    0.238050    0.239047    0.246398    0.249670    0.249674
     0.283603    0.323749    0.326549    0.327738    0.339173    0.340050
     0.340459    0.365173    0.365513    0.365520    0.366564    0.366889
     0.367355    0.369910    0.370100    0.399413    0.414632    0.434899
     0.435420    0.436736    0.462032    0.463150    0.470242    0.495157
     0.495500    0.573567

 Minimum Search - Taking Simple RFO Step
 Searching for Lamda that Minimizes Along All modes
 Value Taken    Lamda =  -0.02319335
 Calculated Step too Large.  Step scaled by  0.916584
 Step Taken.  Stepsize is  0.300000

                             Maximum     Tolerance    Cnvgd?
         Gradient           0.043293      0.000300      NO
         Displacement       0.176303      0.001200      NO
         Energy change     -0.032018      0.000001      NO


 New Cartesian Coordinates Obtained by Inverse Iteration

 Displacement from previous Coordinates is:  0.976932
 ----------------------------------------------------------------
             Standard Nuclear Orientation (Angstroms)
    I     Atom           X                Y                Z
 ----------------------------------------------------------------
    1      H      -0.0636177920    -0.3751721903    -0.0854380483
    2      H       0.9099476422    -2.7642552163    -0.6691833777
    3      C       0.9820167427    -0.6437790913    -0.1737419539
    4      C       1.5158002894    -1.8866368148    -0.4789846532
    5      S       2.1785837227     0.5679009636     0.0773876398
    6      C       2.9173038083    -1.8623657301    -0.5144116359
    7      H       3.5338057137    -2.7237151067    -0.7493853964
    8      C       3.4521852587    -0.5900117783    -0.2350837060
    9      H       4.6639992129     1.8928711103     0.2591498434
   10      C       4.8272874248    -0.2646427044    -0.1654564402
   11      C       5.3166421488     1.0392441834     0.1069366435
   12      S       6.1258949594    -1.4031310789    -0.3651943082
   13      C       6.6958535009     1.0978946244     0.1551796436
   14      H       7.2567311002     2.0019745051     0.3612821594
   15      C       7.3165270083    -0.1542121547    -0.0795826184
   16      C       8.7115200263    -0.4109720673    -0.1420058783
   17      H       8.7688373936    -2.4899155566    -0.8501407263
   18      C       9.3274275829    -1.6048492004    -0.5657550498
   19      S       9.9174101486     0.7967715399     0.2469164984
   20      C      10.7289649517    -1.5324660621    -0.5658564742
   21      C      11.1896162385    -0.2941257520    -0.1460614077
   22      H      11.3864456865    -2.3429308958    -0.8563904560
   23      H      12.2176972310     0.0317728732    -0.0451873374
 ----------------------------------------------------------------
 Nuclear Repulsion Energy =  1178.4998643558 hartrees
 There are       64 alpha and       63 beta electrons
 Applying Cartesian multipole field
    Component          Value
    ---------          -----
     (2,0,0)        1.00000E-12
     (0,2,0)        2.00000E-11
     (0,0,2)       -3.00000E-11
 Nucleus-field energy     =     0.0000000329 hartrees
 Requested basis set is 6-31++G(d,p)
 There are 110 shells and 345 basis functions
 A cutoff of  1.0D-12 yielded   4708 shell pairs
 There are     47961 function pairs

 Q-Chem warning in module /project/projectdirs/jcesr/qchem/qc44/cnl_qc441/compile/cori/qc_src/libqints/qchem/aobasis.C, line 68:

 Using reconstructed effective core potential

 Smallest overlap matrix eigenvalue = 5.88E-08
 Linear dependence detected in AO basis
 Number of orthogonalized atomic orbitals = 342
 Maximum deviation from orthogonality = 7.531E-11
 Guess MOs from SCF MO coefficient file
 Reading MOs from coefficient file
 Reading MOs from coefficient file
 An unrestricted hybrid HF-DFT SCF calculation will be
 performed using Pulay DIIS extrapolation
 Exchange:     0.2000 Hartree-Fock + 0.0800 Slater + 0.7200 B88
 Correlation:  0.1900 VWN1RPA + 0.8100 LYP
 Using SG-1 standard quadrature grid
 SCF converges when DIIS error is below 1.0E-08
 Geometry optimization detected.  Setting ReadMinima to 0
 Setting SaveMinima to 0
 ---------------------------------------
  Cycle       Energy         DIIS Error
 ---------------------------------------
    1   -1656.3000193115      2.78E-03
    2   -1656.4109929386      5.34E-04
    3   -1656.3993659529      9.76E-04
    4   -1656.4160399382      1.41E-04
    5   -1656.4163382211      4.95E-05
    6   -1656.4163772820      1.60E-05
    7   -1656.4163812651      7.82E-06
    8   -1656.4163824088      1.58E-06
    9   -1656.4163825301      1.03E-06
   10   -1656.4163825797      4.02E-07
   11   -1656.4163826122      2.15E-07
   12   -1656.4163826292      1.00E-07
   13   -1656.4163826360      5.58E-08
   14   -1656.4163826382      2.92E-08
   15   -1656.4163826382      1.60E-08
   16   -1656.4163826385      8.39E-09 Convergence criterion met
 ---------------------------------------
 <S^2> = 0.7705
 SCF time:  CPU 22.70 s  wall 20.99 s
 SCF   energy in the final basis set = -1656.4163826385
 Total energy in the final basis set = -1656.4163826385
 
 --------------------------------------------------------------
 
                    Orbital Energies (a.u.)
 --------------------------------------------------------------
 
 Alpha MOs
 -- Occupied --
-89.077 -89.066 -89.065 -10.409 -10.408 -10.389 -10.389 -10.378
-10.377 -10.365 -10.365 -10.357 -10.357 -10.345 -10.344  -8.136
 -8.125  -8.124  -6.101  -6.097  -6.093  -6.089  -6.088  -6.085
 -6.084  -6.082  -6.081  -1.066  -1.042  -1.027  -0.944  -0.916
 -0.894  -0.892  -0.884  -0.840  -0.771  -0.748  -0.713  -0.702
 -0.687  -0.678  -0.674  -0.647  -0.605  -0.574  -0.572  -0.570
 -0.557  -0.551  -0.547  -0.545  -0.535  -0.525  -0.519  -0.511
 -0.494  -0.492  -0.456  -0.424  -0.406  -0.404  -0.396  -0.345
 -- Virtual --
 -0.231  -0.177  -0.141  -0.135  -0.129  -0.121  -0.113  -0.101
 -0.099  -0.095  -0.087  -0.082  -0.082  -0.080  -0.077  -0.075
 -0.069  -0.064  -0.064  -0.053  -0.045  -0.041  -0.033  -0.031
 -0.024  -0.023  -0.017  -0.009  -0.007   0.001   0.003   0.004
  0.006   0.013   0.018   0.020   0.025   0.027   0.029   0.034
  0.034   0.037   0.044   0.045   0.047   0.048   0.054   0.055
  0.056   0.061   0.064   0.067   0.071   0.074   0.080   0.081
  0.086   0.089   0.093   0.101   0.103   0.106   0.115   0.120
  0.121   0.123   0.127   0.130   0.133   0.141   0.150   0.152
  0.157   0.158   0.170   0.174   0.178   0.186   0.193   0.206
  0.207   0.209   0.231   0.231   0.235   0.240   0.248   0.259
  0.260   0.263   0.269   0.285   0.319   0.334   0.343   0.371
  0.373   0.382   0.384   0.392   0.438   0.446   0.455   0.457
  0.470   0.480   0.502   0.505   0.507   0.510   0.512   0.513
  0.519   0.524   0.542   0.567   0.570   0.571   0.585   0.587
  0.588   0.593   0.599   0.617   0.622   0.624   0.650   0.651
  0.669   0.681   0.691   0.695   0.697   0.713   0.734   0.746
  0.790   0.796   0.802   0.814   0.817   0.818   0.819   0.829
  0.840   0.845   0.851   0.854   0.869   0.878   0.892   0.902
  0.926   0.931   0.942   0.948   0.962   0.968   0.972   0.985
  1.018   1.028   1.040   1.048   1.061   1.093   1.107   1.115
  1.130   1.142   1.147   1.177   1.186   1.194   1.201   1.202
  1.215   1.216   1.232   1.310   1.313   1.324   1.327   1.349
  1.365   1.418   1.455   1.512   1.522   1.545   1.557   1.564
  1.671   1.693   1.711   1.712   1.741   1.768   1.781   1.785
  1.793   1.802   1.809   1.835   1.875   1.878   1.904   1.916
  1.924   1.954   1.968   2.023   2.027   2.032   2.049   2.058
  2.081   2.089   2.115   2.121   2.153   2.180   2.226   2.228
  2.278   2.285   2.293   2.312   2.317   2.318   2.343   2.366
  2.376   2.389   2.396   2.399   2.428   2.441   2.474   2.483
  2.522   2.550   2.564   2.571   2.584   2.699   2.724   2.731
  2.771   2.778   2.794   2.803   2.985   3.036   3.080   3.140
  3.141   3.174   3.271   3.272   3.533   3.593   3.603   3.825
  3.838   3.846   4.118   4.126   4.165   4.174   4.176   4.181
  4.235   4.324   4.397   4.513   4.554   4.581
 
 Beta MOs
 -- Occupied --
-89.077 -89.066 -89.065 -10.407 -10.405 -10.389 -10.389 -10.375
-10.374 -10.365 -10.364 -10.355 -10.355 -10.345 -10.344  -8.136
 -8.125  -8.124  -6.101  -6.097  -6.093  -6.089  -6.088  -6.086
 -6.084  -6.082  -6.081  -1.062  -1.038  -1.024  -0.939  -0.914
 -0.892  -0.891  -0.880  -0.833  -0.768  -0.745  -0.710  -0.699
 -0.686  -0.676  -0.672  -0.645  -0.603  -0.571  -0.568  -0.563
 -0.555  -0.549  -0.546  -0.536  -0.534  -0.524  -0.510  -0.508
 -0.494  -0.491  -0.437  -0.421  -0.403  -0.400  -0.378
 -- Virtual --
 -0.292  -0.215  -0.166  -0.139  -0.130  -0.122  -0.120  -0.112
 -0.099  -0.095  -0.091  -0.087  -0.081  -0.076  -0.075  -0.073
 -0.071  -0.068  -0.064  -0.063  -0.052  -0.044  -0.041  -0.033
 -0.030  -0.023  -0.022  -0.016  -0.008  -0.007   0.003   0.004
  0.004   0.006   0.013   0.018   0.021   0.026   0.028   0.030
  0.034   0.034   0.038   0.044   0.046   0.048   0.049   0.054
  0.055   0.057   0.063   0.065   0.068   0.072   0.075   0.081
  0.082   0.086   0.090   0.094   0.103   0.104   0.107   0.116
  0.121   0.121   0.123   0.128   0.132   0.135   0.144   0.151
  0.153   0.158   0.159   0.171   0.175   0.178   0.186   0.195
  0.207   0.209   0.210   0.232   0.232   0.237   0.241   0.248
  0.260   0.261   0.264   0.271   0.285   0.321   0.334   0.344
  0.371   0.374   0.382   0.384   0.394   0.439   0.447   0.457
  0.459   0.471   0.481   0.507   0.508   0.509   0.514   0.516
  0.518   0.523   0.531   0.542   0.568   0.571   0.574   0.588
  0.588   0.591   0.593   0.603   0.623   0.625   0.630   0.651
  0.652   0.672   0.685   0.696   0.697   0.698   0.717   0.735
  0.747   0.794   0.797   0.803   0.816   0.818   0.820   0.823
  0.831   0.841   0.845   0.852   0.856   0.870   0.879   0.893
  0.903   0.927   0.932   0.943   0.949   0.963   0.969   0.973
  0.987   1.019   1.031   1.043   1.051   1.065   1.095   1.111
  1.118   1.135   1.147   1.150   1.179   1.190   1.196   1.204
  1.205   1.220   1.222   1.235   1.313   1.319   1.328   1.331
  1.352   1.368   1.420   1.457   1.519   1.529   1.549   1.566
  1.572   1.677   1.695   1.711   1.715   1.743   1.769   1.785
  1.788   1.794   1.807   1.815   1.838   1.879   1.882   1.910
  1.919   1.927   1.957   1.974   2.030   2.034   2.039   2.053
  2.061   2.087   2.094   2.120   2.126   2.161   2.185   2.229
  2.230   2.284   2.288   2.295   2.316   2.321   2.323   2.345
  2.368   2.381   2.392   2.397   2.402   2.431   2.444   2.476
  2.487   2.526   2.551   2.567   2.574   2.585   2.701   2.727
  2.733   2.774   2.781   2.795   2.806   2.986   3.037   3.081
  3.140   3.141   3.175   3.272   3.273   3.534   3.594   3.604
  3.825   3.838   3.846   4.121   4.130   4.168   4.177   4.180
  4.183   4.240   4.328   4.402   4.516   4.557   4.584
 --------------------------------------------------------------
 
          Ground-State Mulliken Net Atomic Charges

     Atom                 Charge (a.u.)    Spin (a.u.)
  --------------------------------------------------------
      1 H                     0.241688      -0.011460
      2 H                     0.161988       0.001712
      3 C                     0.053994       0.223336
      4 C                    -0.235194      -0.041090
      5 S                    -0.016327      -0.023001
      6 C                     0.542198       0.144281
      7 H                     0.150838      -0.009205
      8 C                    -0.134881       0.021475
      9 H                     0.138705      -0.005412
     10 C                    -0.120437       0.179381
     11 C                    -0.147940       0.055558
     12 S                    -0.375670      -0.062561
     13 C                    -0.016148       0.042070
     14 H                     0.147573      -0.004437
     15 C                    -0.089308       0.188358
     16 C                    -0.228146       0.020485
     17 H                     0.150812      -0.009237
     18 C                     0.565523       0.142194
     19 S                     0.004518      -0.022096
     20 C                    -0.235050      -0.040558
     21 C                     0.040431       0.219969
     22 H                     0.161540       0.001766
     23 H                     0.239293      -0.011527
  --------------------------------------------------------
  Sum of atomic charges =     1.000000
  Sum of spin   charges =     1.000000

 -----------------------------------------------------------------
                    Cartesian Multipole Moments
 -----------------------------------------------------------------
    Charge (ESU x 10^10)
                 4.8032
    Dipole Moment (Debye)
         X      29.1254      Y      -2.6140      Z      -1.0701
       Tot      29.2621
    Quadrupole Moments (Debye-Ang)
        XX     159.2231     XY     -13.3829     YY     -86.9941
        XZ      -6.7366     YZ       6.4172     ZZ    -109.4660
    Octopole Moments (Debye-Ang^2)
       XXX     756.6404    XXY     -91.2327    XYY    -535.0831
       YYY      97.7600    XXZ     -46.7565    XYZ      41.0795
       YYZ       5.3497    XZZ    -663.9307    YZZ      41.4011
       ZZZ      53.2989
    Hexadecapole Moments (Debye-Ang^3)
      XXXX   -1508.4573   XXXY    -795.6293   XXYY   -4382.6391
      XYYY     515.8697   YYYY    -825.5859   XXXZ    -376.9464
      XXYZ     319.4354   XYYZ      27.2253   YYYZ     -67.2725
      XXZZ   -5293.7385   XYZZ     211.1064   YYZZ    -190.4697
      XZZZ     303.5171   YZZZ    -117.9168   ZZZZ    -204.8089
 -----------------------------------------------------------------
 Calculating analytic gradient of the SCF energy
 Gradient of SCF Energy
            1           2           3           4           5           6
    1  -0.0001290   0.0000860   0.0021977  -0.0003193   0.0035718   0.0020971
    2   0.0006722  -0.0002821  -0.0010564  -0.0012485  -0.0002830  -0.0028668
    3  -0.0000225  -0.0000223  -0.0002843   0.0000161   0.0003511   0.0004421
            7           8           9          10          11          12
    1   0.0004387  -0.0070795  -0.0009511   0.0108863  -0.0044956  -0.0004692
    2  -0.0002083   0.0165608   0.0010381  -0.0171088   0.0031305   0.0038491
    3  -0.0007383   0.0023125   0.0002785  -0.0031421   0.0001372   0.0006258
           13          14          15          16          17          18
    1   0.0003840  -0.0004878  -0.0081337   0.0058004  -0.0002416  -0.0013445
    2   0.0021221   0.0000460  -0.0082530   0.0094170  -0.0003961  -0.0015173
    3  -0.0021796   0.0008487   0.0004102   0.0047489   0.0007624  -0.0032632
           19          20          21          22          23
    1  -0.0029544   0.0009897  -0.0002984   0.0001772   0.0002753
    2  -0.0022264  -0.0006330  -0.0009778  -0.0001545   0.0003762
    3  -0.0008290  -0.0006789   0.0001193   0.0000190   0.0000885
 Max gradient component =       1.711E-02
 RMS gradient           =       4.093E-03
 Gradient time:  CPU 4.35 s  wall 4.22 s
 Geometry Optimization Parameters
   NAtoms,    NIC,     NZ,  NCons,   NDum,   NFix, NCnnct, MaxDiis
       23     166       0       1       0       0       0       0

 Cartesian Hessian Update
 Hessian Updated using BFGS Update


** CONSTRAINED OPTIMIZATION IN DELOCALIZED INTERNAL COORDINATES **
   Searching for a Minimum

   Optimization Cycle:   3

                       Coordinates (Angstroms)
     ATOM                X               Y               Z
      1  H        -0.0636177920   -0.3751721903   -0.0854380483
      2  H         0.9099476422   -2.7642552163   -0.6691833777
      3  C         0.9820167427   -0.6437790913   -0.1737419539
      4  C         1.5158002894   -1.8866368148   -0.4789846532
      5  S         2.1785837227    0.5679009636    0.0773876398
      6  C         2.9173038083   -1.8623657301   -0.5144116359
      7  H         3.5338057137   -2.7237151067   -0.7493853964
      8  C         3.4521852587   -0.5900117783   -0.2350837060
      9  H         4.6639992129    1.8928711103    0.2591498434
     10  C         4.8272874248   -0.2646427044   -0.1654564402
     11  C         5.3166421488    1.0392441834    0.1069366435
     12  S         6.1258949594   -1.4031310789   -0.3651943082
     13  C         6.6958535009    1.0978946244    0.1551796436
     14  H         7.2567311002    2.0019745051    0.3612821594
     15  C         7.3165270083   -0.1542121547   -0.0795826184
     16  C         8.7115200263   -0.4109720673   -0.1420058783
     17  H         8.7688373936   -2.4899155566   -0.8501407263
     18  C         9.3274275829   -1.6048492004   -0.5657550498
     19  S         9.9174101486    0.7967715399    0.2469164984
     20  C        10.7289649517   -1.5324660621   -0.5658564742
     21  C        11.1896162385   -0.2941257520   -0.1460614077
     22  H        11.3864456865   -2.3429308958   -0.8563904560
     23  H        12.2176972310    0.0317728732   -0.0451873374
   Point Group: c1    Number of degrees of freedom:    63


   Energy is  -1656.416382638

              Constraints and their Current Values
                                        Value     Constraint
   Dihedral:       13  15  16  18     -170.000     -170.000
 Hessian Updated using BFGS Update

 62 Hessian modes will be used to form the next step
  Hessian Eigenvalues:
     0.044750    0.045000    0.045000    0.045000    0.045000    0.045000
     0.045001    0.045001    0.045002    0.045003    0.045004    0.045008
     0.045011    0.045012    0.045014    0.045020    0.045031    0.045048
     0.045059    0.155252    0.159945    0.159964    0.159992    0.159993
     0.160000    0.160063    0.160424    0.170582    0.221309    0.223583
     0.229827    0.238482    0.240272    0.249254    0.249672    0.261578
     0.278733    0.322389    0.326557    0.327965    0.338804    0.340058
     0.341769    0.365512    0.365516    0.365839    0.366889    0.367268
     0.367813    0.370099    0.370869    0.399256    0.422842    0.435388
     0.435681    0.442568    0.463137    0.465375    0.480966    0.495497
     0.497257    0.572034

 Minimum Search - Taking Simple RFO Step
 Searching for Lamda that Minimizes Along All modes
 Value Taken    Lamda =  -0.00276270
 Step Taken.  Stepsize is  0.131623

                             Maximum     Tolerance    Cnvgd?
         Gradient           0.010221      0.000300      NO
         Displacement       0.065049      0.001200      NO
         Energy change     -0.012706      0.000001      NO


 New Cartesian Coordinates Obtained by Inverse Iteration

 Displacement from previous Coordinates is:  0.290149
 ----------------------------------------------------------------
             Standard Nuclear Orientation (Angstroms)
    I     Atom           X                Y                Z
 ----------------------------------------------------------------
    1      H      -0.0909551581    -0.4124997241    -0.1191676979
    2      H       0.9207814732    -2.7845896910    -0.6834920537
    3      C       0.9592859884    -0.6664224371    -0.1935023925
    4      C       1.5159930668    -1.9010812400    -0.4882272652
    5      S       2.1462206095     0.5503591943     0.0660577595
    6      C       2.9188736301    -1.8687505095    -0.5044470509
    7      H       3.5395490184    -2.7301234281    -0.7249289746
    8      C       3.4487235655    -0.5969561555    -0.2213592244
    9      H       4.6881616216     1.9377055611     0.2806546763
   10      C       4.8076501691    -0.2154467291    -0.1362639316
   11      C       5.3283375467     1.0760368081     0.1290495285
   12      S       6.1079450715    -1.3679918533    -0.3421529237
   13      C       6.7099859813     1.1206785700     0.1631805806
   14      H       7.2812347606     2.0220748195     0.3532648700
   15      C       7.3270294774    -0.1324325907    -0.0750753906
   16      C       8.7096949462    -0.4247708262    -0.1507627961
   17      H       8.7709622462    -2.4988450794    -0.8664469415
   18      C       9.3272596406    -1.6156601274    -0.5724545807
   19      S       9.9273480665     0.7848188021     0.2416047750
   20      C      10.7278824567    -1.5429331837    -0.5696360142
   21      C      11.1961032384    -0.3067798125    -0.1518448913
   22      H      11.3828811260    -2.3542457044    -0.8625091470
   23      H      12.2259314575     0.0131037370    -0.0525479542
 ----------------------------------------------------------------
 Nuclear Repulsion Energy =  1176.5737283519 hartrees
 There are       64 alpha and       63 beta electrons
 Applying Cartesian multipole field
    Component          Value
    ---------          -----
     (2,0,0)        1.00000E-12
     (0,2,0)        2.00000E-11
     (0,0,2)       -3.00000E-11
 Nucleus-field energy     =     0.0000000329 hartrees
 Requested basis set is 6-31++G(d,p)
 There are 110 shells and 345 basis functions
 A cutoff of  1.0D-12 yielded   4702 shell pairs
 There are     47914 function pairs

 Q-Chem warning in module /project/projectdirs/jcesr/qchem/qc44/cnl_qc441/compile/cori/qc_src/libqints/qchem/aobasis.C, line 68:

 Using reconstructed effective core potential

 Smallest overlap matrix eigenvalue = 5.15E-08
 Linear dependence detected in AO basis
 Number of orthogonalized atomic orbitals = 342
 Maximum deviation from orthogonality = 6.523E-11
 Guess MOs from SCF MO coefficient file
 Reading MOs from coefficient file
 Reading MOs from coefficient file
 An unrestricted hybrid HF-DFT SCF calculation will be
 performed using Pulay DIIS extrapolation
 Exchange:     0.2000 Hartree-Fock + 0.0800 Slater + 0.7200 B88
 Correlation:  0.1900 VWN1RPA + 0.8100 LYP
 Using SG-1 standard quadrature grid
 SCF converges when DIIS error is below 1.0E-08
 Geometry optimization detected.  Setting ReadMinima to 0
 Setting SaveMinima to 0
 ---------------------------------------
  Cycle       Energy         DIIS Error
 ---------------------------------------
    1   -1656.3724109604      9.98E-04
    2   -1656.4166255096      2.41E-04
    3   -1656.4140474276      4.48E-04
    4   -1656.4177229535      7.53E-05
    5   -1656.4178115583      1.89E-05
    6   -1656.4178175747      6.40E-06
    7   -1656.4178182295      3.44E-06
    8   -1656.4178184731      7.47E-07
    9   -1656.4178185225      6.63E-07
   10   -1656.4178185481      2.22E-07
   11   -1656.4178185641      1.18E-07
   12   -1656.4178185728      6.93E-08
   13   -1656.4178185753      2.93E-08
   14   -1656.4178185754      1.03E-08
   15   -1656.4178185766      5.79E-09 Convergence criterion met
 ---------------------------------------
 <S^2> = 0.7696
 SCF time:  CPU 20.68 s  wall 19.26 s
 SCF   energy in the final basis set = -1656.4178185766
 Total energy in the final basis set = -1656.4178185766
 
 --------------------------------------------------------------
 
                    Orbital Energies (a.u.)
 --------------------------------------------------------------
 
 Alpha MOs
 -- Occupied --
-89.074 -89.065 -89.065 -10.410 -10.410 -10.390 -10.390 -10.378
-10.378 -10.367 -10.366 -10.358 -10.358 -10.345 -10.345  -8.133
 -8.124  -8.124  -6.098  -6.094  -6.089  -6.088  -6.088  -6.084
 -6.084  -6.081  -6.081  -1.064  -1.041  -1.027  -0.945  -0.915
 -0.893  -0.892  -0.883  -0.842  -0.772  -0.750  -0.713  -0.703
 -0.687  -0.678  -0.674  -0.647  -0.606  -0.573  -0.572  -0.571
 -0.560  -0.551  -0.548  -0.545  -0.536  -0.523  -0.519  -0.508
 -0.492  -0.489  -0.456  -0.422  -0.406  -0.404  -0.396  -0.346
 -- Virtual --
 -0.232  -0.179  -0.139  -0.135  -0.129  -0.121  -0.112  -0.102
 -0.100  -0.095  -0.087  -0.082  -0.079  -0.079  -0.077  -0.076
 -0.069  -0.064  -0.063  -0.053  -0.045  -0.042  -0.034  -0.030
 -0.024  -0.023  -0.017  -0.008  -0.007   0.001   0.003   0.003
  0.006   0.012   0.018   0.020   0.025   0.027   0.029   0.033
  0.034   0.037   0.044   0.045   0.047   0.048   0.053   0.055
  0.056   0.061   0.064   0.067   0.071   0.072   0.081   0.082
  0.086   0.089   0.093   0.101   0.103   0.106   0.113   0.119
  0.120   0.123   0.128   0.129   0.131   0.140   0.151   0.151
  0.156   0.158   0.171   0.173   0.178   0.186   0.194   0.204
  0.207   0.208   0.229   0.231   0.235   0.240   0.250   0.259
  0.262   0.264   0.269   0.285   0.320   0.335   0.346   0.372
  0.374   0.383   0.385   0.391   0.439   0.447   0.453   0.454
  0.468   0.483   0.503   0.505   0.506   0.510   0.511   0.513
  0.519   0.524   0.543   0.564   0.569   0.571   0.585   0.586
  0.588   0.592   0.600   0.617   0.621   0.624   0.650   0.650
  0.671   0.682   0.690   0.695   0.696   0.714   0.733   0.746
  0.789   0.795   0.799   0.813   0.817   0.818   0.821   0.828
  0.843   0.845   0.851   0.853   0.868   0.878   0.892   0.903
  0.921   0.932   0.942   0.948   0.964   0.968   0.971   0.986
  1.014   1.026   1.040   1.048   1.060   1.090   1.103   1.112
  1.125   1.139   1.147   1.176   1.185   1.195   1.199   1.201
  1.214   1.215   1.228   1.321   1.324   1.327   1.338   1.350
  1.366   1.419   1.457   1.516   1.525   1.540   1.559   1.566
  1.668   1.690   1.709   1.711   1.736   1.767   1.770   1.784
  1.793   1.794   1.796   1.833   1.872   1.882   1.899   1.918
  1.923   1.956   1.962   2.020   2.028   2.031   2.046   2.049
  2.078   2.089   2.113   2.122   2.150   2.186   2.227   2.228
  2.283   2.284   2.290   2.308   2.314   2.322   2.342   2.362
  2.378   2.385   2.397   2.399   2.427   2.445   2.470   2.487
  2.522   2.552   2.564   2.573   2.583   2.691   2.725   2.741
  2.784   2.791   2.794   2.804   2.985   3.039   3.081   3.142
  3.142   3.175   3.272   3.272   3.529   3.592   3.603   3.827
  3.837   3.845   4.118   4.127   4.162   4.174   4.179   4.180
  4.237   4.327   4.395   4.512   4.554   4.581
 
 Beta MOs
 -- Occupied --
-89.074 -89.065 -89.065 -10.407 -10.407 -10.390 -10.390 -10.375
-10.375 -10.366 -10.365 -10.356 -10.356 -10.345 -10.345  -8.133
 -8.124  -8.124  -6.098  -6.094  -6.090  -6.088  -6.088  -6.084
 -6.084  -6.081  -6.081  -1.060  -1.038  -1.023  -0.939  -0.913
 -0.891  -0.891  -0.880  -0.835  -0.769  -0.746  -0.710  -0.701
 -0.685  -0.676  -0.672  -0.645  -0.605  -0.570  -0.570  -0.562
 -0.558  -0.550  -0.546  -0.536  -0.535  -0.522  -0.508  -0.508
 -0.491  -0.489  -0.438  -0.419  -0.402  -0.400  -0.379
 -- Virtual --
 -0.293  -0.216  -0.167  -0.138  -0.130  -0.122  -0.120  -0.112
 -0.099  -0.095  -0.092  -0.086  -0.081  -0.077  -0.075  -0.071
 -0.069  -0.069  -0.064  -0.063  -0.052  -0.044  -0.041  -0.033
 -0.029  -0.023  -0.022  -0.016  -0.008  -0.007   0.003   0.004
  0.004   0.006   0.013   0.018   0.021   0.026   0.028   0.029
  0.034   0.034   0.038   0.045   0.046   0.048   0.049   0.054
  0.055   0.057   0.063   0.064   0.068   0.072   0.074   0.082
  0.083   0.087   0.090   0.094   0.103   0.103   0.107   0.114
  0.120   0.121   0.124   0.128   0.131   0.133   0.142   0.152
  0.152   0.157   0.159   0.171   0.174   0.179   0.187   0.196
  0.205   0.209   0.209   0.230   0.232   0.236   0.241   0.251
  0.260   0.263   0.265   0.271   0.286   0.321   0.336   0.347
  0.371   0.374   0.383   0.385   0.393   0.440   0.448   0.454
  0.456   0.469   0.483   0.505   0.507   0.510   0.513   0.516
  0.518   0.523   0.531   0.543   0.565   0.570   0.574   0.587
  0.588   0.590   0.593   0.603   0.622   0.624   0.630   0.651
  0.651   0.674   0.686   0.695   0.697   0.697   0.717   0.734
  0.746   0.793   0.796   0.800   0.815   0.819   0.822   0.823
  0.830   0.844   0.846   0.852   0.855   0.869   0.879   0.893
  0.904   0.922   0.933   0.943   0.949   0.965   0.969   0.972
  0.987   1.015   1.029   1.042   1.051   1.064   1.093   1.107
  1.115   1.129   1.145   1.149   1.178   1.190   1.197   1.202
  1.204   1.219   1.221   1.231   1.324   1.328   1.333   1.341
  1.353   1.369   1.421   1.459   1.523   1.533   1.544   1.567
  1.574   1.673   1.692   1.710   1.715   1.738   1.768   1.775
  1.786   1.795   1.797   1.801   1.835   1.875   1.886   1.904
  1.921   1.925   1.959   1.968   2.025   2.034   2.037   2.049
  2.053   2.084   2.094   2.116   2.127   2.157   2.191   2.229
  2.230   2.286   2.287   2.295   2.309   2.319   2.327   2.344
  2.364   2.382   2.387   2.400   2.402   2.429   2.448   2.473
  2.491   2.525   2.554   2.568   2.576   2.585   2.693   2.728
  2.743   2.787   2.794   2.795   2.806   2.986   3.040   3.082
  3.142   3.142   3.175   3.273   3.274   3.530   3.593   3.604
  3.827   3.837   3.845   4.121   4.131   4.165   4.176   4.181
  4.185   4.242   4.330   4.400   4.515   4.556   4.584
 --------------------------------------------------------------
 
          Ground-State Mulliken Net Atomic Charges

     Atom                 Charge (a.u.)    Spin (a.u.)
  --------------------------------------------------------
      1 H                     0.242381      -0.011203
      2 H                     0.162233       0.001494
      3 C                     0.067644       0.218112
      4 C                    -0.243311      -0.036980
      5 S                    -0.022721      -0.019940
      6 C                     0.587538       0.138020
      7 H                     0.152571      -0.008881
      8 C                    -0.212754       0.023187
      9 H                     0.145361      -0.005212
     10 C                    -0.125095       0.180975
     11 C                    -0.059278       0.053456
     12 S                    -0.425869      -0.063895
     13 C                     0.012864       0.049495
     14 H                     0.149471      -0.004866
     15 C                    -0.129446       0.183193
     16 C                    -0.248115       0.023758
     17 H                     0.155068      -0.008862
     18 C                     0.598738       0.136906
     19 S                    -0.004722      -0.019266
     20 C                    -0.255445      -0.036877
     21 C                     0.051512       0.217211
     22 H                     0.161390       0.001511
     23 H                     0.239983      -0.011337
  --------------------------------------------------------
  Sum of atomic charges =     1.000000
  Sum of spin   charges =     1.000000

 -----------------------------------------------------------------
                    Cartesian Multipole Moments
 -----------------------------------------------------------------
    Charge (ESU x 10^10)
                 4.8032
    Dipole Moment (Debye)
         X      29.1943      Y      -2.6032      Z      -1.0926
       Tot      29.3304
    Quadrupole Moments (Debye-Ang)
        XX     160.9402     XY     -13.2052     YY     -87.0016
        XZ      -6.8052     YZ       6.3921     ZZ    -109.5253
    Octopole Moments (Debye-Ang^2)
       XXX     781.2380    XXY     -92.1983    XYY    -534.4191
       YYY      97.3379    XXZ     -48.8007    XYZ      41.0455
       YYZ       5.0905    XZZ    -663.5681    YZZ      41.1954
       ZZZ      52.5969
    Hexadecapole Moments (Debye-Ang^3)
      XXXX   -1219.7539   XXXY    -828.6724   XXYY   -4379.8690
      XYYY     511.0009   YYYY    -825.3349   XXXZ    -405.9710
      XXYZ     320.8374   XYYZ      25.0138   YYYZ     -66.2119
      XXZZ   -5292.5631   XYZZ     208.6894   YYZZ    -190.7148
      XZZZ     298.4217   YZZZ    -117.3519   ZZZZ    -204.0057
 -----------------------------------------------------------------
 Calculating analytic gradient of the SCF energy
 Gradient of SCF Energy
            1           2           3           4           5           6
    1  -0.0002766  -0.0002537  -0.0015470  -0.0004906   0.0019731   0.0002949
    2   0.0003139   0.0002462  -0.0011097   0.0005144  -0.0018316  -0.0012934
    3  -0.0000269   0.0001053  -0.0000091   0.0001248  -0.0003221   0.0004165
            7           8           9          10          11          12
    1   0.0002784   0.0011067  -0.0008042  -0.0002209   0.0007384  -0.0016717
    2   0.0002739   0.0038405  -0.0002823  -0.0039127   0.0016146   0.0026090
    3  -0.0004035   0.0000120  -0.0001568  -0.0005269   0.0001797   0.0004375
           13          14          15          16          17          18
    1  -0.0011715   0.0003331   0.0019314  -0.0001289  -0.0000985   0.0002683
    2   0.0011576  -0.0003019  -0.0014138   0.0012741  -0.0001996  -0.0004664
    3  -0.0017235   0.0004625   0.0016375   0.0020733   0.0004593  -0.0023642
           19          20          21          22          23
    1  -0.0015121  -0.0002356   0.0012358   0.0001061   0.0001453
    2  -0.0011304   0.0004667  -0.0007948   0.0001392   0.0002865
    3  -0.0004095   0.0000871  -0.0001233   0.0000289   0.0000415
 Max gradient component =       3.913E-03
 RMS gradient           =       1.157E-03
 Gradient time:  CPU 4.30 s  wall 4.19 s
 Geometry Optimization Parameters
   NAtoms,    NIC,     NZ,  NCons,   NDum,   NFix, NCnnct, MaxDiis
       23     166       0       1       0       0       0       0

 Cartesian Hessian Update
 Hessian Updated using BFGS Update


** CONSTRAINED OPTIMIZATION IN DELOCALIZED INTERNAL COORDINATES **
   Searching for a Minimum

   Optimization Cycle:   4

                       Coordinates (Angstroms)
     ATOM                X               Y               Z
      1  H        -0.0909551581   -0.4124997241   -0.1191676979
      2  H         0.9207814732   -2.7845896910   -0.6834920537
      3  C         0.9592859884   -0.6664224371   -0.1935023925
      4  C         1.5159930668   -1.9010812400   -0.4882272652
      5  S         2.1462206095    0.5503591943    0.0660577595
      6  C         2.9188736301   -1.8687505095   -0.5044470509
      7  H         3.5395490184   -2.7301234281   -0.7249289746
      8  C         3.4487235655   -0.5969561555   -0.2213592244
      9  H         4.6881616216    1.9377055611    0.2806546763
     10  C         4.8076501691   -0.2154467291   -0.1362639316
     11  C         5.3283375467    1.0760368081    0.1290495285
     12  S         6.1079450715   -1.3679918533   -0.3421529237
     13  C         6.7099859813    1.1206785700    0.1631805806
     14  H         7.2812347606    2.0220748195    0.3532648700
     15  C         7.3270294774   -0.1324325907   -0.0750753906
     16  C         8.7096949462   -0.4247708262   -0.1507627961
     17  H         8.7709622462   -2.4988450794   -0.8664469415
     18  C         9.3272596406   -1.6156601274   -0.5724545807
     19  S         9.9273480665    0.7848188021    0.2416047750
     20  C        10.7278824567   -1.5429331837   -0.5696360142
     21  C        11.1961032384   -0.3067798125   -0.1518448913
     22  H        11.3828811260   -2.3542457044   -0.8625091470
     23  H        12.2259314575    0.0131037370   -0.0525479542
   Point Group: c1    Number of degrees of freedom:    63


   Energy is  -1656.417818577

              Constraints and their Current Values
                                        Value     Constraint
   Dihedral:       13  15  16  18     -170.000     -170.000
 Hessian Updated using BFGS Update

 62 Hessian modes will be used to form the next step
  Hessian Eigenvalues:
     0.042804    0.045000    0.045000    0.045000    0.045000    0.045001
     0.045001    0.045002    0.045002    0.045003    0.045004    0.045009
     0.045011    0.045012    0.045019    0.045027    0.045046    0.045058
     0.045061    0.151233    0.159949    0.159973    0.159991    0.159999
     0.160006    0.160358    0.162102    0.166710    0.221323    0.223793
     0.229493    0.238439    0.241401    0.249667    0.250303    0.267893
     0.284686    0.321266    0.326573    0.327586    0.339474    0.340204
     0.341367    0.365513    0.365526    0.365829    0.366889    0.367256
     0.367905    0.370110    0.370626    0.399403    0.418853    0.435476
     0.435625    0.445740    0.463267    0.464004    0.478545    0.495506
     0.497860    0.575875

 Minimum Search - Taking Simple RFO Step
 Searching for Lamda that Minimizes Along All modes
 Value Taken    Lamda =  -0.00016035
 Step Taken.  Stepsize is  0.037569

                             Maximum     Tolerance    Cnvgd?
         Gradient           0.001993      0.000300      NO
         Displacement       0.016763      0.001200      NO
         Energy change     -0.001436      0.000001      NO


 New Cartesian Coordinates Obtained by Inverse Iteration

 Displacement from previous Coordinates is:  0.073921
 ----------------------------------------------------------------
             Standard Nuclear Orientation (Angstroms)
    I     Atom           X                Y                Z
 ----------------------------------------------------------------
    1      H      -0.0892307734    -0.4092011052    -0.1341204593
    2      H       0.9215464627    -2.7837881762    -0.6865795859
    3      C       0.9611301241    -0.6623469647    -0.2017449659
    4      C       1.5159222061    -1.8998887549    -0.4899002937
    5      S       2.1444207140     0.5549036495     0.0632487236
    6      C       2.9172020878    -1.8708871321    -0.4972430653
    7      H       3.5353719509    -2.7361298371    -0.7091217703
[...]
      2 H                     0.162230       0.001430
      3 C                     0.061594       0.217730
      4 C                    -0.235338      -0.035420
      5 S                    -0.021076      -0.018431
      6 C                     0.585609       0.135916
      7 H                     0.151975      -0.008794
      8 C                    -0.216537       0.024565
      9 H                     0.144924      -0.005136
     10 C                    -0.122375       0.181027
     11 C                    -0.051194       0.052173
     12 S                    -0.417366      -0.062876
     13 C                     0.014564       0.051854
     14 H                     0.149110      -0.004972
     15 C                    -0.143066       0.180804
     16 C                    -0.252856       0.024659
     17 H                     0.155510      -0.008679
     18 C                     0.601519       0.133672
     19 S                    -0.005119      -0.017695
     20 C                    -0.256530      -0.034690
     21 C                     0.051978       0.213910
     22 H                     0.161060       0.001418
     23 H                     0.239648      -0.011227
  --------------------------------------------------------
  Sum of atomic charges =     1.000000
  Sum of spin   charges =     1.000000

 -----------------------------------------------------------------
                    Cartesian Multipole Moments
 -----------------------------------------------------------------
    Charge (ESU x 10^10)
                 4.8032
    Dipole Moment (Debye)
         X      29.1662      Y      -2.5932      Z      -1.1008
       Tot      29.3019
    Quadrupole Moments (Debye-Ang)
        XX     160.6147     XY     -13.1571     YY     -86.9527
        XZ      -6.7123     YZ       6.3870     ZZ    -109.5163
    Octopole Moments (Debye-Ang^2)
       XXX     778.0393    XXY     -91.6983    XYY    -534.4813
       YYY      97.5696    XXZ     -48.0961    XYZ      41.4224
       YYZ       5.0408    XZZ    -663.1618    YZZ      41.2725
       ZZZ      52.2950
    Hexadecapole Moments (Debye-Ang^3)
      XXXX   -1257.5065   XXXY    -824.9448   XXYY   -4382.8990
      XYYY     514.7658   YYYY    -825.3735   XXXZ    -394.3285
      XXYZ     326.5544   XYYZ      23.0284   YYYZ     -66.3568
      XXZZ   -5287.9217   XYZZ     208.6024   YYZZ    -190.8181
      XZZZ     294.6444   YZZZ    -117.0666   ZZZZ    -204.1715
 -----------------------------------------------------------------
 Calculating analytic gradient of the SCF energy
 Gradient of SCF Energy
            1           2           3           4           5           6
    1  -0.0000074   0.0000013   0.0000121  -0.0000350  -0.0000148   0.0000193
    2  -0.0000050   0.0000101   0.0000074   0.0000011  -0.0000126   0.0000236
    3   0.0000059  -0.0000088  -0.0000084  -0.0000126   0.0000236  -0.0000328
            7           8           9          10          11          12
    1   0.0000050   0.0000730  -0.0000104  -0.0000355  -0.0000743   0.0000573
    2   0.0000029   0.0000139  -0.0000000   0.0000496  -0.0000718   0.0000038
    3  -0.0000090   0.0000283   0.0000163   0.0000219  -0.0000316   0.0000227
           13          14          15          16          17          18
    1   0.0000429  -0.0000054  -0.0000021  -0.0000419  -0.0000015   0.0000106
    2   0.0002140  -0.0000012  -0.0001237  -0.0005535   0.0000034   0.0004371
    3  -0.0011691   0.0000027   0.0011709   0.0011530  -0.0000181  -0.0011473
           19          20          21          22          23
    1   0.0000120   0.0000144  -0.0000201  -0.0000028   0.0000033
    2  -0.0000112   0.0000012   0.0000070   0.0000077  -0.0000040
    3   0.0000055  -0.0000067  -0.0000052  -0.0000078   0.0000068
 Max gradient component =       1.171E-03
 RMS gradient           =       2.944E-04
 Gradient time:  CPU 4.30 s  wall 4.18 s
 Geometry Optimization Parameters
   NAtoms,    NIC,     NZ,  NCons,   NDum,   NFix, NCnnct, MaxDiis
       23     166       0       1       0       0       0       0

 Cartesian Hessian Update
 Hessian Updated using BFGS Update


** CONSTRAINED OPTIMIZATION IN DELOCALIZED INTERNAL COORDINATES **
   Searching for a Minimum

   Optimization Cycle:   9

                       Coordinates (Angstroms)
     ATOM                X               Y               Z
      1  H        -0.0913754042   -0.4014419167   -0.1550302686
      2  H         0.9169735914   -2.7816348571   -0.6825456172
      3  C         0.9592667586   -0.6564881803   -0.2129018909
      4  C         1.5121687114   -1.8981346040   -0.4869661520
      5  S         2.1433832657    0.5584425215    0.0542861314
      6  C         2.9142081066   -1.8733105259   -0.4820409347
      7  H         3.5309475870   -2.7439755858   -0.6756134357
      8  C         3.4462415948   -0.6042149537   -0.2027085464
      9  H         4.6984460608    1.9343913253    0.2996612522
     10  C         4.8058453517   -0.2199704775   -0.1205897416
     11  C         5.3296738779    1.0678981580    0.1396831537
     12  S         6.1085407698   -1.3788372126   -0.3385896290
     13  C         6.7120077810    1.1132805024    0.1579324746
     14  H         7.2813387863    2.0192742088    0.3309196777
     15  C         7.3253361744   -0.1376562030   -0.0862281906
     16  C         8.7093694053   -0.4260854248   -0.1626524403
     17  H         8.7791554235   -2.4872232359   -0.9073761992
     18  C         9.3315922687   -1.6102169734   -0.5887813743
     19  S         9.9246782261    0.7844922712    0.2528875037
     20  C        10.7320915264   -1.5370065559   -0.5739582456
     21  C        11.1939360374   -0.3035980163   -0.1408065200
     22  H        11.3895547335   -2.3451136866   -0.8701339715
     23  H        12.2234993660    0.0123778221   -0.0294540758
   Point Group: c1    Number of degrees of freedom:    63


   Energy is  -1656.417948474

              Constraints and their Current Values
                                        Value     Constraint
   Dihedral:       13  15  16  18     -170.000     -170.000
 Hessian Updated using BFGS Update

 62 Hessian modes will be used to form the next step
  Hessian Eigenvalues:
     0.011156    0.035565    0.045000    0.045000    0.045000    0.045001
     0.045001    0.045002    0.045003    0.045003    0.045007    0.045011
     0.045012    0.045014    0.045019    0.045025    0.045049    0.045058
     0.045718    0.148971    0.159364    0.159979    0.160004    0.160056
     0.160225    0.160509    0.161385    0.169271    0.218630    0.222042
     0.227994    0.241983    0.246520    0.248062    0.250185    0.269864
     0.288869    0.295585    0.326880    0.327976    0.333894    0.340152
     0.342124    0.365514    0.365565    0.366027    0.366898    0.367428
     0.367945    0.370142    0.371466    0.403048    0.426698    0.435290
     0.439998    0.461675    0.463555    0.473678    0.485548    0.495948
     0.505129    0.555697

 Minimum Search - Taking Simple RFO Step
 Searching for Lamda that Minimizes Along All modes
 Value Taken    Lamda =   0.00000000
 Step Taken.  Stepsize is  0.002990

                             Maximum     Tolerance    Cnvgd?
         Gradient           0.000043      0.000300     YES
         Displacement       0.002332      0.001200      NO
         Energy change     -0.000001      0.000001     YES

 Final energy is   -1656.41794847421     


 ******************************
 **  OPTIMIZATION CONVERGED  **
 ******************************

                       Coordinates (Angstroms)
     ATOM                X               Y               Z
      1  H        -0.0913754042   -0.4014419167   -0.1550302686
      2  H         0.9169735914   -2.7816348571   -0.6825456172
      3  C         0.9592667586   -0.6564881803   -0.2129018909
      4  C         1.5121687114   -1.8981346040   -0.4869661520
      5  S         2.1433832657    0.5584425215    0.0542861314
      6  C         2.9142081066   -1.8733105259   -0.4820409347
      7  H         3.5309475870   -2.7439755858   -0.6756134357
      8  C         3.4462415948   -0.6042149537   -0.2027085464
      9  H         4.6984460608    1.9343913253    0.2996612522
     10  C         4.8058453517   -0.2199704775   -0.1205897416
     11  C         5.3296738779    1.0678981580    0.1396831537
     12  S         6.1085407698   -1.3788372126   -0.3385896290
     13  C         6.7120077810    1.1132805024    0.1579324746
     14  H         7.2813387863    2.0192742088    0.3309196777
     15  C         7.3253361744   -0.1376562030   -0.0862281906
     16  C         8.7093694053   -0.4260854248   -0.1626524403
     17  H         8.7791554235   -2.4872232359   -0.9073761992
     18  C         9.3315922687   -1.6102169734   -0.5887813743
     19  S         9.9246782261    0.7844922712    0.2528875037
     20  C        10.7320915264   -1.5370065559   -0.5739582456
     21  C        11.1939360374   -0.3035980163   -0.1408065200
     22  H        11.3895547335   -2.3451136866   -0.8701339715
     23  H        12.2234993660    0.0123778221   -0.0294540758

Z-matrix Print:
$molecule
1 2
S 
C  1 1.756362
C  2 1.414436 1 110.449624
H  3 1.083922 2 122.616882 1 -179.417765 0
C  3 1.383199 2 113.706690 1 -0.071709 0
H  5 1.083906 3 123.629744 2 -179.516404 0
C  5 1.414477 3 113.728478 2 -0.051182 0
C  7 1.415242 5 127.854186 3 179.821771 0
C  8 1.404169 7 128.384086 5 178.836527 0
H  9 1.084387 8 123.071849 7 0.004599 0
C  9 1.402268 8 113.299195 7 -179.899584 0
H  11 1.083089 9 124.368984 8 179.924582 0
C  11 1.386542 9 112.467002 8 -0.015636 0
H  13 1.082703 11 127.478795 9 -179.921290 0
C  2 1.415832 1 121.702936 3 -178.739756 0
C  15 1.403893 2 128.423590 1 8.504854 0
H  16 1.084357 15 123.062824 2 -1.153093 0
C  16 1.402490 15 113.287578 2 178.187312 0
H  18 1.083058 16 124.356679 15 -179.788636 0
C  18 1.386441 16 112.481373 15 -0.076779 0
H  20 1.082701 18 127.482976 16 179.521473 0
S  13 1.717434 11 112.911037 9 0.010713 0
S  20 1.717542 18 112.894258 16 -0.058668 0
$end

 
 --------------------------------------------------------------
 
                    Orbital Energies (a.u.)
 --------------------------------------------------------------
 
 Alpha MOs
 -- Occupied --
-89.074 -89.065 -89.065 -10.410 -10.410 -10.391 -10.390 -10.378
-10.378 -10.366 -10.366 -10.358 -10.357 -10.345 -10.344  -8.133
 -8.124  -8.124  -6.097  -6.094  -6.089  -6.088  -6.088  -6.084
 -6.084  -6.081  -6.081  -1.064  -1.041  -1.026  -0.944  -0.915
 -0.893  -0.892  -0.883  -0.842  -0.772  -0.749  -0.713  -0.703
 -0.687  -0.678  -0.674  -0.646  -0.606  -0.572  -0.571  -0.571
 -0.560  -0.551  -0.548  -0.545  -0.536  -0.523  -0.519  -0.509
 -0.492  -0.490  -0.456  -0.422  -0.406  -0.404  -0.395  -0.346
 -- Virtual --
 -0.232  -0.179  -0.141  -0.135  -0.130  -0.122  -0.113  -0.101
 -0.100  -0.095  -0.087  -0.082  -0.079  -0.078  -0.077  -0.075
 -0.069  -0.064  -0.063  -0.052  -0.045  -0.041  -0.034  -0.030
 -0.023  -0.023  -0.017  -0.008  -0.008   0.001   0.003   0.003
  0.006   0.013   0.018   0.020   0.024   0.028   0.029   0.033
  0.034   0.037   0.044   0.045   0.047   0.048   0.054   0.055
  0.056   0.061   0.064   0.067   0.071   0.073   0.081   0.082
  0.086   0.088   0.093   0.101   0.103   0.106   0.113   0.119
  0.120   0.123   0.127   0.129   0.131   0.140   0.151   0.151
  0.156   0.158   0.171   0.173   0.178   0.186   0.194   0.203
  0.208   0.208   0.229   0.231   0.236   0.240   0.249   0.259
  0.262   0.264   0.270   0.284   0.321   0.335   0.348   0.372
  0.374   0.382   0.385   0.392   0.438   0.447   0.454   0.454
  0.468   0.482   0.502   0.504   0.506   0.510   0.511   0.513
  0.518   0.524   0.543   0.564   0.570   0.571   0.585   0.586
  0.588   0.592   0.600   0.616   0.621   0.625   0.649   0.650
  0.672   0.682   0.690   0.695   0.695   0.714   0.732   0.745
  0.790   0.796   0.799   0.812   0.818   0.819   0.820   0.828
  0.843   0.845   0.851   0.853   0.868   0.879   0.891   0.904
  0.920   0.931   0.942   0.948   0.963   0.967   0.970   0.985
  1.014   1.027   1.039   1.048   1.060   1.091   1.102   1.112
  1.126   1.139   1.150   1.175   1.187   1.196   1.198   1.201
  1.214   1.217   1.226   1.319   1.324   1.328   1.336   1.352
  1.367   1.418   1.457   1.515   1.523   1.541   1.559   1.567
  1.667   1.691   1.709   1.711   1.736   1.768   1.770   1.784
  1.792   1.795   1.798   1.835   1.872   1.883   1.900   1.919
  1.924   1.957   1.962   2.021   2.027   2.032   2.048   2.051
  2.078   2.090   2.111   2.121   2.148   2.186   2.228   2.229
  2.284   2.285   2.291   2.308   2.315   2.322   2.342   2.362
  2.377   2.386   2.397   2.399   2.427   2.444   2.469   2.487
  2.522   2.554   2.565   2.573   2.585   2.691   2.726   2.744
  2.785   2.792   2.795   2.805   2.987   3.040   3.083   3.141
  3.142   3.177   3.273   3.273   3.529   3.592   3.603   3.826
  3.836   3.844   4.116   4.126   4.162   4.174   4.180   4.180
  4.237   4.327   4.395   4.512   4.554   4.582
 
 Beta MOs
 -- Occupied --
-89.074 -89.065 -89.065 -10.407 -10.407 -10.390 -10.390 -10.375
-10.375 -10.365 -10.365 -10.356 -10.355 -10.345 -10.345  -8.133
 -8.124  -8.124  -6.098  -6.094  -6.090  -6.088  -6.088  -6.084
 -6.084  -6.081  -6.081  -1.059  -1.038  -1.023  -0.939  -0.913
 -0.891  -0.890  -0.880  -0.835  -0.769  -0.746  -0.710  -0.700
 -0.685  -0.676  -0.672  -0.644  -0.604  -0.570  -0.569  -0.562
 -0.558  -0.549  -0.546  -0.536  -0.535  -0.522  -0.508  -0.508
 -0.491  -0.489  -0.438  -0.419  -0.402  -0.400  -0.379
 -- Virtual --
 -0.294  -0.216  -0.167  -0.139  -0.131  -0.123  -0.120  -0.112
 -0.099  -0.095  -0.091  -0.086  -0.081  -0.077  -0.075  -0.070
 -0.069  -0.069  -0.064  -0.063  -0.052  -0.044  -0.041  -0.034
 -0.029  -0.023  -0.022  -0.016  -0.008  -0.007   0.003   0.004
  0.004   0.006   0.013   0.018   0.021   0.025   0.028   0.029
  0.034   0.034   0.038   0.045   0.046   0.048   0.049   0.054
  0.055   0.057   0.063   0.065   0.068   0.071   0.074   0.082
  0.083   0.087   0.090   0.095   0.103   0.103   0.107   0.114
  0.120   0.121   0.124   0.128   0.131   0.133   0.142   0.152
  0.152   0.158   0.159   0.171   0.174   0.178   0.187   0.196
  0.205   0.209   0.210   0.231   0.232   0.237   0.241   0.250
  0.259   0.263   0.265   0.271   0.285   0.323   0.336   0.349
  0.371   0.374   0.383   0.386   0.394   0.439   0.448   0.455
  0.455   0.469   0.483   0.504   0.506   0.511   0.513   0.516
  0.518   0.522   0.531   0.544   0.565   0.571   0.574   0.587
  0.588   0.590   0.593   0.603   0.622   0.624   0.630   0.650
  0.651   0.675   0.686   0.695   0.696   0.697   0.718   0.733
  0.746   0.793   0.797   0.800   0.814   0.819   0.821   0.824
  0.830   0.844   0.845   0.852   0.854   0.870   0.880   0.892
  0.905   0.921   0.933   0.943   0.949   0.964   0.968   0.971
  0.986   1.015   1.030   1.041   1.051   1.064   1.094   1.107
  1.115   1.130   1.146   1.152   1.177   1.191   1.197   1.202
  1.205   1.219   1.222   1.229   1.322   1.330   1.333   1.340
  1.354   1.370   1.421   1.460   1.521   1.530   1.546   1.567
  1.574   1.673   1.693   1.710   1.714   1.739   1.769   1.775
  1.786   1.796   1.797   1.803   1.837   1.876   1.887   1.905
  1.922   1.927   1.959   1.968   2.027   2.033   2.039   2.051
  2.055   2.083   2.094   2.115   2.126   2.156   2.191   2.230
  2.231   2.287   2.288   2.296   2.310   2.321   2.327   2.343
  2.364   2.382   2.387   2.400   2.402   2.430   2.447   2.472
  2.491   2.525   2.555   2.568   2.577   2.586   2.693   2.729
  2.746   2.788   2.795   2.797   2.807   2.988   3.041   3.084
  3.142   3.142   3.177   3.274   3.274   3.530   3.593   3.605
  3.826   3.836   3.845   4.120   4.130   4.165   4.176   4.182
  4.185   4.241   4.330   4.400   4.515   4.557   4.585
 --------------------------------------------------------------
 
          Ground-State Mulliken Net Atomic Charges

     Atom                 Charge (a.u.)    Spin (a.u.)
  --------------------------------------------------------
      1 H                     0.241735      -0.011238
      2 H                     0.162230       0.001430
      3 C                     0.061594       0.217730
      4 C                    -0.235338      -0.035420
      5 S                    -0.021076      -0.018431
      6 C                     0.585609       0.135916
      7 H                     0.151975      -0.008794
      8 C                    -0.216537       0.024565
      9 H                     0.144924      -0.005136
     10 C                    -0.122375       0.181027
     11 C                    -0.051194       0.052173
     12 S                    -0.417366      -0.062876
     13 C                     0.014564       0.051854
     14 H                     0.149110      -0.004972
     15 C                    -0.143066       0.180804
     16 C                    -0.252856       0.024659
     17 H                     0.155510      -0.008679
     18 C                     0.601519       0.133672
     19 S                    -0.005119      -0.017695
     20 C                    -0.256530      -0.034690
     21 C                     0.051978       0.213910
     22 H                     0.161060       0.001418
     23 H                     0.239648      -0.011227
  --------------------------------------------------------
  Sum of atomic charges =     1.000000
  Sum of spin   charges =     1.000000

 -----------------------------------------------------------------
                    Cartesian Multipole Moments
 -----------------------------------------------------------------
    Charge (ESU x 10^10)
                 4.8032
    Dipole Moment (Debye)
         X      29.1662      Y      -2.5932      Z      -1.1008
       Tot      29.3019
    Quadrupole Moments (Debye-Ang)
        XX     160.6147     XY     -13.1571     YY     -86.9527
        XZ      -6.7123     YZ       6.3870     ZZ    -109.5163
    Octopole Moments (Debye-Ang^2)
       XXX     778.0393    XXY     -91.6983    XYY    -534.4813
       YYY      97.5696    XXZ     -48.0961    XYZ      41.4224
       YYZ       5.0408    XZZ    -663.1618    YZZ      41.2725
       ZZZ      52.2950
    Hexadecapole Moments (Debye-Ang^3)
      XXXX   -1257.5065   XXXY    -824.9448   XXYY   -4382.8990
      XYYY     514.7658   YYYY    -825.3735   XXXZ    -394.3285
      XXYZ     326.5544   XYYZ      23.0284   YYYZ     -66.3568
      XXZZ   -5287.9217   XYZZ     208.6024   YYZZ    -190.8181
      XZZZ     294.6444   YZZZ    -117.0666   ZZZZ    -204.1715
 -----------------------------------------------------------------
Archival summary:
1\1\nid00526\OPT\ProcedureUnspecified\BasisUnspecified\3128(1+,2)\bwood\TueMay3011:02:002017TueMay3011:02:002017\0\\#,OPT,ProcedureUnspecified,BasisUnspecified,\\1,2\S\C,1,1.75636\C,2,1.41444,1,110.45\H,3,1.08392,2,122.617,1,-179.418,0\C,3,1.3832,2,113.707,1,-0.0717094,0\H,5,1.08391,3,123.63,2,-179.516,0\C,5,1.41448,3,113.728,2,-0.051182,0\C,7,1.41524,5,127.854,3,179.822,0\C,8,1.40417,7,128.384,5,178.837,0\H,9,1.08439,8,123.072,7,0.00459855,0\C,9,1.40227,8,113.299,7,-179.9,0\H,11,1.08309,9,124.369,8,179.925,0\C,11,1.38654,9,112.467,8,-0.0156357,0\H,13,1.0827,11,127.479,9,-179.921,0\C,2,1.41583,1,121.703,3,-178.74,0\C,15,1.40389,2,128.424,1,8.50485,0\H,16,1.08436,15,123.063,2,-1.15309,0\C,16,1.40249,15,113.288,2,178.187,0\H,18,1.08306,16,124.357,15,-179.789,0\C,18,1.38644,16,112.481,15,-0.0767793,0\H,20,1.0827,18,127.483,16,179.521,0\S,13,1.71743,11,112.911,9,0.0107132,0\S,20,1.71754,18,112.894,16,-0.0586683,0\\\@

 Total job time:  195.82s(wall), 206.71s(cpu) 
 Tue May 30 11:02:00 2017

        *************************************************************
        *                                                           *
        *  Thank you very much for using Q-Chem.  Have a nice day.  *
        *                                                           *
        *************************************************************


0 sent ACK to 0 
now end server 0 ... 
