srun -N 1 --ntasks-per-node 22 --cpus-per-task 2 --cpu_bind=cores --nodelist nid00535 /global/project/projectdirs/jcesr/qchem/qc44/cnl_qc441/dist/exe/qcprog.cori.haswell.exe .pt_nn_cation_-150.0.in.34052.qcin.1 /dev/shm/eg_qchem/qchem34052/
Process 1 of 22 is on nid00535 - thread support 0
Process 2 of 22 is on nid00535 - thread support 0
Process 3 of 22 is on nid00535 - thread support 0
Process 4 of 22 is on nid00535 - thread support 0
Process 5 of 22 is on nid00535 - thread support 0
Process 6 of 22 is on nid00535 - thread support 0
Process 0 of 22 is on nid00535 - thread support 0
Process 21 of 22 is on nid00535 - thread support 0
initial socket setup ...start
initial socket setup ...done 
now start server 0 ... 
nid00535 10.128.2
Q-Chem Developer Version! Running on 10.128.2.*
                  Welcome to Q-Chem
     A Quantum Leap Into The Future Of Chemistry


 Q-Chem 4.4, Q-Chem, Inc., Pleasanton, CA (2016)

 Y. Shao,  Z. Gan,  E. Epifanovsky,  A. T. B. Gilbert,  M. Wormit,  
 J. Kussmann,  A. W. Lange,  A. Behn,  J. Deng,  X. Feng,  D. Ghosh,  
 M. Goldey,  P. R. Horn,  L. D. Jacobson,  I. Kaliman,  F. Rob,  
 R. Z. Khaliullin,  T. Kus,  A. Landau,  J. Liu,  E. I. Proynov,  Y. M. Rhee,  
 R. M. Richard,  M. A. Rohrdanz,  R. P. Steele,  E. J. Sundstrom,  
 H. L. Woodcock III,  P. M. Zimmerman,  D. Zuev,  B. Albrecht,  E. Alguire,  
 B. Austin,  S. A. Baeppler,  G. J. O. Beran,  Y. A. Bernard,  
 E. J. Berquist,  K. Brandhorst,  K. B. Bravaya,  S. T. Brown,  D. Casanova,  
 C.-M. Chang,  Y. Chen,  S. H. Chien,  K. D. Closser,  M. P. Coons,  
 D. L. Crittenden,  S. Dasgupta,  M. Diedenhofen,  R. A. DiStasio Jr.,  
 H. Do,  A. D. Dutoi,  R. G. Edgar,  P.-T. Fang,  S. Fatehi,  Q. Feng,  
 L. Fusti-Molnar,  A. Ghysels,  A. Golubeva-Zadorozhnaya,  J. Gomes,  
 A. Gunina,  M. W. D. Hanson-Heine,  P. H. P. Harbach,  A. W. Hauser,  
 J. E. Herr,  E. G. Hohenstein,  Z. C. Holden,  K. Hui,  T.-C. Jagau,  H. Ji,  
 B. Kaduk,  K. Khistyaev,  Jaehoon Kim,  Jihan Kim,  R. A. King,  
 P. Klunzinger,  K. Koh,  D. Kosenkov,  T. Kowalczyk,  C. M. Krauter,  
 A. Kunitsa,  K. U. Lao,  A. Laurent,  K. V. Lawler,  J. Lee,  D. Lefrancois,  
 S. Lehtola,  S. V. Levchenko,  C. Y. Lin,  Y.-S. Lin,  F. Liu,  E. Livshits,  
 R. C. Lochan,  A. Luenser,  P. Manohar,  S. F. Manzer,  S.-P. Mao,  Y. Mao,  
 N. Mardirossian,  A. V. Marenich,  L. A. Martinez-Martinez,  S. A. Maurer,  
 N. J. Mayhall,  J.-M. Mewes,  A. F. Morrison,  K. Nanda,  T. S. Nguyen-Beck,  
 C. M. Oana,  R. Olivares-Amaya,  D. P. O'Neill,  J. A. Parkhill,  
 T. M. Perrine,  R. Peverati,  P. A. Pieniazek,  F. Plasser,  A. Prociuk,  
 D. R. Rehn,  E. Rosta,  N. J. Russ,  N. Sergueev,  S. M. Sharada,  
 S. Sharma,  D. W. Small,  A. Sodt,  T. Stauch,  T. Stein,  D. Stuck,  
 Y.-C. Su,  A. J. W. Thom,  T. Tsuchimochi,  L. Vogt,  O. Vydrov,  T. Wang,  
 M. A. Watson,  J. Wenzel,  A. White,  C. F. Williams,  V. Vanovschi,  
 K. Yao,  S. Yeganeh,  S. R. Yost,  Z.-Q. You,  I. Y. Zhang,  X. Zhang,  
 Y. Zhao,  B. R. Brooks,  G. K. L. Chan,  D. M. Chipman,  C. J. Cramer,  
 W. A. Goddard III,  M. S. Gordon,  W. J. Hehre,  A. Klamt,  
 H. F. Schaefer III,  M. W. Schmidt,  C. D. Sherrill,  D. G. Truhlar,  
 A. Warshel,  X. Xu,  A. Aspuru-Guzik,  R. Baer,  A. T. Bell,  N. A. Besley,  
 J.-D. Chai,  A. Dreuw,  B. D. Dunietz,  T. R. Furlani,  S. R. Gwaltney,  
 C.-P. Hsu,  Y. Jung,  J. Kong,  D. S. Lambrecht,  W. Liang,  C. Ochsenfeld,  
 V. A. Rassolov,  L. V. Slipchenko,  J. E. Subotnik,  T. Van Voorhis,  
 J. M. Herbert,  A. I. Krylov,  P. M. W. Gill,  M. Head-Gordon

 Contributors to earlier versions of Q-Chem not listed above: 
 R. D. Adamson,  J. Baker,  E. F. C. Byrd,  A. K. Chakraborty,  C.-L. Cheng,  
 H. Dachsel,  R. J. Doerksen,  G. Hawkins,  A. Heyden,  S. Hirata,  
 G. Kedziora,  F. J. Keil,  C. Kelley,  P. P. Korambath,  W. Kurlancheek,  
 A. M. Lee,  M. S. Lee,  D. Liotard,  I. Lotan,  P. E. Maslen,  N. Nair,  
 D. Neuhauser,  R. Olson,  B. Peters,  J. Ritchie,  N. E. Schultz,  
 N. Shenvi,  A. C. Simmonett,  K. S. Thanthiriwatte,  Q. Wu,  W. Zhang

 Please cite Q-Chem as follows:
 Y. Shao et al., Mol. Phys. 113, 184-215 (2015)
 DOI: 10.1080/00268976.2014.952696

 Q-Chem 4.4.2 for Intel X86 EM64T Linux

 Parts of Q-Chem use Armadillo 5.200.1 (Boston Tea Smuggler).
 http://arma.sourceforge.net/

 Q-Chem begins on Tue May 30 10:58:50 2017  

Host: nid00444
0

     Scratch files written to /dev/shm/eg_qchem/qchem34052.0//
 Parallel job on  22  processors

Checking the input file for inconsistencies... 	...done.

--------------------------------------------------------------
User input:
--------------------------------------------------------------
$molecule
 1  2
 H           0.00000000        0.00000000        0.00000000
 H           0.66366000       -2.46828000       -0.59127000
 C           0.99103000       -0.39106000       -0.11652000
 C           1.36812000       -1.67442000       -0.42485000
 S           2.34669000        0.62586000        0.08638000
 C           2.76167000       -1.82175000       -0.50822000
 H           3.26291000       -2.73877000       -0.76199000
 C           3.44671000       -0.65043000       -0.26057000
 H           4.55645000        1.43902671        0.15704385
 C           4.88382000       -0.65043000       -0.26057000
 C           5.26091000        0.64090194        0.01245390
 S           6.23948000       -1.67253113       -0.43550939
 C           6.65446000        0.79046248        0.09175311
 H           7.15570000        1.71409653        0.32028213
 C           7.33950000       -0.38720773       -0.12368600
 C           8.77661000       -0.38720773       -0.12368600
 H           8.96041000       -2.06090148       -1.46954395
 C           9.46165000       -1.29938075       -0.89909705
 S           9.87663000        0.66772343        0.67406719
 C          10.85520000       -1.14332598       -0.83349511
 C          11.23229000       -0.11463064       -0.00653355
 H          11.55966000       -1.76042186       -1.35989951
 H          12.22332000        0.21668635        0.23165638
$end


$rem
         jobtype = opt
        exchange = b3lyp
           basis = 6-31++g**
  max_scf_cycles = 150
      mem_static = 281
       mem_total = 2818
      sym_ignore = true
        symmetry = false
          thresh = 12
$end


$opt
CONSTRAINT
tors 13 15 16 18 -150.0
ENDCONSTRAINT
$end

--------------------------------------------------------------
 ----------------------------------------------------------------
             Standard Nuclear Orientation (Angstroms)
    I     Atom           X                Y                Z
 ----------------------------------------------------------------
    1      H       0.0000000000     0.0000000000     0.0000000000
    2      H       0.6636600000    -2.4682800000    -0.5912700000
    3      C       0.9910300000    -0.3910600000    -0.1165200000
    4      C       1.3681200000    -1.6744200000    -0.4248500000
    5      S       2.3466900000     0.6258600000     0.0863800000
    6      C       2.7616700000    -1.8217500000    -0.5082200000
    7      H       3.2629100000    -2.7387700000    -0.7619900000
    8      C       3.4467100000    -0.6504300000    -0.2605700000
    9      H       4.5564500000     1.4390267100     0.1570438500
   10      C       4.8838200000    -0.6504300000    -0.2605700000
   11      C       5.2609100000     0.6409019400     0.0124539000
   12      S       6.2394800000    -1.6725311300    -0.4355093900
   13      C       6.6544600000     0.7904624800     0.0917531100
   14      H       7.1557000000     1.7140965300     0.3202821300
   15      C       7.3395000000    -0.3872077300    -0.1236860000
   16      C       8.7766100000    -0.3872077300    -0.1236860000
   17      H       8.9604100000    -2.0609014800    -1.4695439500
   18      C       9.4616500000    -1.2993807500    -0.8990970500
   19      S       9.8766300000     0.6677234300     0.6740671900
   20      C      10.8552000000    -1.1433259800    -0.8334951100
   21      C      11.2322900000    -0.1146306400    -0.0065335500
   22      H      11.5596600000    -1.7604218600    -1.3598995100
   23      H      12.2233200000     0.2166863500     0.2316563800
 ----------------------------------------------------------------
 Nuclear Repulsion Energy =  1186.0405156867 hartrees
 There are       64 alpha and       63 beta electrons
 Requested basis set is 6-31++G(d,p)
 There are 110 shells and 345 basis functions

 Total QAlloc Memory Limit   2818 MB
 Mega-Array Size       275 MB
 MEM_STATIC part       281 MB
 A cutoff of  1.0D-12 yielded   4718 shell pairs
 There are     48088 function pairs

 Q-Chem warning in module /project/projectdirs/jcesr/qchem/qc44/cnl_qc441/compile/cori/qc_src/libqints/qchem/aobasis.C, line 68:

 Using reconstructed effective core potential

 
 -------------------------------------------------------
 OpenMP Integral Computing Module                       
 Release: version 1.0, May 2013, Q-Chem Inc. Pittsburgh 
 -------------------------------------------------------
 Integral Job Info:
 Integral job number is                      11
 Integral operator is                         1
 short-range coefficients                     0
 long-range coefficients              100000000
 Omega coefficients                           0
 if combine SR and LR in K                    0
 Integral screening is                        0
 Integral computing path is                   2
 max size of driver memory is            800000
 size of driver memory is                593474
 size of scratch memory is             15166112
 max col of scratch BK array               1296
 max len of scratch array in speh3          155
 max len of scratch index in speh4           18
 max int batch size is                      520
 min int batch size is                       52
 fixed nKL is                                52
 max L of basis functions is                  2
 order of int derivative is                   0
 number of shells is                        110
 number of basis is                         345
 number of cartesian basis is               345
 number of contracted shell pairs          4718
 number of primitive shell pairs          14804
 maxK2 (contraction) of shell pair           36
 max number of K2 of shell pair               1
 max number of CS2 of shell pair            511
 max number of PS2 of shell pair           3066
 mem total for path MDJ                  101288
 -------------------------------------------------------
 Smallest overlap matrix eigenvalue = 7.58E-08
 Linear dependence detected in AO basis
 Number of orthogonalized atomic orbitals = 342
 Maximum deviation from orthogonality = 1.456E-10

 Scale SEOQF with 1.000000e-02/1.000000e-01/1.000000e-01

 Standard Electronic Orientation quadrupole field applied
 Nucleus-field energy     =     0.0000000301 hartrees
 Guess from superposition of atomic densities
 Warning:  Energy on first SCF cycle will be non-variational
 An unrestricted hybrid HF-DFT SCF calculation will be
 performed using Pulay DIIS extrapolation
 Exchange:     0.2000 Hartree-Fock + 0.0800 Slater + 0.7200 B88
 Correlation:  0.1900 VWN1RPA + 0.8100 LYP
 Using SG-1 standard quadrature grid
 SCF converges when DIIS error is below 1.0E-08
 Inaccurate integrated density:
   Number of electrons =   127
   Numerical integral  =   127.999649912147
   Relative error      =     0.7871259151 %
 ---------------------------------------
  Cycle       Energy         DIIS Error
 ---------------------------------------
    1   -1660.7336261136      3.84E-02
    2   -1656.1497460589      3.63E-03
    3   -1655.8010765157      5.70E-03
    4   -1656.3467529785      1.13E-03
    5   -1656.3630122096      5.94E-04
    6   -1656.3689158653      1.86E-04
    7   -1656.3694906679      7.77E-05
    8   -1656.3696257894      2.14E-05
    9   -1656.3696466767      6.54E-06
   10   -1656.3696598174      3.58E-06
   11   -1656.3696668488      2.72E-06
   12   -1656.3696710374      1.06E-06
   13   -1656.3696723605      6.46E-07
   14   -1656.3696724423      2.86E-07
   15   -1656.3696724696      6.31E-08
   16   -1656.3696724708      4.75E-08
   17   -1656.3696724709      1.63E-08
   18   -1656.3696724713      1.04E-08
   19   -1656.3696724704      4.73E-09 Convergence criterion met
 ---------------------------------------
 <S^2> = 0.7656
 SCF time:  CPU 26.20 s  wall 24.50 s
 SCF   energy in the final basis set = -1656.3696724704
 Total energy in the final basis set = -1656.3696724704
 
 --------------------------------------------------------------
 
                    Orbital Energies (a.u.)
 --------------------------------------------------------------
 
 Alpha MOs
 -- Occupied --
-89.087 -89.068 -89.063 -10.406 -10.404 -10.391 -10.385 -10.377
-10.371 -10.358 -10.356 -10.350 -10.348 -10.342 -10.337  -8.146
 -8.128  -8.123  -6.111  -6.107  -6.102  -6.092  -6.088  -6.087
 -6.085  -6.083  -6.080  -1.080  -1.052  -1.038  -0.956  -0.916
 -0.900  -0.895  -0.887  -0.849  -0.774  -0.749  -0.715  -0.698
 -0.690  -0.684  -0.676  -0.657  -0.606  -0.583  -0.580  -0.571
 -0.565  -0.552  -0.550  -0.546  -0.532  -0.526  -0.522  -0.507
 -0.493  -0.489  -0.458  -0.423  -0.408  -0.403  -0.397  -0.354
 -- Virtual --
 -0.221  -0.171  -0.142  -0.140  -0.124  -0.113  -0.113  -0.106
 -0.097  -0.095  -0.092  -0.085  -0.083  -0.079  -0.077  -0.074
 -0.069  -0.065  -0.062  -0.052  -0.047  -0.045  -0.038  -0.035
 -0.026  -0.024  -0.019  -0.010  -0.005   0.001   0.005   0.007
  0.009   0.010   0.015   0.020   0.024   0.029   0.032   0.034
  0.035   0.039   0.041   0.043   0.046   0.049   0.052   0.053
  0.057   0.059   0.066   0.066   0.070   0.074   0.077   0.080
  0.088   0.094   0.097   0.098   0.110   0.112   0.117   0.117
  0.121   0.124   0.127   0.135   0.139   0.143   0.150   0.152
  0.158   0.164   0.168   0.171   0.179   0.180   0.190   0.204
  0.205   0.212   0.222   0.234   0.238   0.241   0.246   0.251
  0.261   0.267   0.269   0.292   0.304   0.329   0.349   0.362
  0.376   0.383   0.392   0.405   0.421   0.437   0.461   0.466
  0.483   0.488   0.494   0.498   0.504   0.508   0.513   0.518
  0.524   0.529   0.540   0.562   0.575   0.579   0.589   0.594
  0.599   0.601   0.604   0.616   0.633   0.647   0.651   0.660
  0.667   0.669   0.674   0.685   0.695   0.712   0.742   0.750
  0.793   0.800   0.805   0.812   0.815   0.823   0.827   0.838
  0.841   0.856   0.858   0.869   0.878   0.890   0.897   0.908
  0.917   0.925   0.937   0.950   0.961   0.972   0.979   0.983
  0.989   1.021   1.031   1.044   1.053   1.083   1.106   1.115
  1.133   1.150   1.158   1.182   1.190   1.198   1.207   1.216
  1.217   1.227   1.239   1.269   1.279   1.284   1.318   1.335
  1.349   1.408   1.465   1.485   1.508   1.559   1.561   1.581
  1.672   1.695   1.718   1.737   1.762   1.774   1.786   1.792
  1.816   1.839   1.845   1.862   1.882   1.903   1.919   1.942
  1.952   1.962   1.989   2.019   2.051   2.056   2.057   2.072
  2.092   2.112   2.137   2.150   2.191   2.193   2.235   2.242
  2.281   2.309   2.311   2.328   2.331   2.338   2.365   2.389
  2.390   2.397   2.418   2.448   2.455   2.457   2.474   2.514
  2.539   2.547   2.577   2.581   2.596   2.687   2.694   2.714
  2.760   2.779   2.814   2.828   3.023   3.059   3.096   3.161
  3.164   3.200   3.296   3.298   3.561   3.626   3.629   3.820
  3.847   3.853   4.102   4.129   4.164   4.174   4.188   4.191
  4.232   4.324   4.409   4.510   4.564   4.579
 
 Beta MOs
 -- Occupied --
-89.087 -89.068 -89.063 -10.403 -10.402 -10.390 -10.384 -10.374
-10.368 -10.357 -10.355 -10.348 -10.346 -10.342 -10.337  -8.146
 -8.128  -8.123  -6.111  -6.107  -6.103  -6.092  -6.088  -6.087
 -6.085  -6.083  -6.080  -1.076  -1.048  -1.035  -0.950  -0.914
 -0.895  -0.893  -0.886  -0.842  -0.771  -0.746  -0.712  -0.696
 -0.688  -0.681  -0.675  -0.656  -0.605  -0.579  -0.571  -0.570
 -0.563  -0.549  -0.545  -0.543  -0.530  -0.521  -0.516  -0.505
 -0.492  -0.489  -0.439  -0.420  -0.403  -0.399  -0.379
 -- Virtual --
 -0.302  -0.206  -0.160  -0.140  -0.136  -0.117  -0.112  -0.110
 -0.104  -0.094  -0.089  -0.086  -0.082  -0.080  -0.077  -0.074
 -0.072  -0.068  -0.064  -0.061  -0.051  -0.046  -0.044  -0.037
 -0.034  -0.025  -0.022  -0.018  -0.009  -0.005   0.002   0.005
  0.008   0.009   0.010   0.016   0.021   0.025   0.030   0.033
  0.035   0.035   0.039   0.042   0.044   0.047   0.050   0.053
  0.054   0.059   0.060   0.066   0.067   0.071   0.075   0.078
  0.080   0.089   0.095   0.098   0.099   0.111   0.113   0.117
  0.118   0.121   0.124   0.128   0.136   0.140   0.144   0.151
  0.153   0.159   0.165   0.169   0.171   0.180   0.182   0.192
  0.206   0.207   0.213   0.223   0.235   0.239   0.241   0.247
  0.252   0.263   0.268   0.270   0.293   0.305   0.330   0.350
  0.363   0.377   0.384   0.392   0.406   0.422   0.438   0.462
  0.467   0.484   0.491   0.496   0.502   0.507   0.511   0.516
  0.523   0.529   0.533   0.543   0.563   0.577   0.582   0.592
  0.596   0.600   0.603   0.606   0.621   0.638   0.648   0.653
  0.662   0.668   0.672   0.678   0.686   0.699   0.716   0.743
  0.751   0.794   0.802   0.806   0.814   0.816   0.826   0.830
  0.840   0.842   0.857   0.859   0.870   0.879   0.892   0.899
  0.909   0.918   0.926   0.938   0.951   0.962   0.974   0.979
  0.984   0.990   1.023   1.034   1.046   1.056   1.087   1.109
  1.119   1.135   1.154   1.161   1.185   1.193   1.202   1.212
  1.220   1.223   1.230   1.241   1.272   1.282   1.290   1.322
  1.340   1.352   1.411   1.467   1.491   1.514   1.567   1.570
  1.588   1.675   1.697   1.722   1.741   1.764   1.776   1.787
  1.793   1.820   1.843   1.849   1.866   1.886   1.906   1.923
  1.945   1.956   1.966   1.995   2.025   2.056   2.062   2.065
  2.078   2.098   2.117   2.140   2.156   2.195   2.199   2.238
  2.244   2.286   2.312   2.314   2.331   2.333   2.343   2.368
  2.391   2.393   2.401   2.419   2.452   2.458   2.460   2.477
  2.516   2.542   2.549   2.580   2.583   2.599   2.690   2.698
  2.717   2.762   2.780   2.815   2.830   3.024   3.060   3.097
  3.162   3.164   3.201   3.297   3.299   3.562   3.627   3.631
  3.820   3.848   3.854   4.106   4.133   4.169   4.177   4.190
  4.193   4.237   4.327   4.414   4.513   4.567   4.582
 --------------------------------------------------------------
 
          Ground-State Mulliken Net Atomic Charges

     Atom                 Charge (a.u.)    Spin (a.u.)
  --------------------------------------------------------
      1 H                     0.249356      -0.011611
      2 H                     0.155012       0.001409
      3 C                     0.093301       0.234090
      4 C                    -0.374078      -0.042206
      5 S                    -0.086282      -0.029322
      6 C                     0.552890       0.144530
      7 H                     0.139123      -0.009013
      8 C                     0.167257       0.044595
      9 H                     0.061767      -0.006180
     10 C                    -0.119720       0.168469
     11 C                    -0.525147       0.072409
     12 S                     0.094644      -0.042965
     13 C                    -0.037525       0.030346
     14 H                     0.143922      -0.002024
     15 C                    -0.008075       0.173633
     16 C                    -0.137341       0.038423
     17 H                     0.136285      -0.008051
     18 C                     0.336000       0.116025
     19 S                     0.085882      -0.024541
     20 C                    -0.374052      -0.034199
     21 C                     0.056661       0.194796
     22 H                     0.153416       0.001598
     23 H                     0.236703      -0.010211
  --------------------------------------------------------
  Sum of atomic charges =     1.000000
  Sum of spin   charges =     1.000000

 -----------------------------------------------------------------
                    Cartesian Multipole Moments
 -----------------------------------------------------------------
    Charge (ESU x 10^10)
                 4.8032
    Dipole Moment (Debye)
         X      28.7817      Y      -2.5566      Z      -1.2431
       Tot      28.9217
    Quadrupole Moments (Debye-Ang)
        XX     156.5176     XY     -12.3037     YY     -91.4311
        XZ      -8.1895     YZ       7.1156     ZZ    -106.8146
    Octopole Moments (Debye-Ang^2)
       XXX     731.3995    XXY     -57.2674    XYY    -574.0180
       YYY     113.9306    XXZ     -55.2143    XYZ      50.8438
       YYZ       4.5086    XZZ    -642.5744    YZZ      41.5277
       ZZZ      48.6048
    Hexadecapole Moments (Debye-Ang^3)
      XXXX   -1815.8114   XXXY    -277.4575   XXYY   -4749.1054
      XYYY     634.2770   YYYY    -774.2308   XXXZ    -424.0020
      XXYZ     426.7003   XYYZ      12.9444   YYYZ     -95.0565
      XXZZ   -5109.0088   XYZZ     199.2515   YYZZ    -176.7459
      XZZZ     247.8033   YZZZ    -128.8046   ZZZZ    -267.9838
 -----------------------------------------------------------------
 Calculating analytic gradient of the SCF energy
 Gradient of SCF Energy
            1           2           3           4           5           6
    1   0.0068671   0.0045550  -0.0047006  -0.0004055   0.0028294   0.0240772
    2  -0.0034475   0.0048283   0.0016493   0.0124707  -0.0267973   0.0111648
    3  -0.0011352   0.0010633  -0.0001829   0.0039051  -0.0057589   0.0034120
            7           8           9          10          11          12
    1  -0.0015302  -0.0215432  -0.0021732   0.0454751  -0.0639585   0.0012121
    2   0.0061533   0.0625383  -0.0060049  -0.0474332  -0.0332847   0.0412862
    3   0.0005696   0.0117130  -0.0003283  -0.0074492  -0.0087676   0.0087959
           13          14          15          16          17          18
    1   0.0323433  -0.0024497  -0.0242259   0.0234774   0.0010980  -0.0189031
    2  -0.0195588  -0.0056431  -0.0303965   0.0281524   0.0039824   0.0131976
    3  -0.0105238   0.0003147  -0.0101242   0.0146141   0.0051662   0.0018401
           19          20          21          22          23
    1   0.0043695  -0.0002318   0.0048484  -0.0042139  -0.0068168
    2  -0.0223193   0.0080397   0.0005884   0.0034893  -0.0026555
    3  -0.0170315   0.0063783   0.0021579   0.0037736  -0.0024023
 Max gradient component =       6.396E-02
 RMS gradient           =       1.872E-02
 Gradient time:  CPU 4.32 s  wall 4.21 s
 Geometry Optimization Parameters
   NAtoms,    NIC,     NZ,  NCons,   NDum,   NFix, NCnnct, MaxDiis
       23     166       0       1       0       0       0       0


** CONSTRAINED OPTIMIZATION IN DELOCALIZED INTERNAL COORDINATES **
   Searching for a Minimum

   Optimization Cycle:   1

                       Coordinates (Angstroms)
     ATOM                X               Y               Z
      1  H         0.0000000000    0.0000000000    0.0000000000
      2  H         0.6636600000   -2.4682800000   -0.5912700000
      3  C         0.9910300000   -0.3910600000   -0.1165200000
      4  C         1.3681200000   -1.6744200000   -0.4248500000
      5  S         2.3466900000    0.6258600000    0.0863800000
      6  C         2.7616700000   -1.8217500000   -0.5082200000
      7  H         3.2629100000   -2.7387700000   -0.7619900000
      8  C         3.4467100000   -0.6504300000   -0.2605700000
      9  H         4.5564500000    1.4390267100    0.1570438500
     10  C         4.8838200000   -0.6504300000   -0.2605700000
     11  C         5.2609100000    0.6409019400    0.0124539000
     12  S         6.2394800000   -1.6725311300   -0.4355093900
     13  C         6.6544600000    0.7904624800    0.0917531100
     14  H         7.1557000000    1.7140965300    0.3202821300
     15  C         7.3395000000   -0.3872077300   -0.1236860000
     16  C         8.7766100000   -0.3872077300   -0.1236860000
     17  H         8.9604100000   -2.0609014800   -1.4695439500
     18  C         9.4616500000   -1.2993807500   -0.8990970500
     19  S         9.8766300000    0.6677234300    0.6740671900
     20  C        10.8552000000   -1.1433259800   -0.8334951100
     21  C        11.2322900000   -0.1146306400   -0.0065335500
     22  H        11.5596600000   -1.7604218600   -1.3598995100
     23  H        12.2233200000    0.2166863500    0.2316563800
   Point Group: c1    Number of degrees of freedom:    63


   Energy is  -1656.369672470

              Constraints and their Current Values
                                        Value     Constraint
   Dihedral:       13  15  16  18     -150.000     -150.000

 Attempting to Generate Delocalized Internal Coordinates

 62 Hessian modes will be used to form the next step
  Hessian Eigenvalues:
     0.045000    0.045000    0.045000    0.045000    0.045000    0.045000
     0.045001    0.045001    0.045001    0.045002    0.045003    0.045003
     0.045011    0.045012    0.045012    0.045025    0.045032    0.045058
     0.045059    0.159944    0.159945    0.159945    0.159992    0.159993
     0.159993    0.160000    0.160000    0.221307    0.221308    0.227041
     0.237995    0.238010    0.245411    0.249662    0.249670    0.249670
     0.249825    0.326317    0.326319    0.326962    0.340043    0.340044
     0.340629    0.365512    0.365512    0.365513    0.366888    0.366889
     0.366889    0.370099    0.370100    0.399845    0.399845    0.435419
     0.435419    0.435422    0.463117    0.463122    0.464282    0.495500
     0.495500    0.495533

 Minimum Search - Taking Simple RFO Step
 Searching for Lamda that Minimizes Along All modes
 Value Taken    Lamda =  -0.06794629
 Calculated Step too Large.  Step scaled by  0.675920
 Step Taken.  Stepsize is  0.300000

                             Maximum     Tolerance    Cnvgd?
         Gradient           0.076195      0.000300      NO
         Displacement       0.140355      0.001200      NO
         Energy change     *********      0.000001      NO


 New Cartesian Coordinates Obtained by Inverse Iteration

 Displacement from previous Coordinates is:  1.665840
 ----------------------------------------------------------------
             Standard Nuclear Orientation (Angstroms)
    I     Atom           X                Y                Z
 ----------------------------------------------------------------
    1      H      -0.0985059057    -0.2680585945    -0.0517850004
    2      H       0.7958896593    -2.6754036869    -0.6456498895
    3      C       0.9324147156    -0.5671949454    -0.1514640079
    4      C       1.4257904596    -1.8178927111    -0.4613107448
    5      S       2.1781770829     0.5889772196     0.0858218552
    6      C       2.8285706747    -1.8305264878    -0.5153294163
    7      H       3.4155093214    -2.7033004171    -0.7626731138
    8      C       3.4118074128    -0.5873202745    -0.2453577629
    9      H       4.6618528726     1.7334197740     0.2217872873
   10      C       4.8456382135    -0.4126235485    -0.2099118181
   11      C       5.3121561810     0.8889346581     0.0682455778
   12      S       6.1736467141    -1.4905580495    -0.3977653487
   13      C       6.7038236853     0.9818999633     0.1331223146
   14      H       7.2492649832     1.8882787170     0.3523759008
   15      C       7.3366136745    -0.2411501298    -0.0965292245
   16      C       8.7635267998    -0.3815444526    -0.1356560633
   17      H       8.8603640152    -2.0836484396    -1.4931012422
   18      C       9.4018037624    -1.3473139247    -0.9168905700
   19      S       9.9251315673     0.6217355373     0.6670447876
   20      C      10.8028814961    -1.2694825046    -0.8538610663
   21      C      11.2297057157    -0.2523472869    -0.0246785727
   22      H      11.4773136579    -1.9269270126    -1.3818778610
   23      H      12.2435032409     0.0260567369     0.2136399793
 ----------------------------------------------------------------
 Nuclear Repulsion Energy =  1176.8598376089 hartrees
 There are       64 alpha and       63 beta electrons
 Applying Cartesian multipole field
    Component          Value
    ---------          -----
     (2,0,0)        1.00000E-12
     (0,2,0)        2.00000E-11
     (0,0,2)       -3.00000E-11
 Nucleus-field energy     =     0.0000000301 hartrees
 Requested basis set is 6-31++G(d,p)
 There are 110 shells and 345 basis functions
 A cutoff of  1.0D-12 yielded   4711 shell pairs
 There are     47992 function pairs

 Q-Chem warning in module /project/projectdirs/jcesr/qchem/qc44/cnl_qc441/compile/cori/qc_src/libqints/qchem/aobasis.C, line 68:

 Using reconstructed effective core potential

 Smallest overlap matrix eigenvalue = 6.94E-08
 Linear dependence detected in AO basis
 Number of orthogonalized atomic orbitals = 342
 Maximum deviation from orthogonality = 1.348E-10
 Guess MOs from SCF MO coefficient file
 Reading MOs from coefficient file
 Reading MOs from coefficient file
 An unrestricted hybrid HF-DFT SCF calculation will be
 performed using Pulay DIIS extrapolation
 Exchange:     0.2000 Hartree-Fock + 0.0800 Slater + 0.7200 B88
 Correlation:  0.1900 VWN1RPA + 0.8100 LYP
 Using SG-1 standard quadrature grid
 SCF converges when DIIS error is below 1.0E-08
 Geometry optimization detected.  Setting ReadMinima to 0
 Setting SaveMinima to 0
 Inaccurate integrated density:
   Number of electrons =   127
   Numerical integral  =   126.853784261890
   Relative error      =    -0.1151305024 %
 ---------------------------------------
  Cycle       Energy         DIIS Error
 ---------------------------------------
    1   -1656.1714176199      4.58E-03
    2   -1656.3799365632      1.10E-03
    3   -1656.3339519369      1.96E-03
    4   -1656.4005538370      2.45E-04
    5   -1656.4014347469      8.50E-05
    6   -1656.4015459985      3.22E-05
    7   -1656.4015621241      1.49E-05
    8   -1656.4015658298      3.89E-06
    9   -1656.4015661242      2.15E-06
   10   -1656.4015662568      6.04E-07
   11   -1656.4015663072      3.35E-07
   12   -1656.4015663298      1.49E-07
   13   -1656.4015663398      7.92E-08
   14   -1656.4015663438      4.95E-08
   15   -1656.4015663458      2.63E-08
   16   -1656.4015663467      1.12E-08
   17   -1656.4015663465      5.72E-09 Convergence criterion met
 ---------------------------------------
 <S^2> = 0.7674
 SCF time:  CPU 24.14 s  wall 22.35 s
 SCF   energy in the final basis set = -1656.4015663465
 Total energy in the final basis set = -1656.4015663465
 
 --------------------------------------------------------------
 
                    Orbital Energies (a.u.)
 --------------------------------------------------------------
 
 Alpha MOs
 -- Occupied --
-89.082 -89.068 -89.064 -10.410 -10.408 -10.392 -10.387 -10.378
-10.373 -10.363 -10.360 -10.355 -10.352 -10.343 -10.340  -8.142
 -8.127  -8.124  -6.106  -6.102  -6.098  -6.091  -6.088  -6.087
 -6.084  -6.084  -6.081  -1.070  -1.045  -1.032  -0.946  -0.913
 -0.893  -0.893  -0.888  -0.845  -0.771  -0.746  -0.713  -0.700
 -0.687  -0.681  -0.673  -0.653  -0.606  -0.576  -0.573  -0.569
 -0.561  -0.549  -0.547  -0.546  -0.529  -0.528  -0.522  -0.510
 -0.494  -0.491  -0.454  -0.421  -0.406  -0.403  -0.397  -0.351
 -- Virtual --
 -0.225  -0.174  -0.141  -0.138  -0.125  -0.118  -0.112  -0.104
 -0.099  -0.094  -0.090  -0.086  -0.083  -0.080  -0.077  -0.075
 -0.069  -0.065  -0.062  -0.053  -0.047  -0.046  -0.035  -0.033
 -0.024  -0.024  -0.019  -0.009  -0.006   0.001   0.005   0.006
  0.009   0.010   0.014   0.021   0.024   0.030   0.031   0.033
  0.034   0.038   0.040   0.044   0.048   0.049   0.053   0.055
  0.056   0.059   0.063   0.066   0.070   0.074   0.075   0.080
  0.082   0.090   0.099   0.099   0.107   0.110   0.112   0.116
  0.120   0.123   0.126   0.132   0.136   0.144   0.147   0.151
  0.155   0.156   0.161   0.170   0.174   0.181   0.190   0.201
  0.205   0.207   0.227   0.229   0.234   0.239   0.246   0.248
  0.255   0.264   0.268   0.276   0.311   0.323   0.340   0.362
  0.379   0.380   0.390   0.403   0.425   0.431   0.457   0.463
  0.473   0.480   0.493   0.499   0.505   0.506   0.513   0.516
  0.522   0.525   0.542   0.555   0.570   0.575   0.583   0.589
  0.592   0.599   0.602   0.615   0.630   0.632   0.651   0.654
  0.670   0.673   0.678   0.687   0.695   0.710   0.729   0.745
  0.796   0.798   0.804   0.812   0.816   0.820   0.823   0.830
  0.841   0.846   0.855   0.856   0.871   0.881   0.894   0.901
  0.917   0.920   0.942   0.946   0.958   0.963   0.974   0.976
  0.991   1.025   1.031   1.033   1.041   1.080   1.099   1.116
  1.124   1.144   1.153   1.184   1.187   1.193   1.202   1.208
  1.215   1.220   1.243   1.266   1.292   1.296   1.322   1.335
  1.351   1.400   1.438   1.490   1.511   1.551   1.558   1.577
  1.671   1.693   1.710   1.723   1.754   1.768   1.780   1.785
  1.805   1.824   1.826   1.849   1.874   1.879   1.904   1.924
  1.931   1.952   1.978   2.011   2.033   2.037   2.050   2.064
  2.086   2.099   2.110   2.127   2.165   2.178   2.230   2.236
  2.276   2.297   2.301   2.317   2.324   2.326   2.349   2.375
  2.380   2.387   2.399   2.430   2.439   2.442   2.468   2.487
  2.523   2.540   2.568   2.573   2.590   2.692   2.695   2.712
  2.758   2.766   2.783   2.807   2.998   3.043   3.080   3.148
  3.150   3.191   3.280   3.283   3.539   3.604   3.611   3.820
  3.842   3.846   4.098   4.126   4.162   4.166   4.181   4.184
  4.231   4.319   4.398   4.504   4.554   4.574
 
 Beta MOs
 -- Occupied --
-89.083 -89.068 -89.064 -10.407 -10.405 -10.392 -10.387 -10.375
-10.371 -10.362 -10.360 -10.353 -10.350 -10.344 -10.340  -8.142
 -8.127  -8.124  -6.106  -6.102  -6.099  -6.091  -6.088  -6.087
 -6.084  -6.084  -6.081  -1.066  -1.041  -1.028  -0.940  -0.911
 -0.891  -0.890  -0.885  -0.838  -0.767  -0.742  -0.710  -0.698
 -0.686  -0.679  -0.672  -0.651  -0.604  -0.572  -0.567  -0.565
 -0.558  -0.548  -0.545  -0.539  -0.527  -0.526  -0.512  -0.509
 -0.493  -0.491  -0.435  -0.419  -0.402  -0.400  -0.378
 -- Virtual --
 -0.299  -0.209  -0.163  -0.138  -0.134  -0.119  -0.115  -0.111
 -0.103  -0.095  -0.090  -0.083  -0.082  -0.081  -0.078  -0.076
 -0.072  -0.068  -0.064  -0.061  -0.052  -0.046  -0.045  -0.035
 -0.032  -0.023  -0.023  -0.018  -0.008  -0.005   0.002   0.005
  0.007   0.009   0.010   0.015   0.021   0.025   0.031   0.032
  0.034   0.035   0.038   0.041   0.044   0.048   0.049   0.054
  0.055   0.057   0.060   0.064   0.066   0.070   0.075   0.076
  0.081   0.083   0.091   0.099   0.101   0.108   0.111   0.113
  0.117   0.121   0.124   0.127   0.133   0.137   0.144   0.148
  0.152   0.156   0.158   0.162   0.171   0.175   0.182   0.191
  0.202   0.206   0.209   0.227   0.230   0.236   0.240   0.247
  0.250   0.257   0.264   0.269   0.278   0.311   0.324   0.341
  0.363   0.379   0.381   0.390   0.404   0.426   0.432   0.458
  0.464   0.475   0.482   0.494   0.503   0.507   0.511   0.517
  0.521   0.527   0.529   0.544   0.558   0.571   0.578   0.586
  0.591   0.594   0.599   0.605   0.620   0.635   0.635   0.652
  0.655   0.673   0.675   0.681   0.688   0.700   0.714   0.730
  0.746   0.797   0.801   0.806   0.813   0.818   0.822   0.826
  0.833   0.842   0.847   0.856   0.857   0.872   0.881   0.895
  0.903   0.918   0.921   0.943   0.947   0.960   0.964   0.975
  0.977   0.994   1.028   1.034   1.035   1.045   1.083   1.102
  1.120   1.127   1.150   1.155   1.186   1.191   1.195   1.205
  1.212   1.221   1.224   1.245   1.268   1.295   1.301   1.326
  1.340   1.355   1.404   1.441   1.495   1.517   1.558   1.567
  1.584   1.674   1.695   1.715   1.726   1.755   1.769   1.782
  1.787   1.809   1.827   1.830   1.853   1.877   1.882   1.908
  1.929   1.936   1.954   1.984   2.017   2.040   2.042   2.055
  2.071   2.091   2.102   2.115   2.132   2.171   2.183   2.232
  2.238   2.282   2.301   2.303   2.322   2.327   2.330   2.351
  2.376   2.384   2.392   2.400   2.432   2.442   2.445   2.471
  2.489   2.526   2.542   2.571   2.576   2.592   2.695   2.698
  2.714   2.761   2.768   2.784   2.809   2.998   3.044   3.082
  3.148   3.150   3.192   3.281   3.284   3.540   3.605   3.612
  3.820   3.842   3.846   4.102   4.130   4.165   4.171   4.184
  4.186   4.236   4.323   4.402   4.507   4.556   4.577
 --------------------------------------------------------------
 
          Ground-State Mulliken Net Atomic Charges

     Atom                 Charge (a.u.)    Spin (a.u.)
  --------------------------------------------------------
      1 H                     0.245352      -0.011596
      2 H                     0.160343       0.001690
      3 C                     0.076493       0.226395
      4 C                    -0.317471      -0.042165
      5 S                    -0.010502      -0.029413
      6 C                     0.451970       0.141171
      7 H                     0.137370      -0.009285
      8 C                    -0.032166       0.037773
      9 H                     0.115320      -0.005826
     10 C                    -0.054269       0.175009
     11 C                    -0.340986       0.074971
     12 S                    -0.058083      -0.051044
     13 C                     0.045837       0.036791
     14 H                     0.150537      -0.002594
     15 C                    -0.066527       0.177024
     16 C                    -0.194179       0.034368
     17 H                     0.146436      -0.008464
     18 C                     0.381294       0.124569
     19 S                     0.082280      -0.025235
     20 C                    -0.356640      -0.037192
     21 C                     0.046229       0.202031
     22 H                     0.156121       0.001736
     23 H                     0.235239      -0.010714
  --------------------------------------------------------
  Sum of atomic charges =     1.000000
  Sum of spin   charges =     1.000000

 -----------------------------------------------------------------
                    Cartesian Multipole Moments
 -----------------------------------------------------------------
    Charge (ESU x 10^10)
                 4.8032
    Dipole Moment (Debye)
         X      28.8864      Y      -2.5044      Z      -1.2358
       Tot      29.0211
    Quadrupole Moments (Debye-Ang)
        XX     158.0534     XY     -11.8651     YY     -90.4493
        XZ      -7.9665     YZ       7.5604     ZZ    -107.0988
    Octopole Moments (Debye-Ang^2)
       XXX     750.8694    XXY     -70.0050    XYY    -565.9632
       YYY     108.0879    XXZ     -54.3778    XYZ      53.7325
       YYZ       3.2550    XZZ    -641.2685    YZZ      38.9563
       ZZZ      47.0372
    Hexadecapole Moments (Debye-Ang^3)
      XXXX   -1640.0963   XXXY    -543.9121   XXYY   -4688.7323
      XYYY     603.0088   YYYY    -770.4529   XXXZ    -424.0195
      XXYZ     449.7380   XYYZ       2.9447   YYYZ     -91.0446
      XXZZ   -5098.5524   XYZZ     182.3107   YYZZ    -177.2834
      XZZZ     234.5157   YZZZ    -129.3559   ZZZZ    -269.8765
 -----------------------------------------------------------------
 Calculating analytic gradient of the SCF energy
 Gradient of SCF Energy
            1           2           3           4           5           6
    1   0.0029561   0.0013484  -0.0021615  -0.0028336  -0.0001500   0.0090903
    2  -0.0014109   0.0018174   0.0000549   0.0037379  -0.0148428   0.0034296
    3  -0.0005700   0.0004449  -0.0003630   0.0016810  -0.0029144   0.0020543
            7           8           9          10          11          12
    1  -0.0008846  -0.0267589   0.0036017   0.0330778  -0.0267219   0.0004090
    2   0.0028705   0.0387179  -0.0028586  -0.0446934  -0.0055127   0.0265871
    3  -0.0001464   0.0067632   0.0001394  -0.0080221  -0.0024997   0.0059069
           13          14          15          16          17          18
    1   0.0209659  -0.0006857  -0.0191609   0.0180945   0.0007277  -0.0085422
    2  -0.0051097  -0.0023604  -0.0198014   0.0210736   0.0009863   0.0064846
    3  -0.0074219   0.0009842  -0.0048149   0.0140630   0.0027264  -0.0035081
           19          20          21          22          23
    1  -0.0000689   0.0013762   0.0008488  -0.0015342  -0.0029941
    2  -0.0116171   0.0024934  -0.0003492   0.0011169  -0.0008137
    3  -0.0078277   0.0015705   0.0014401   0.0015257  -0.0012114
 Max gradient component =       4.469E-02
 RMS gradient           =       1.201E-02
 Gradient time:  CPU 4.27 s  wall 4.17 s
 Geometry Optimization Parameters
   NAtoms,    NIC,     NZ,  NCons,   NDum,   NFix, NCnnct, MaxDiis
       23     166       0       1       0       0       0       0

 Cartesian Hessian Update
 Hessian Updated using BFGS Update


** CONSTRAINED OPTIMIZATION IN DELOCALIZED INTERNAL COORDINATES **
   Searching for a Minimum

   Optimization Cycle:   2

                       Coordinates (Angstroms)
     ATOM                X               Y               Z
      1  H        -0.0985059057   -0.2680585945   -0.0517850004
      2  H         0.7958896593   -2.6754036869   -0.6456498895
      3  C         0.9324147156   -0.5671949454   -0.1514640079
      4  C         1.4257904596   -1.8178927111   -0.4613107448
      5  S         2.1781770829    0.5889772196    0.0858218552
      6  C         2.8285706747   -1.8305264878   -0.5153294163
      7  H         3.4155093214   -2.7033004171   -0.7626731138
      8  C         3.4118074128   -0.5873202745   -0.2453577629
      9  H         4.6618528726    1.7334197740    0.2217872873
     10  C         4.8456382135   -0.4126235485   -0.2099118181
     11  C         5.3121561810    0.8889346581    0.0682455778
     12  S         6.1736467141   -1.4905580495   -0.3977653487
     13  C         6.7038236853    0.9818999633    0.1331223146
     14  H         7.2492649832    1.8882787170    0.3523759008
     15  C         7.3366136745   -0.2411501298   -0.0965292245
     16  C         8.7635267998   -0.3815444526   -0.1356560633
     17  H         8.8603640152   -2.0836484396   -1.4931012422
     18  C         9.4018037624   -1.3473139247   -0.9168905700
     19  S         9.9251315673    0.6217355373    0.6670447876
     20  C        10.8028814961   -1.2694825046   -0.8538610663
     21  C        11.2297057157   -0.2523472869   -0.0246785727
     22  H        11.4773136579   -1.9269270126   -1.3818778610
     23  H        12.2435032409    0.0260567369    0.2136399793
   Point Group: c1    Number of degrees of freedom:    63


   Energy is  -1656.401566347

              Constraints and their Current Values
                                        Value     Constraint
   Dihedral:       13  15  16  18     -150.000     -150.000
 Hessian Updated using BFGS Update

 62 Hessian modes will be used to form the next step
  Hessian Eigenvalues:
     0.044926    0.045000    0.045000    0.045000    0.045000    0.045000
     0.045001    0.045001    0.045001    0.045002    0.045003    0.045005
     0.045009    0.045012    0.045012    0.045026    0.045030    0.045055
     0.045059    0.159163    0.159945    0.159947    0.159987    0.159993
     0.159993    0.160000    0.160273    0.190040    0.221308    0.221993
     0.229789    0.238060    0.238985    0.246417    0.249670    0.249674
     0.283554    0.324017    0.326558    0.327666    0.339015    0.340044
     0.340422    0.365192    0.365513    0.365522    0.366561    0.366889
     0.367352    0.369910    0.370100    0.399650    0.414597    0.434915
     0.435420    0.436835    0.462204    0.463143    0.470395    0.495190
     0.495500    0.574458

 Minimum Search - Taking Simple RFO Step
 Searching for Lamda that Minimizes Along All modes
 Value Taken    Lamda =  -0.02319734
 Calculated Step too Large.  Step scaled by  0.907918
 Step Taken.  Stepsize is  0.300000

                             Maximum     Tolerance    Cnvgd?
         Gradient           0.035743      0.000300      NO
         Displacement       0.143599      0.001200      NO
         Energy change     -0.031894      0.000001      NO


 New Cartesian Coordinates Obtained by Inverse Iteration

 Displacement from previous Coordinates is:  1.014033
 ----------------------------------------------------------------
             Standard Nuclear Orientation (Angstroms)
    I     Atom           X                Y                Z
 ----------------------------------------------------------------
    1      H      -0.0651701269    -0.3788503427    -0.0911875612
    2      H       0.9134957588    -2.7625221829    -0.6889969510
    3      C       0.9811293882    -0.6450291692    -0.1788650387
    4      C       1.5176013055    -1.8853248194    -0.4915673530
    5      S       2.1751377367     0.5669364325     0.0830266616
    6      C       2.9186676038    -1.8583952585    -0.5245400128
    7      H       3.5371365372    -2.7169090742    -0.7643821424
    8      C       3.4512533591    -0.5865685413    -0.2356244195
    9      H       4.6588282258     1.8945856299     0.2719711399
   10      C       4.8261948630    -0.2611106648    -0.1610209017
   11      C       5.3127657361     1.0416980794     0.1212625013
   12      S       6.1279675013    -1.3966127206    -0.3620847659
   13      C       6.6931598978     1.1021423368     0.1742012357
   14      H       7.2564579670     2.0049385390     0.3782655579
   15      C       7.3130169661    -0.1468914839    -0.0692780487
   16      C       8.7117139191    -0.4012042380    -0.1540664630
   17      H       8.7754615933    -2.1255227036    -1.5083768121
   18      C       9.3321596765    -1.3983648478    -0.9277445309
   19      S       9.9069133087     0.5957351895     0.6429576861
   20      C      10.7351021454    -1.3485474139    -0.8652669056
   21      C      11.1872489921    -0.3262190780    -0.0470758831
   22      H      11.3977846316    -2.0254045569    -1.3909220320
   23      H      12.2128530137    -0.0685489714     0.1875110391
 ----------------------------------------------------------------
 Nuclear Repulsion Energy =  1178.1473113479 hartrees
 There are       64 alpha and       63 beta electrons
 Applying Cartesian multipole field
    Component          Value
    ---------          -----
     (2,0,0)        1.00000E-12
     (0,2,0)        2.00000E-11
     (0,0,2)       -3.00000E-11
 Nucleus-field energy     =     0.0000000303 hartrees
 Requested basis set is 6-31++G(d,p)
 There are 110 shells and 345 basis functions
 A cutoff of  1.0D-12 yielded   4705 shell pairs
 There are     47905 function pairs

 Q-Chem warning in module /project/projectdirs/jcesr/qchem/qc44/cnl_qc441/compile/cori/qc_src/libqints/qchem/aobasis.C, line 68:

 Using reconstructed effective core potential

 Smallest overlap matrix eigenvalue = 6.17E-08
 Linear dependence detected in AO basis
 Number of orthogonalized atomic orbitals = 342
 Maximum deviation from orthogonality = 7.623E-11
 Guess MOs from SCF MO coefficient file
 Reading MOs from coefficient file
 Reading MOs from coefficient file
 An unrestricted hybrid HF-DFT SCF calculation will be
 performed using Pulay DIIS extrapolation
 Exchange:     0.2000 Hartree-Fock + 0.0800 Slater + 0.7200 B88
 Correlation:  0.1900 VWN1RPA + 0.8100 LYP
 Using SG-1 standard quadrature grid
 SCF converges when DIIS error is below 1.0E-08
 Geometry optimization detected.  Setting ReadMinima to 0
 Setting SaveMinima to 0
 ---------------------------------------
  Cycle       Energy         DIIS Error
 ---------------------------------------
    1   -1656.2953927166      2.65E-03
    2   -1656.4088499715      5.32E-04
    3   -1656.3978632937      9.56E-04
    4   -1656.4139590482      1.36E-04
    5   -1656.4142375577      4.49E-05
    6   -1656.4142700918      1.53E-05
    7   -1656.4142738271      7.69E-06
    8   -1656.4142749340      1.75E-06
    9   -1656.4142750561      1.16E-06
   10   -1656.4142751099      3.81E-07
   11   -1656.4142751421      2.24E-07
   12   -1656.4142751567      1.02E-07
   13   -1656.4142751645      5.56E-08
   14   -1656.4142751662      3.03E-08
   15   -1656.4142751662      1.51E-08
   16   -1656.4142751673      7.37E-09 Convergence criterion met
 ---------------------------------------
 <S^2> = 0.7692
 SCF time:  CPU 22.80 s  wall 21.08 s
 SCF   energy in the final basis set = -1656.4142751673
 Total energy in the final basis set = -1656.4142751673
 
 --------------------------------------------------------------
 
                    Orbital Energies (a.u.)
 --------------------------------------------------------------
 
 Alpha MOs
 -- Occupied --
-89.078 -89.067 -89.063 -10.410 -10.408 -10.391 -10.387 -10.380
-10.374 -10.366 -10.365 -10.359 -10.355 -10.346 -10.342  -8.137
 -8.126  -8.122  -6.101  -6.098  -6.093  -6.091  -6.087  -6.086
 -6.084  -6.082  -6.079  -1.066  -1.042  -1.027  -0.944  -0.916
 -0.894  -0.891  -0.884  -0.840  -0.771  -0.748  -0.712  -0.702
 -0.688  -0.678  -0.673  -0.647  -0.605  -0.574  -0.571  -0.569
 -0.557  -0.551  -0.546  -0.545  -0.534  -0.524  -0.519  -0.511
 -0.495  -0.492  -0.452  -0.423  -0.407  -0.403  -0.395  -0.347
 -- Virtual --
 -0.229  -0.177  -0.143  -0.139  -0.127  -0.122  -0.113  -0.102
 -0.098  -0.095  -0.086  -0.084  -0.083  -0.081  -0.076  -0.073
 -0.070  -0.065  -0.062  -0.053  -0.046  -0.045  -0.034  -0.029
 -0.024  -0.022  -0.018  -0.009  -0.006   0.000   0.005   0.006
  0.007   0.011   0.013   0.021   0.024   0.028   0.030   0.033
  0.034   0.038   0.039   0.043   0.048   0.050   0.054   0.055
  0.056   0.059   0.062   0.067   0.071   0.075   0.076   0.079
  0.082   0.090   0.099   0.101   0.105   0.109   0.112   0.116
  0.120   0.123   0.126   0.128   0.134   0.141   0.145   0.151
  0.153   0.153   0.159   0.170   0.173   0.183   0.190   0.198
  0.203   0.208   0.226   0.229   0.230   0.238   0.244   0.251
  0.255   0.262   0.269   0.269   0.319   0.322   0.342   0.370
  0.378   0.382   0.390   0.405   0.432   0.439   0.449   0.455
  0.469   0.478   0.495   0.501   0.505   0.508   0.512   0.514
  0.521   0.524   0.544   0.552   0.568   0.572   0.583   0.587
  0.590   0.596   0.603   0.614   0.626   0.630   0.649   0.650
  0.678   0.681   0.691   0.694   0.697   0.710   0.731   0.748
  0.790   0.796   0.801   0.810   0.816   0.819   0.823   0.828
  0.842   0.845   0.849   0.853   0.870   0.877   0.891   0.902
  0.914   0.920   0.930   0.951   0.952   0.960   0.966   0.978
  0.995   1.025   1.029   1.035   1.046   1.081   1.096   1.117
  1.119   1.136   1.154   1.174   1.189   1.193   1.199   1.207
  1.215   1.219   1.238   1.292   1.312   1.317   1.335   1.348
  1.364   1.404   1.443   1.492   1.520   1.548   1.557   1.576
  1.670   1.690   1.707   1.716   1.738   1.767   1.778   1.789
  1.792   1.801   1.819   1.839   1.871   1.878   1.905   1.915
  1.926   1.955   1.969   2.011   2.024   2.034   2.051   2.061
  2.080   2.091   2.114   2.120   2.152   2.178   2.226   2.232
  2.278   2.286   2.293   2.310   2.316   2.322   2.343   2.365
  2.375   2.384   2.393   2.410   2.433   2.443   2.464   2.475
  2.522   2.540   2.564   2.570   2.584   2.686   2.719   2.723
  2.759   2.770   2.786   2.794   2.984   3.035   3.074   3.138
  3.141   3.172   3.269   3.273   3.530   3.594   3.602   3.824
  3.836   3.844   4.100   4.124   4.163   4.172   4.179   4.183
  4.238   4.324   4.395   4.507   4.552   4.576
 
 Beta MOs
 -- Occupied --
-89.078 -89.067 -89.063 -10.407 -10.406 -10.390 -10.387 -10.377
-10.372 -10.365 -10.364 -10.357 -10.353 -10.347 -10.342  -8.137
 -8.126  -8.122  -6.102  -6.098  -6.094  -6.091  -6.087  -6.086
 -6.084  -6.083  -6.079  -1.062  -1.038  -1.023  -0.938  -0.914
 -0.893  -0.889  -0.880  -0.833  -0.768  -0.744  -0.710  -0.699
 -0.686  -0.677  -0.671  -0.645  -0.604  -0.570  -0.567  -0.563
 -0.555  -0.549  -0.545  -0.538  -0.532  -0.522  -0.510  -0.509
 -0.495  -0.491  -0.434  -0.420  -0.403  -0.400  -0.378
 -- Virtual --
 -0.294  -0.213  -0.166  -0.140  -0.134  -0.123  -0.119  -0.112
 -0.097  -0.095  -0.092  -0.084  -0.081  -0.078  -0.077  -0.074
 -0.070  -0.069  -0.064  -0.061  -0.053  -0.045  -0.044  -0.034
 -0.028  -0.023  -0.021  -0.017  -0.008  -0.005   0.002   0.005
  0.007   0.008   0.012   0.014   0.021   0.025   0.028   0.031
  0.034   0.035   0.038   0.040   0.044   0.049   0.050   0.055
  0.056   0.057   0.060   0.063   0.067   0.072   0.076   0.076
  0.080   0.083   0.091   0.100   0.102   0.106   0.109   0.113
  0.117   0.121   0.124   0.127   0.129   0.135   0.142   0.147
  0.152   0.154   0.154   0.160   0.171   0.174   0.184   0.191
  0.199   0.204   0.209   0.226   0.230   0.232   0.240   0.245
  0.252   0.257   0.263   0.270   0.271   0.320   0.323   0.343
  0.371   0.378   0.383   0.390   0.406   0.433   0.440   0.450
  0.456   0.470   0.479   0.496   0.503   0.510   0.512   0.515
  0.519   0.525   0.529   0.546   0.555   0.569   0.576   0.585
  0.589   0.592   0.597   0.606   0.619   0.630   0.636   0.650
  0.651   0.681   0.685   0.693   0.695   0.701   0.714   0.732
  0.749   0.794   0.797   0.802   0.812   0.817   0.822   0.825
  0.831   0.843   0.846   0.851   0.854   0.871   0.878   0.892
  0.903   0.916   0.921   0.931   0.952   0.953   0.961   0.967
  0.979   0.997   1.027   1.032   1.037   1.049   1.084   1.099
  1.120   1.123   1.142   1.156   1.175   1.193   1.195   1.202
  1.211   1.220   1.224   1.241   1.294   1.317   1.321   1.339
  1.353   1.367   1.407   1.446   1.498   1.527   1.555   1.566
  1.582   1.675   1.692   1.708   1.720   1.740   1.767   1.780
  1.791   1.794   1.805   1.823   1.842   1.874   1.881   1.910
  1.918   1.930   1.958   1.974   2.017   2.031   2.040   2.054
  2.065   2.084   2.095   2.119   2.124   2.158   2.183   2.228
  2.234   2.284   2.289   2.295   2.314   2.319   2.325   2.345
  2.367   2.379   2.388   2.394   2.412   2.436   2.445   2.467
  2.479   2.525   2.542   2.567   2.573   2.587   2.689   2.721
  2.726   2.762   2.772   2.787   2.796   2.985   3.036   3.075
  3.138   3.142   3.173   3.270   3.274   3.531   3.595   3.603
  3.824   3.837   3.844   4.104   4.128   4.165   4.176   4.182
  4.185   4.242   4.327   4.400   4.510   4.555   4.579
 --------------------------------------------------------------
 
          Ground-State Mulliken Net Atomic Charges

     Atom                 Charge (a.u.)    Spin (a.u.)
  --------------------------------------------------------
      1 H                     0.241551      -0.011920
      2 H                     0.163216       0.001703
      3 C                     0.058292       0.231230
      4 C                    -0.260691      -0.041664
      5 S                    -0.034685      -0.025854
      6 C                     0.463616       0.144929
      7 H                     0.141870      -0.009469
      8 C                    -0.132061       0.028895
      9 H                     0.137826      -0.005420
     10 C                    -0.092331       0.172497
     11 C                    -0.170706       0.070288
     12 S                    -0.204843      -0.058184
     13 C                     0.153962       0.048788
     14 H                     0.157913      -0.003347
     15 C                    -0.116105       0.179471
     16 C                    -0.244960       0.025358
     17 H                     0.153187      -0.008592
     18 C                     0.451456       0.127276
     19 S                     0.061803      -0.021454
     20 C                    -0.370195      -0.036803
     21 C                     0.050610       0.201326
     22 H                     0.157395       0.001712
     23 H                     0.233882      -0.010765
  --------------------------------------------------------
  Sum of atomic charges =     1.000000
  Sum of spin   charges =     1.000000

 -----------------------------------------------------------------
                    Cartesian Multipole Moments
 -----------------------------------------------------------------
    Charge (ESU x 10^10)
                 4.8032
    Dipole Moment (Debye)
         X      28.7827      Y      -2.4737      Z      -1.2689
       Tot      28.9167
    Quadrupole Moments (Debye-Ang)
        XX     154.7363     XY     -11.8768     YY     -89.2250
        XZ      -8.1268     YZ       7.9460     ZZ    -107.2163
    Octopole Moments (Debye-Ang^2)
       XXX     704.9113    XXY     -77.4965    XYY    -558.3260
       YYY     104.5709    XXZ     -57.1566    XYZ      55.8060
       YYZ       2.1584    XZZ    -641.6354    YZZ      37.5734
       ZZZ      45.9428
    Hexadecapole Moments (Debye-Ang^3)
      XXXX   -2086.3778   XXXY    -673.3927   XXYY   -4612.6432
      XYYY     588.8573   YYYY    -780.7049   XXXZ    -457.2763
      XXYZ     461.5864   XYYZ      -3.6760   YYYZ     -88.7571
      XXZZ   -5075.4832   XYZZ     175.6902   YYZZ    -179.8857
      XZZZ     229.6450   YZZZ    -131.8514   ZZZZ    -269.4803
 -----------------------------------------------------------------
 Calculating analytic gradient of the SCF energy
 Gradient of SCF Energy
            1           2           3           4           5           6
    1  -0.0001030   0.0001040   0.0021657  -0.0004036   0.0035571   0.0021970
    2   0.0006492  -0.0002705  -0.0010816  -0.0011816  -0.0003570  -0.0027767
    3   0.0000135  -0.0000206  -0.0003314  -0.0000156   0.0002140   0.0005537
            7           8           9          10          11          12
    1   0.0004142  -0.0073713  -0.0009075   0.0113031  -0.0047673  -0.0009040
    2  -0.0001872   0.0166703   0.0009631  -0.0176409   0.0032062   0.0037788
    3  -0.0007185   0.0023101   0.0005103  -0.0026543   0.0000600   0.0014067
           13          14          15          16          17          18
    1   0.0006344  -0.0005396  -0.0078117   0.0053542  -0.0001790  -0.0010161
    2   0.0026923  -0.0000012  -0.0076463   0.0063727  -0.0008352   0.0015428
    3  -0.0050754   0.0010265   0.0010075   0.0076984   0.0008522  -0.0058655
           19          20          21          22          23
    1  -0.0024767   0.0008032  -0.0004816   0.0001659   0.0002626
    2  -0.0026518  -0.0004872  -0.0010414  -0.0002537   0.0005372
    3  -0.0005853  -0.0009535   0.0005407   0.0001231  -0.0000966
 Max gradient component =       1.764E-02
 RMS gradient           =       4.189E-03
 Gradient time:  CPU 4.17 s  wall 4.18 s
 Geometry Optimization Parameters
   NAtoms,    NIC,     NZ,  NCons,   NDum,   NFix, NCnnct, MaxDiis
       23     166       0       1       0       0       0       0

 Cartesian Hessian Update
 Hessian Updated using BFGS Update


** CONSTRAINED OPTIMIZATION IN DELOCALIZED INTERNAL COORDINATES **
   Searching for a Minimum

   Optimization Cycle:   3

                       Coordinates (Angstroms)
     ATOM                X               Y               Z
      1  H        -0.0651701269   -0.3788503427   -0.0911875612
      2  H         0.9134957588   -2.7625221829   -0.6889969510
      3  C         0.9811293882   -0.6450291692   -0.1788650387
      4  C         1.5176013055   -1.8853248194   -0.4915673530
      5  S         2.1751377367    0.5669364325    0.0830266616
      6  C         2.9186676038   -1.8583952585   -0.5245400128
      7  H         3.5371365372   -2.7169090742   -0.7643821424
      8  C         3.4512533591   -0.5865685413   -0.2356244195
      9  H         4.6588282258    1.8945856299    0.2719711399
     10  C         4.8261948630   -0.2611106648   -0.1610209017
     11  C         5.3127657361    1.0416980794    0.1212625013
     12  S         6.1279675013   -1.3966127206   -0.3620847659
     13  C         6.6931598978    1.1021423368    0.1742012357
     14  H         7.2564579670    2.0049385390    0.3782655579
     15  C         7.3130169661   -0.1468914839   -0.0692780487
     16  C         8.7117139191   -0.4012042380   -0.1540664630
     17  H         8.7754615933   -2.1255227036   -1.5083768121
     18  C         9.3321596765   -1.3983648478   -0.9277445309
     19  S         9.9069133087    0.5957351895    0.6429576861
     20  C        10.7351021454   -1.3485474139   -0.8652669056
     21  C        11.1872489921   -0.3262190780   -0.0470758831
     22  H        11.3977846316   -2.0254045569   -1.3909220320
     23  H        12.2128530137   -0.0685489714    0.1875110391
   Point Group: c1    Number of degrees of freedom:    63


   Energy is  -1656.414275167

              Constraints and their Current Values
                                        Value     Constraint
   Dihedral:       13  15  16  18     -150.000     -150.000
 Hessian Updated using BFGS Update

 61 Hessian modes will be used to form the next step
  Hessian Eigenvalues:
     0.044463    0.045000    0.045000    0.045000    0.045000    0.045001
     0.045001    0.045002    0.045003    0.045003    0.045006    0.045010
     0.045012    0.045012    0.045025    0.045051    0.045057    0.045061
     0.155248    0.159946    0.159964    0.159990    0.159993    0.160000
     0.160025    0.160429    0.170850    0.221308    0.223558    0.229853
     0.238435    0.240288    0.249312    0.249672    0.261512    0.278879
     0.322724    0.326561    0.327901    0.338623    0.340053    0.341674
     0.365513    0.365518    0.365832    0.366889    0.367259    0.367824
     0.370099    0.370868    0.399510    0.422900    0.435400    0.435679
     0.442394    0.463127    0.465215    0.481005    0.495494    0.497248
     0.573219

 Minimum Search - Taking Simple RFO Step
 Searching for Lamda that Minimizes Along All modes
 Value Taken    Lamda =  -0.00296842
 Step Taken.  Stepsize is  0.145034

                             Maximum     Tolerance    Cnvgd?
         Gradient           0.011139      0.000300      NO
         Displacement       0.075411      0.001200      NO
         Energy change     -0.012709      0.000001      NO


 New Cartesian Coordinates Obtained by Inverse Iteration

 Displacement from previous Coordinates is:  0.365950
 ----------------------------------------------------------------
             Standard Nuclear Orientation (Angstroms)
    I     Atom           X                Y                Z
 ----------------------------------------------------------------
    1      H      -0.0904253991    -0.4180211625    -0.1390642658
    2      H       0.9303767981    -2.7816208794    -0.7230552074
    3      C       0.9609747746    -0.6686034491    -0.2089650122
    4      C       1.5225116509    -1.8991529172    -0.5141252415
    5      S       2.1432315633     0.5480661248     0.0719105345
    6      C       2.9248359138    -1.8633284877    -0.5222660221
    7      H       3.5490756782    -2.7204736135    -0.7490243531
    8      C       3.4502679303    -0.5928487082    -0.2217192715
    9      H       4.6835156896     1.9413953399     0.3010943432
   10      C       4.8075650784    -0.2100059779    -0.1234596075
   11      C       5.3251443209     1.0793722092     0.1572437150
   12      S       6.1115952573    -1.3609910130    -0.3243394214
   13      C       6.7076852260     1.1242633470     0.2038422918
   14      H       7.2818564461     2.0245215454     0.3895926599
   15      C       7.3238575672    -0.1261780444    -0.0411543306
   16      C       8.7089697620    -0.4167560411    -0.1521025545
   17      H       8.7639022718    -2.1509629574    -1.4897524789
   18      C       9.3240693056    -1.4213955911    -0.9156656875
   19      S       9.9220185083     0.6025937100     0.6100419727
   20      C      10.7268790689    -1.3663011180    -0.8703151139
   21      C      11.1935667966    -0.3297005813    -0.0792345622
   22      H      11.3824612986    -2.0485110737    -1.3975506470
   23      H      12.2229444926    -0.0713505207     0.1362642600
 ----------------------------------------------------------------
 Nuclear Repulsion Energy =  1176.4428501717 hartrees
 There are       64 alpha and       63 beta electrons
 Applying Cartesian multipole field
    Component          Value
    ---------          -----
     (2,0,0)        1.00000E-12
     (0,2,0)        2.00000E-11
     (0,0,2)       -3.00000E-11
 Nucleus-field energy     =     0.0000000304 hartrees
 Requested basis set is 6-31++G(d,p)
 There are 110 shells and 345 basis functions
 A cutoff of  1.0D-12 yielded   4697 shell pairs
 There are     47818 function pairs

 Q-Chem warning in module /project/projectdirs/jcesr/qchem/qc44/cnl_qc441/compile/cori/qc_src/libqints/qchem/aobasis.C, line 68:

 Using reconstructed effective core potential

 Smallest overlap matrix eigenvalue = 6.70E-08
 Linear dependence detected in AO basis
 Number of orthogonalized atomic orbitals = 342
 Maximum deviation from orthogonality = 4.609E-11
 Guess MOs from SCF MO coefficient file
 Reading MOs from coefficient file
 Reading MOs from coefficient file
 An unrestricted hybrid HF-DFT SCF calculation will be
 performed using Pulay DIIS extrapolation
 Exchange:     0.2000 Hartree-Fock + 0.0800 Slater + 0.7200 B88
 Correlation:  0.1900 VWN1RPA + 0.8100 LYP
 Using SG-1 standard quadrature grid
 SCF converges when DIIS error is below 1.0E-08
 Geometry optimization detected.  Setting ReadMinima to 0
 Setting SaveMinima to 0
 ---------------------------------------
  Cycle       Energy         DIIS Error
 ---------------------------------------
    1   -1656.3705419643      1.11E-03
    2   -1656.4145629661      2.50E-04
    3   -1656.4119826869      4.55E-04
    4   -1656.4157313702      8.03E-05
    5   -1656.4158312849      2.12E-05
    6   -1656.4158387706      7.64E-06
    7   -1656.4158396864      4.05E-06
    8   -1656.4158400068      9.44E-07
    9   -1656.4158400553      7.62E-07
   10   -1656.4158400817      2.38E-07
   11   -1656.4158400964      1.41E-07
   12   -1656.4158401042      7.53E-08
   13   -1656.4158401056      3.02E-08
   14   -1656.4158401057      1.06E-08
   15   -1656.4158401083      5.94E-09 Convergence criterion met
 ---------------------------------------
 <S^2> = 0.7686
 SCF time:  CPU 20.85 s  wall 19.38 s
 SCF   energy in the final basis set = -1656.4158401083
 Total energy in the final basis set = -1656.4158401083
 
 --------------------------------------------------------------
 
                    Orbital Energies (a.u.)
 --------------------------------------------------------------
 
 Alpha MOs
 -- Occupied --
-89.074 -89.066 -89.063 -10.410 -10.410 -10.392 -10.389 -10.380
-10.375 -10.367 -10.366 -10.359 -10.356 -10.346 -10.343  -8.134
 -8.125  -8.122  -6.098  -6.094  -6.090  -6.089  -6.086  -6.085
 -6.082  -6.082  -6.079  -1.064  -1.041  -1.026  -0.944  -0.915
 -0.893  -0.891  -0.883  -0.842  -0.772  -0.749  -0.713  -0.703
 -0.687  -0.678  -0.673  -0.646  -0.607  -0.573  -0.571  -0.570
 -0.560  -0.551  -0.548  -0.545  -0.535  -0.522  -0.519  -0.508
 -0.492  -0.490  -0.454  -0.422  -0.406  -0.404  -0.395  -0.348
 -- Virtual --
 -0.230  -0.178  -0.142  -0.139  -0.127  -0.122  -0.112  -0.102
 -0.098  -0.095  -0.086  -0.083  -0.081  -0.081  -0.076  -0.074
 -0.070  -0.065  -0.062  -0.053  -0.046  -0.045  -0.034  -0.028
 -0.024  -0.022  -0.017  -0.008  -0.006   0.000   0.005   0.006
  0.008   0.012   0.013   0.020   0.024   0.027   0.030   0.033
  0.035   0.038   0.040   0.043   0.047   0.050   0.054   0.055
  0.056   0.060   0.063   0.067   0.072   0.073   0.077   0.080
  0.083   0.089   0.099   0.101   0.105   0.107   0.111   0.116
  0.119   0.123   0.126   0.127   0.133   0.141   0.144   0.151
  0.153   0.154   0.160   0.170   0.173   0.184   0.191   0.197
  0.202   0.208   0.224   0.228   0.230   0.239   0.245   0.252
  0.257   0.263   0.269   0.271   0.319   0.323   0.344   0.371
  0.379   0.383   0.391   0.404   0.433   0.441   0.447   0.454
  0.467   0.479   0.494   0.500   0.506   0.509   0.512   0.513
  0.521   0.523   0.545   0.550   0.566   0.572   0.583   0.586
  0.590   0.596   0.603   0.614   0.625   0.629   0.648   0.650
  0.679   0.682   0.691   0.694   0.698   0.711   0.730   0.748
  0.790   0.796   0.799   0.808   0.817   0.819   0.824   0.828
  0.842   0.847   0.848   0.853   0.869   0.877   0.891   0.902
  0.912   0.920   0.929   0.951   0.953   0.959   0.966   0.979
  0.994   1.021   1.027   1.035   1.046   1.080   1.094   1.113
  1.115   1.131   1.153   1.171   1.191   1.192   1.198   1.206
  1.214   1.217   1.237   1.305   1.320   1.328   1.336   1.350
  1.367   1.406   1.447   1.491   1.525   1.546   1.559   1.574
  1.666   1.686   1.706   1.715   1.731   1.766   1.772   1.783
  1.790   1.792   1.812   1.834   1.868   1.879   1.899   1.916
  1.926   1.958   1.964   2.008   2.023   2.033   2.046   2.055
  2.075   2.089   2.109   2.123   2.149   2.184   2.226   2.232
  2.278   2.284   2.294   2.305   2.313   2.323   2.342   2.361
  2.377   2.384   2.396   2.404   2.433   2.446   2.463   2.478
  2.522   2.542   2.564   2.571   2.584   2.679   2.718   2.733
  2.767   2.782   2.788   2.798   2.985   3.037   3.076   3.140
  3.142   3.172   3.270   3.273   3.526   3.592   3.602   3.826
  3.835   3.844   4.100   4.125   4.160   4.174   4.179   4.184
  4.240   4.326   4.394   4.506   4.552   4.577
 
 Beta MOs
 -- Occupied --
-89.075 -89.066 -89.063 -10.407 -10.407 -10.392 -10.388 -10.377
-10.373 -10.366 -10.365 -10.357 -10.354 -10.347 -10.343  -8.134
 -8.125  -8.122  -6.098  -6.095  -6.091  -6.089  -6.086  -6.085
 -6.083  -6.082  -6.079  -1.060  -1.038  -1.023  -0.939  -0.913
 -0.892  -0.889  -0.880  -0.835  -0.769  -0.746  -0.710  -0.701
 -0.685  -0.676  -0.671  -0.644  -0.605  -0.570  -0.569  -0.562
 -0.557  -0.550  -0.546  -0.538  -0.533  -0.520  -0.508  -0.507
 -0.491  -0.489  -0.435  -0.419  -0.402  -0.400  -0.379
 -- Virtual --
 -0.295  -0.215  -0.167  -0.138  -0.134  -0.123  -0.119  -0.112
 -0.098  -0.095  -0.093  -0.084  -0.081  -0.077  -0.076  -0.072
 -0.070  -0.069  -0.064  -0.061  -0.053  -0.045  -0.044  -0.034
 -0.027  -0.022  -0.021  -0.017  -0.008  -0.006   0.002   0.005
  0.006   0.008   0.012   0.014   0.021   0.024   0.027   0.031
  0.034   0.035   0.038   0.041   0.044   0.048   0.051   0.054
  0.055   0.057   0.061   0.063   0.068   0.073   0.074   0.078
  0.081   0.084   0.091   0.100   0.102   0.106   0.108   0.112
  0.117   0.120   0.124   0.127   0.129   0.134   0.142   0.146
  0.152   0.154   0.155   0.160   0.170   0.174   0.184   0.192
  0.199   0.203   0.209   0.225   0.229   0.232   0.240   0.246
  0.253   0.259   0.264   0.270   0.273   0.320   0.324   0.345
  0.371   0.379   0.384   0.391   0.405   0.434   0.442   0.448
  0.455   0.468   0.480   0.495   0.502   0.513   0.513   0.515
  0.519   0.524   0.528   0.546   0.554   0.566   0.575   0.585
  0.588   0.592   0.596   0.606   0.619   0.628   0.635   0.649
  0.651   0.682   0.686   0.693   0.696   0.701   0.714   0.731
  0.749   0.793   0.797   0.800   0.810   0.818   0.822   0.827
  0.830   0.843   0.847   0.849   0.854   0.870   0.878   0.892
  0.903   0.913   0.921   0.930   0.952   0.955   0.960   0.967
  0.980   0.997   1.023   1.030   1.037   1.049   1.083   1.096
  1.116   1.119   1.137   1.155   1.173   1.194   1.195   1.201
  1.210   1.219   1.222   1.239   1.307   1.326   1.332   1.341
  1.354   1.371   1.409   1.450   1.496   1.532   1.553   1.568
  1.581   1.671   1.688   1.707   1.719   1.733   1.767   1.776
  1.786   1.793   1.793   1.816   1.837   1.872   1.883   1.904
  1.919   1.930   1.960   1.969   2.014   2.030   2.039   2.050
  2.059   2.081   2.094   2.114   2.129   2.155   2.189   2.229
  2.234   2.282   2.287   2.299   2.307   2.318   2.327   2.343
  2.364   2.381   2.387   2.397   2.407   2.436   2.448   2.466
  2.482   2.526   2.543   2.567   2.573   2.586   2.682   2.721
  2.736   2.771   2.784   2.790   2.800   2.986   3.038   3.077
  3.140   3.142   3.173   3.271   3.274   3.527   3.593   3.603
  3.826   3.835   3.844   4.104   4.129   4.163   4.177   4.181
  4.188   4.244   4.329   4.398   4.509   4.555   4.580
 --------------------------------------------------------------
 
          Ground-State Mulliken Net Atomic Charges

     Atom                 Charge (a.u.)    Spin (a.u.)
  --------------------------------------------------------
      1 H                     0.242218      -0.011636
      2 H                     0.163510       0.001482
      3 C                     0.070181       0.225558
      4 C                    -0.260584      -0.037337
      5 S                    -0.040422      -0.022558
      6 C                     0.490347       0.138557
      7 H                     0.143519      -0.009117
      8 C                    -0.196284       0.029880
      9 H                     0.144258      -0.005169
     10 C                    -0.101525       0.173915
     11 C                    -0.090858       0.067603
     12 S                    -0.259152      -0.060193
     13 C                     0.170566       0.056773
     14 H                     0.159445      -0.003961
     15 C                    -0.142233       0.174542
     16 C                    -0.253144       0.028416
     17 H                     0.156629      -0.008397
     18 C                     0.486000       0.123135
     19 S                     0.051211      -0.019082
     20 C                    -0.385977      -0.033398
     21 C                     0.060327       0.200190
     22 H                     0.157622       0.001517
     23 H                     0.234349      -0.010720
  --------------------------------------------------------
  Sum of atomic charges =     1.000000
  Sum of spin   charges =     1.000000

 -----------------------------------------------------------------
                    Cartesian Multipole Moments
 -----------------------------------------------------------------
    Charge (ESU x 10^10)
                 4.8032
    Dipole Moment (Debye)
         X      28.8683      Y      -2.4456      Z      -1.3276
       Tot      29.0021
    Quadrupole Moments (Debye-Ang)
        XX     156.5900     XY     -11.5141     YY     -89.1512
        XZ      -8.5064     YZ       7.9528     ZZ    -107.3522
    Octopole Moments (Debye-Ang^2)
       XXX     730.4517    XXY     -76.2021    XYY    -556.7731
       YYY     103.6444    XXZ     -63.6938    XYZ      55.6283
       YYZ       1.8007    XZZ    -642.4084    YZZ      37.1669
       ZZZ      45.1024
    Hexadecapole Moments (Debye-Ang^3)
      XXXX   -1787.0569   XXXY    -680.2467   XXYY   -4600.6405
      XYYY     577.9633   YYYY    -783.5812   XXXZ    -544.5146
      XXYZ     460.3536   XYYZ      -5.2787   YYYZ     -87.4731
      XXZZ   -5085.3864   XYZZ     171.6146   YYZZ    -179.9289
      XZZZ     225.2749   YZZZ    -131.9965   ZZZZ    -265.4523
 -----------------------------------------------------------------
 Calculating analytic gradient of the SCF energy
 Gradient of SCF Energy
            1           2           3           4           5           6
    1  -0.0002884  -0.0002570  -0.0015628  -0.0004683   0.0020019   0.0002434
    2   0.0003149   0.0002349  -0.0011091   0.0004840  -0.0017500  -0.0013661
    3  -0.0000180   0.0001031  -0.0000584   0.0001318  -0.0003941   0.0004617
            7           8           9          10          11          12
    1   0.0002810   0.0012325  -0.0008172  -0.0002507   0.0006840  -0.0015634
    2   0.0002629   0.0038409  -0.0002946  -0.0039347   0.0016296   0.0024160
    3  -0.0003852  -0.0000792  -0.0000622  -0.0002195   0.0002458   0.0009371
           13          14          15          16          17          18
    1  -0.0011968   0.0003677   0.0017728  -0.0000847  -0.0001723   0.0002039
    2   0.0015533  -0.0003376  -0.0006554  -0.0017378  -0.0003289   0.0021387
    3  -0.0043134   0.0003997   0.0037982   0.0032530   0.0004212  -0.0043682
           19          20          21          22          23
    1  -0.0014913  -0.0000418   0.0011126   0.0001236   0.0001715
    2  -0.0012591   0.0005326  -0.0011215   0.0000968   0.0003904
    3  -0.0002527   0.0002454   0.0001108   0.0001021  -0.0000590
 Max gradient component =       4.368E-03
 RMS gradient           =       1.447E-03
 Gradient time:  CPU 4.26 s  wall 4.17 s
 Geometry Optimization Parameters
   NAtoms,    NIC,     NZ,  NCons,   NDum,   NFix, NCnnct, MaxDiis
       23     166       0       1       0       0       0       0

 Cartesian Hessian Update
 Hessian Updated using BFGS Update


** CONSTRAINED OPTIMIZATION IN DELOCALIZED INTERNAL COORDINATES **
   Searching for a Minimum

   Optimization Cycle:   4

                       Coordinates (Angstroms)
     ATOM                X               Y               Z
      1  H        -0.0904253991   -0.4180211625   -0.1390642658
      2  H         0.9303767981   -2.7816208794   -0.7230552074
      3  C         0.9609747746   -0.6686034491   -0.2089650122
      4  C         1.5225116509   -1.8991529172   -0.5141252415
      5  S         2.1432315633    0.5480661248    0.0719105345
      6  C         2.9248359138   -1.8633284877   -0.5222660221
      7  H         3.5490756782   -2.7204736135   -0.7490243531
      8  C         3.4502679303   -0.5928487082   -0.2217192715
      9  H         4.6835156896    1.9413953399    0.3010943432
     10  C         4.8075650784   -0.2100059779   -0.1234596075
     11  C         5.3251443209    1.0793722092    0.1572437150
     12  S         6.1115952573   -1.3609910130   -0.3243394214
     13  C         6.7076852260    1.1242633470    0.2038422918
     14  H         7.2818564461    2.0245215454    0.3895926599
     15  C         7.3238575672   -0.1261780444   -0.0411543306
     16  C         8.7089697620   -0.4167560411   -0.1521025545
     17  H         8.7639022718   -2.1509629574   -1.4897524789
     18  C         9.3240693056   -1.4213955911   -0.9156656875
     19  S         9.9220185083    0.6025937100    0.6100419727
     20  C        10.7268790689   -1.3663011180   -0.8703151139
     21  C        11.1935667966   -0.3297005813   -0.0792345622
     22  H        11.3824612986   -2.0485110737   -1.3975506470
     23  H        12.2229444926   -0.0713505207    0.1362642600
   Point Group: c1    Number of degrees of freedom:    63


   Energy is  -1656.415840108

              Constraints and their Current Values
                                        Value     Constraint
   Dihedral:       13  15  16  18     -150.000     -150.000
 Hessian Updated using BFGS Update

 61 Hessian modes will be used to form the next step
  Hessian Eigenvalues:
     0.041101    0.045000    0.045000    0.045000    0.045001    0.045001
     0.045002    0.045002    0.045003    0.045005    0.045009    0.045011
     0.045012    0.045023    0.045033    0.045054    0.045058    0.045105
     0.153749    0.159947    0.159974    0.159987    0.159996    0.160001
     0.160362    0.162203    0.168351    0.221328    0.223765    0.229535
     0.238401    0.241472    0.249671    0.250565    0.266834    0.283881
     0.321819    0.326576    0.327606    0.339123    0.340207    0.341231
     0.365513    0.365525    0.365824    0.366889    0.367249    0.367881
     0.370109    0.370647    0.399448    0.419304    0.435476    0.435686
     0.445167    0.463332    0.464122    0.479221    0.495493    0.498086
     0.576710

 Minimum Search - Taking Simple RFO Step
 Searching for Lamda that Minimizes Along All modes
 Value Taken    Lamda =  -0.00019299
 Step Taken.  Stepsize is  0.047970

                             Maximum     Tolerance    Cnvgd?
         Gradient           0.001883      0.000300      NO
         Displacement       0.017572      0.001200      NO
         Energy change     -0.001565      0.000001      NO


 New Cartesian Coordinates Obtained by Inverse Iteration

 Displacement from previous Coordinates is:  0.157335
 ----------------------------------------------------------------
             Standard Nuclear Orientation (Angstroms)
    I     Atom           X                Y                Z
 ----------------------------------------------------------------
    1      H      -0.0883326735    -0.4107735241    -0.1637988454
    2      H       0.9303459254    -2.7766897237    -0.7388265449
    3      C       0.9630302474    -0.6616930176    -0.2244001360
    4      C       1.5220529230    -1.8950874842    -0.5245174240
    5      S       2.1420976880     0.5532793342     0.0682370037
    6      C       2.9227507705    -1.8643756032    -0.5196689229
    7      H       3.5440518979    -2.7256650289    -0.7382971530
[...]
      2 H                     0.163403       0.001419
      3 C                     0.065608       0.223387
      4 C                    -0.256775      -0.035463
      5 S                    -0.032882      -0.020427
      6 C                     0.479448       0.135592
      7 H                     0.142942      -0.008988
      8 C                    -0.188700       0.030095
      9 H                     0.143312      -0.005068
     10 C                    -0.101506       0.175151
     11 C                    -0.080718       0.065368
     12 S                    -0.256035      -0.059756
     13 C                     0.153420       0.059037
     14 H                     0.157674      -0.004160
     15 C                    -0.140815       0.171313
     16 C                    -0.246922       0.030844
     17 H                     0.155676      -0.008467
     18 C                     0.482072       0.120831
     19 S                     0.051976      -0.018217
     20 C                    -0.379975      -0.031637
     21 C                     0.055550       0.200046
     22 H                     0.157840       0.001505
     23 H                     0.233905      -0.010821
  --------------------------------------------------------
  Sum of atomic charges =     1.000000
  Sum of spin   charges =     1.000000

 -----------------------------------------------------------------
                    Cartesian Multipole Moments
 -----------------------------------------------------------------
    Charge (ESU x 10^10)
                 4.8032
    Dipole Moment (Debye)
         X      28.9042      Y      -2.4160      Z      -1.3806
       Tot      29.0378
    Quadrupole Moments (Debye-Ang)
        XX     157.0647     XY     -11.2143     YY     -89.0041
        XZ      -8.9060     YZ       7.9518     ZZ    -107.4740
    Octopole Moments (Debye-Ang^2)
       XXX     735.8899    XXY     -71.1016    XYY    -555.4182
       YYY     103.2241    XXZ     -71.9321    XYZ      55.3415
       YYZ       1.6313    XZZ    -643.7470    YZZ      37.3157
       ZZZ      44.5105
    Hexadecapole Moments (Debye-Ang^3)
      XXXX   -1733.8985   XXXY    -610.3866   XXYY   -4590.0679
      XYYY     571.1413   YYYY    -787.0678   XXXZ    -664.1556
      XXYZ     458.7737   XYYZ      -5.2738   YYYZ     -86.5246
      XXZZ   -5097.6301   XYZZ     171.7087   YYZZ    -180.1142
      XZZZ     222.9157   YZZZ    -131.9328   ZZZZ    -261.4459
 -----------------------------------------------------------------
 Calculating analytic gradient of the SCF energy
 Gradient of SCF Energy
            1           2           3           4           5           6
    1  -0.0000048   0.0000007   0.0000084  -0.0000244  -0.0000041   0.0000138
    2  -0.0000003   0.0000074  -0.0000004   0.0000052  -0.0000105   0.0000078
    3  -0.0000054  -0.0000047   0.0000005  -0.0000183   0.0000113  -0.0000002
            7           8           9          10          11          12
    1   0.0000039   0.0000470  -0.0000102  -0.0000187  -0.0000488   0.0000386
    2   0.0000056   0.0000291  -0.0000025   0.0000201  -0.0000471   0.0000152
    3  -0.0000202  -0.0000076   0.0000156   0.0000203  -0.0000276   0.0000047
           13          14          15          16          17          18
    1  -0.0001904  -0.0000034   0.0004861  -0.0005398  -0.0000015   0.0002478
    2   0.0006789  -0.0000030   0.0004734  -0.0038197   0.0000185   0.0026162
    3  -0.0041011   0.0000008   0.0046345   0.0027943  -0.0000257  -0.0032704
           19          20          21          22          23
    1   0.0000124   0.0000038  -0.0000163  -0.0000015   0.0000016
    2  -0.0000076   0.0000038   0.0000144   0.0000035  -0.0000080
    3   0.0000009  -0.0000084  -0.0000084   0.0000022   0.0000130
 Max gradient component =       4.634E-03
 RMS gradient           =       1.074E-03
 Gradient time:  CPU 4.30 s  wall 4.20 s
 Geometry Optimization Parameters
   NAtoms,    NIC,     NZ,  NCons,   NDum,   NFix, NCnnct, MaxDiis
       23     166       0       1       0       0       0       0

 Cartesian Hessian Update
 Hessian Updated using BFGS Update


** CONSTRAINED OPTIMIZATION IN DELOCALIZED INTERNAL COORDINATES **
   Searching for a Minimum

   Optimization Cycle:   9

                       Coordinates (Angstroms)
     ATOM                X               Y               Z
      1  H        -0.0891567700   -0.3967904135   -0.1958830315
      2  H         0.9244626589   -2.7667890163   -0.7585304454
      3  C         0.9620628127   -0.6513622446   -0.2452124075
      4  C         1.5177918319   -1.8880671140   -0.5374417407
      5  S         2.1431998320    0.5571222697    0.0614342603
      6  C         2.9192729563   -1.8643761478   -0.5149644526
      7  H         3.5381989711   -2.7309038756   -0.7196768753
      8  C         3.4485638363   -0.6009903602   -0.2037098047
      9  H         4.6989861802    1.9338016550    0.3237799501
     10  C         4.8072912905   -0.2204506000   -0.0962865954
     11  C         5.3299466129    1.0636077425    0.1836496219
     12  S         6.1115499201   -1.3829172143   -0.2918405591
     13  C         6.7126252108    1.1038663063    0.2323536911
     14  H         7.2850370002    2.0074770363    0.4068427258
     15  C         7.3243903506   -0.1477954246   -0.0063307685
     16  C         8.7094041223   -0.4324240677   -0.1287813539
     17  H         8.7637727733   -2.1842291330   -1.4413002873
     18  C         9.3239218436   -1.4396777617   -0.8868518008
     19  S         9.9262952963    0.6300897760    0.5775444449
     20  C        10.7255719810   -1.3592620631   -0.8807456629
     21  C        11.1922620332   -0.2946151916   -0.1270637174
     22  H        11.3784739957   -2.0414328064   -1.4113149103
     23  H        12.2229552602   -0.0198712112    0.0585257194
   Point Group: c1    Number of degrees of freedom:    63


   Energy is  -1656.415996117

              Constraints and their Current Values
                                        Value     Constraint
   Dihedral:       13  15  16  18     -150.000     -150.000
 Hessian Updated using BFGS Update

 61 Hessian modes will be used to form the next step
  Hessian Eigenvalues:
     0.013708    0.031808    0.044997    0.045000    0.045001    0.045001
     0.045002    0.045003    0.045003    0.045006    0.045010    0.045011
     0.045013    0.045026    0.045039    0.045057    0.045063    0.045720
     0.153431    0.159404    0.159962    0.159996    0.160055    0.160212
     0.160516    0.161351    0.171368    0.219294    0.222242    0.227978
     0.241582    0.245731    0.248261    0.249875    0.272079    0.290141
     0.294519    0.326417    0.327279    0.334015    0.339945    0.341836
     0.365515    0.365567    0.365997    0.366895    0.367402    0.367924
     0.370135    0.371382    0.402454    0.427467    0.435589    0.440133
     0.462533    0.463499    0.474134    0.481866    0.495770    0.502799
     0.554098

 Minimum Search - Taking Simple RFO Step
 Searching for Lamda that Minimizes Along All modes
 Value Taken    Lamda =   0.00000000
 Step Taken.  Stepsize is  0.001635

                             Maximum     Tolerance    Cnvgd?
         Gradient           0.000030      0.000300     YES
         Displacement       0.000665      0.001200     YES
         Energy change     -0.000000      0.000001     YES

 Final energy is   -1656.41599611672     


 ******************************
 **  OPTIMIZATION CONVERGED  **
 ******************************

                       Coordinates (Angstroms)
     ATOM                X               Y               Z
      1  H        -0.0891567700   -0.3967904135   -0.1958830315
      2  H         0.9244626589   -2.7667890163   -0.7585304454
      3  C         0.9620628127   -0.6513622446   -0.2452124075
      4  C         1.5177918319   -1.8880671140   -0.5374417407
      5  S         2.1431998320    0.5571222697    0.0614342603
      6  C         2.9192729563   -1.8643761478   -0.5149644526
      7  H         3.5381989711   -2.7309038756   -0.7196768753
      8  C         3.4485638363   -0.6009903602   -0.2037098047
      9  H         4.6989861802    1.9338016550    0.3237799501
     10  C         4.8072912905   -0.2204506000   -0.0962865954
     11  C         5.3299466129    1.0636077425    0.1836496219
     12  S         6.1115499201   -1.3829172143   -0.2918405591
     13  C         6.7126252108    1.1038663063    0.2323536911
     14  H         7.2850370002    2.0074770363    0.4068427258
     15  C         7.3243903506   -0.1477954246   -0.0063307685
     16  C         8.7094041223   -0.4324240677   -0.1287813539
     17  H         8.7637727733   -2.1842291330   -1.4413002873
     18  C         9.3239218436   -1.4396777617   -0.8868518008
     19  S         9.9262952963    0.6300897760    0.5775444449
     20  C        10.7255719810   -1.3592620631   -0.8807456629
     21  C        11.1922620332   -0.2946151916   -0.1270637174
     22  H        11.3784739957   -2.0414328064   -1.4113149103
     23  H        12.2229552602   -0.0198712112    0.0585257194

Z-matrix Print:
$molecule
1 2
S 
C  1 1.754430
C  2 1.413465 1 110.590672
H  3 1.083796 2 122.472845 1 -178.420937 0
C  3 1.384122 2 113.619610 1 -0.108100 0
H  5 1.083967 3 123.612879 2 -178.769666 0
C  5 1.414333 3 113.736314 2 -0.061636 0
C  7 1.415094 5 127.878737 3 179.461750 0
C  8 1.404696 7 128.350848 5 178.191982 0
H  9 1.084365 8 123.057817 7 -0.148512 0
C  9 1.401862 8 113.294107 7 -179.966363 0
H  11 1.083084 9 124.377960 8 179.881061 0
C  11 1.386965 9 112.465318 8 -0.016915 0
H  13 1.082729 11 127.464290 9 -179.975845 0
C  2 1.419250 1 121.291908 3 -175.253943 0
C  15 1.402449 2 128.190440 1 24.365581 0
H  16 1.084222 15 122.904902 2 -4.065911 0
C  16 1.403968 15 113.201323 2 174.300454 0
H  18 1.083117 16 124.305057 15 -179.571828 0
C  18 1.385391 16 112.500507 15 -0.206533 0
H  20 1.082708 18 127.512938 16 178.652406 0
S  13 1.717426 11 112.922479 9 -0.016775 0
S  20 1.718786 18 112.851486 16 -0.356362 0
$end

 
 --------------------------------------------------------------
 
                    Orbital Energies (a.u.)
 --------------------------------------------------------------
 
 Alpha MOs
 -- Occupied --
-89.074 -89.066 -89.063 -10.410 -10.410 -10.392 -10.389 -10.380
-10.376 -10.367 -10.366 -10.359 -10.356 -10.346 -10.343  -8.133
 -8.125  -8.122  -6.098  -6.094  -6.090  -6.089  -6.086  -6.085
 -6.083  -6.082  -6.079  -1.064  -1.041  -1.026  -0.944  -0.915
 -0.893  -0.891  -0.883  -0.842  -0.772  -0.749  -0.713  -0.703
 -0.687  -0.678  -0.673  -0.646  -0.606  -0.572  -0.571  -0.570
 -0.560  -0.551  -0.547  -0.545  -0.535  -0.522  -0.519  -0.509
 -0.492  -0.490  -0.454  -0.422  -0.407  -0.404  -0.395  -0.347
 -- Virtual --
 -0.230  -0.178  -0.142  -0.140  -0.128  -0.123  -0.112  -0.102
 -0.099  -0.095  -0.086  -0.082  -0.081  -0.080  -0.076  -0.074
 -0.070  -0.065  -0.062  -0.053  -0.046  -0.045  -0.035  -0.028
 -0.023  -0.022  -0.017  -0.008  -0.006   0.000   0.005   0.005
  0.007   0.012   0.013   0.020   0.024   0.027   0.030   0.033
  0.035   0.038   0.040   0.043   0.048   0.049   0.053   0.055
  0.057   0.059   0.063   0.067   0.071   0.073   0.078   0.080
  0.083   0.089   0.098   0.101   0.105   0.107   0.112   0.116
  0.119   0.123   0.126   0.128   0.133   0.141   0.144   0.152
  0.153   0.154   0.160   0.170   0.173   0.183   0.191   0.198
  0.203   0.208   0.223   0.229   0.231   0.239   0.245   0.251
  0.257   0.263   0.268   0.272   0.320   0.324   0.344   0.371
  0.379   0.383   0.391   0.403   0.433   0.441   0.447   0.454
  0.466   0.479   0.495   0.500   0.507   0.510   0.512   0.514
  0.521   0.522   0.544   0.550   0.566   0.572   0.584   0.587
  0.590   0.595   0.603   0.614   0.625   0.629   0.648   0.650
  0.679   0.682   0.692   0.694   0.697   0.711   0.730   0.747
  0.790   0.796   0.799   0.807   0.817   0.820   0.824   0.829
  0.842   0.847   0.848   0.853   0.869   0.878   0.890   0.902
  0.910   0.920   0.929   0.952   0.952   0.960   0.965   0.978
  0.993   1.020   1.025   1.035   1.046   1.083   1.095   1.113
  1.116   1.130   1.152   1.171   1.191   1.193   1.198   1.206
  1.214   1.215   1.239   1.305   1.318   1.329   1.336   1.347
  1.367   1.405   1.449   1.494   1.523   1.543   1.559   1.574
  1.666   1.687   1.706   1.713   1.732   1.767   1.772   1.784
  1.790   1.793   1.812   1.836   1.869   1.880   1.900   1.917
  1.926   1.958   1.964   2.010   2.023   2.032   2.047   2.058
  2.074   2.088   2.110   2.122   2.148   2.184   2.228   2.232
  2.277   2.286   2.296   2.306   2.314   2.323   2.341   2.360
  2.377   2.384   2.397   2.405   2.433   2.445   2.463   2.478
  2.523   2.543   2.565   2.572   2.584   2.678   2.718   2.735
  2.767   2.783   2.790   2.800   2.987   3.038   3.077   3.140
  3.141   3.175   3.271   3.273   3.525   3.592   3.602   3.825
  3.834   3.843   4.099   4.126   4.161   4.174   4.178   4.183
  4.239   4.324   4.394   4.507   4.552   4.577
 
 Beta MOs
 -- Occupied --
-89.075 -89.066 -89.063 -10.407 -10.407 -10.392 -10.388 -10.377
-10.373 -10.366 -10.365 -10.357 -10.354 -10.346 -10.343  -8.134
 -8.125  -8.122  -6.098  -6.094  -6.090  -6.089  -6.086  -6.086
 -6.083  -6.082  -6.079  -1.059  -1.037  -1.022  -0.939  -0.912
 -0.892  -0.889  -0.880  -0.835  -0.768  -0.746  -0.710  -0.700
 -0.685  -0.676  -0.671  -0.644  -0.605  -0.569  -0.569  -0.562
 -0.557  -0.549  -0.545  -0.538  -0.533  -0.520  -0.508  -0.507
 -0.492  -0.490  -0.435  -0.419  -0.403  -0.400  -0.379
 -- Virtual --
 -0.295  -0.215  -0.167  -0.139  -0.134  -0.124  -0.120  -0.112
 -0.098  -0.095  -0.092  -0.084  -0.081  -0.077  -0.076  -0.072
 -0.071  -0.069  -0.064  -0.061  -0.052  -0.045  -0.044  -0.034
 -0.027  -0.022  -0.021  -0.016  -0.008  -0.006   0.002   0.005
  0.006   0.008   0.013   0.014   0.021   0.024   0.028   0.031
  0.034   0.035   0.038   0.041   0.044   0.048   0.050   0.054
  0.056   0.058   0.060   0.064   0.068   0.072   0.074   0.078
  0.080   0.084   0.090   0.098   0.102   0.106   0.108   0.113
  0.117   0.120   0.124   0.127   0.129   0.134   0.142   0.145
  0.152   0.154   0.155   0.161   0.171   0.174   0.184   0.193
  0.199   0.204   0.210   0.224   0.230   0.232   0.241   0.246
  0.252   0.258   0.264   0.270   0.273   0.321   0.325   0.345
  0.371   0.379   0.384   0.392   0.404   0.434   0.443   0.449
  0.455   0.467   0.480   0.496   0.501   0.513   0.513   0.515
  0.519   0.523   0.529   0.545   0.553   0.567   0.575   0.586
  0.589   0.592   0.596   0.607   0.619   0.628   0.635   0.650
  0.651   0.682   0.687   0.693   0.697   0.700   0.715   0.731
  0.748   0.793   0.797   0.800   0.809   0.818   0.823   0.826
  0.831   0.843   0.847   0.850   0.854   0.870   0.878   0.891
  0.903   0.912   0.922   0.930   0.952   0.953   0.961   0.966
  0.979   0.996   1.022   1.028   1.038   1.049   1.086   1.097
  1.117   1.120   1.135   1.154   1.173   1.194   1.196   1.202
  1.209   1.219   1.221   1.241   1.307   1.323   1.334   1.340
  1.351   1.371   1.408   1.452   1.499   1.530   1.550   1.568
  1.581   1.671   1.689   1.707   1.717   1.734   1.768   1.776
  1.787   1.794   1.795   1.816   1.838   1.873   1.883   1.905
  1.920   1.930   1.961   1.969   2.016   2.030   2.037   2.052
  2.062   2.080   2.093   2.115   2.127   2.154   2.189   2.230
  2.234   2.280   2.289   2.301   2.308   2.319   2.327   2.343
  2.363   2.381   2.387   2.398   2.409   2.436   2.447   2.466
  2.482   2.526   2.545   2.568   2.575   2.587   2.680   2.721
  2.738   2.771   2.785   2.792   2.802   2.988   3.039   3.078
  3.140   3.141   3.175   3.272   3.274   3.527   3.594   3.603
  3.825   3.835   3.843   4.103   4.130   4.164   4.177   4.181
  4.187   4.244   4.328   4.398   4.510   4.555   4.580
 --------------------------------------------------------------
 
          Ground-State Mulliken Net Atomic Charges

     Atom                 Charge (a.u.)    Spin (a.u.)
  --------------------------------------------------------
      1 H                     0.241503      -0.011583
      2 H                     0.163403       0.001419
      3 C                     0.065608       0.223387
      4 C                    -0.256775      -0.035463
      5 S                    -0.032882      -0.020427
      6 C                     0.479448       0.135592
      7 H                     0.142942      -0.008988
      8 C                    -0.188700       0.030095
      9 H                     0.143312      -0.005068
     10 C                    -0.101506       0.175151
     11 C                    -0.080718       0.065368
     12 S                    -0.256035      -0.059756
     13 C                     0.153420       0.059037
     14 H                     0.157674      -0.004160
     15 C                    -0.140815       0.171313
     16 C                    -0.246922       0.030844
     17 H                     0.155676      -0.008467
     18 C                     0.482072       0.120831
     19 S                     0.051976      -0.018217
     20 C                    -0.379975      -0.031637
     21 C                     0.055550       0.200046
     22 H                     0.157840       0.001505
     23 H                     0.233905      -0.010821
  --------------------------------------------------------
  Sum of atomic charges =     1.000000
  Sum of spin   charges =     1.000000

 -----------------------------------------------------------------
                    Cartesian Multipole Moments
 -----------------------------------------------------------------
    Charge (ESU x 10^10)
                 4.8032
    Dipole Moment (Debye)
         X      28.9042      Y      -2.4160      Z      -1.3806
       Tot      29.0378
    Quadrupole Moments (Debye-Ang)
        XX     157.0647     XY     -11.2143     YY     -89.0041
        XZ      -8.9060     YZ       7.9518     ZZ    -107.4740
    Octopole Moments (Debye-Ang^2)
       XXX     735.8899    XXY     -71.1016    XYY    -555.4182
       YYY     103.2241    XXZ     -71.9321    XYZ      55.3415
       YYZ       1.6313    XZZ    -643.7470    YZZ      37.3157
       ZZZ      44.5105
    Hexadecapole Moments (Debye-Ang^3)
      XXXX   -1733.8985   XXXY    -610.3866   XXYY   -4590.0679
      XYYY     571.1413   YYYY    -787.0678   XXXZ    -664.1556
      XXYZ     458.7737   XYYZ      -5.2738   YYYZ     -86.5246
      XXZZ   -5097.6301   XYZZ     171.7087   YYZZ    -180.1142
      XZZZ     222.9157   YZZZ    -131.9328   ZZZZ    -261.4459
 -----------------------------------------------------------------
Archival summary:
1\1\nid00535\OPT\ProcedureUnspecified\BasisUnspecified\3128(1+,2)\bwood\TueMay3011:02:092017TueMay3011:02:092017\0\\#,OPT,ProcedureUnspecified,BasisUnspecified,\\1,2\S\C,1,1.75443\C,2,1.41347,1,110.591\H,3,1.0838,2,122.473,1,-178.421,0\C,3,1.38412,2,113.62,1,-0.1081,0\H,5,1.08397,3,123.613,2,-178.77,0\C,5,1.41433,3,113.736,2,-0.0616364,0\C,7,1.41509,5,127.879,3,179.462,0\C,8,1.4047,7,128.351,5,178.192,0\H,9,1.08436,8,123.058,7,-0.148512,0\C,9,1.40186,8,113.294,7,-179.966,0\H,11,1.08308,9,124.378,8,179.881,0\C,11,1.38696,9,112.465,8,-0.0169147,0\H,13,1.08273,11,127.464,9,-179.976,0\C,2,1.41925,1,121.292,3,-175.254,0\C,15,1.40245,2,128.19,1,24.3656,0\H,16,1.08422,15,122.905,2,-4.06591,0\C,16,1.40397,15,113.201,2,174.3,0\H,18,1.08312,16,124.305,15,-179.572,0\C,18,1.38539,16,112.501,15,-0.206533,0\H,20,1.08271,18,127.513,16,178.652,0\S,13,1.71743,11,112.922,9,-0.0167751,0\S,20,1.71879,18,112.851,16,-0.356362,0\\\@

 Total job time:  198.58s(wall), 210.92s(cpu) 
 Tue May 30 11:02:09 2017

        *************************************************************
        *                                                           *
        *  Thank you very much for using Q-Chem.  Have a nice day.  *
        *                                                           *
        *************************************************************


0 sent ACK to 0 
now end server 0 ... 
