srun -N 1 --ntasks-per-node 22 --cpus-per-task 2 --cpu_bind=cores --nodelist nid00536 /global/project/projectdirs/jcesr/qchem/qc44/cnl_qc441/dist/exe/qcprog.cori.haswell.exe .pt_nn_cation_-20.0.in.33750.qcin.1 /dev/shm/eg_qchem/qchem33750/
Process 4 of 22 is on nid00536 - thread support 0
Process 6 of 22 is on nid00536 - thread support 0
Process 0 of 22 is on nid00536 - thread support 0
Process 1 of 22 is on nid00536 - thread support 0
Process 2 of 22 is on nid00536 - thread support 0
Process 3 of 22 is on nid00536 - thread support 0
Process 5 of 22 is on nid00536 - thread support 0
Process 21 of 22 is on nid00536 - thread support 0
initial socket setup ...start
initial socket setup ...done 
now start server 0 ... 
nid00536 10.128.2
Q-Chem Developer Version! Running on 10.128.2.*
                  Welcome to Q-Chem
     A Quantum Leap Into The Future Of Chemistry


 Q-Chem 4.4, Q-Chem, Inc., Pleasanton, CA (2016)

 Y. Shao,  Z. Gan,  E. Epifanovsky,  A. T. B. Gilbert,  M. Wormit,  
 J. Kussmann,  A. W. Lange,  A. Behn,  J. Deng,  X. Feng,  D. Ghosh,  
 M. Goldey,  P. R. Horn,  L. D. Jacobson,  I. Kaliman,  F. Rob,  
 R. Z. Khaliullin,  T. Kus,  A. Landau,  J. Liu,  E. I. Proynov,  Y. M. Rhee,  
 R. M. Richard,  M. A. Rohrdanz,  R. P. Steele,  E. J. Sundstrom,  
 H. L. Woodcock III,  P. M. Zimmerman,  D. Zuev,  B. Albrecht,  E. Alguire,  
 B. Austin,  S. A. Baeppler,  G. J. O. Beran,  Y. A. Bernard,  
 E. J. Berquist,  K. Brandhorst,  K. B. Bravaya,  S. T. Brown,  D. Casanova,  
 C.-M. Chang,  Y. Chen,  S. H. Chien,  K. D. Closser,  M. P. Coons,  
 D. L. Crittenden,  S. Dasgupta,  M. Diedenhofen,  R. A. DiStasio Jr.,  
 H. Do,  A. D. Dutoi,  R. G. Edgar,  P.-T. Fang,  S. Fatehi,  Q. Feng,  
 L. Fusti-Molnar,  A. Ghysels,  A. Golubeva-Zadorozhnaya,  J. Gomes,  
 A. Gunina,  M. W. D. Hanson-Heine,  P. H. P. Harbach,  A. W. Hauser,  
 J. E. Herr,  E. G. Hohenstein,  Z. C. Holden,  K. Hui,  T.-C. Jagau,  H. Ji,  
 B. Kaduk,  K. Khistyaev,  Jaehoon Kim,  Jihan Kim,  R. A. King,  
 P. Klunzinger,  K. Koh,  D. Kosenkov,  T. Kowalczyk,  C. M. Krauter,  
 A. Kunitsa,  K. U. Lao,  A. Laurent,  K. V. Lawler,  J. Lee,  D. Lefrancois,  
 S. Lehtola,  S. V. Levchenko,  C. Y. Lin,  Y.-S. Lin,  F. Liu,  E. Livshits,  
 R. C. Lochan,  A. Luenser,  P. Manohar,  S. F. Manzer,  S.-P. Mao,  Y. Mao,  
 N. Mardirossian,  A. V. Marenich,  L. A. Martinez-Martinez,  S. A. Maurer,  
 N. J. Mayhall,  J.-M. Mewes,  A. F. Morrison,  K. Nanda,  T. S. Nguyen-Beck,  
 C. M. Oana,  R. Olivares-Amaya,  D. P. O'Neill,  J. A. Parkhill,  
 T. M. Perrine,  R. Peverati,  P. A. Pieniazek,  F. Plasser,  A. Prociuk,  
 D. R. Rehn,  E. Rosta,  N. J. Russ,  N. Sergueev,  S. M. Sharada,  
 S. Sharma,  D. W. Small,  A. Sodt,  T. Stauch,  T. Stein,  D. Stuck,  
 Y.-C. Su,  A. J. W. Thom,  T. Tsuchimochi,  L. Vogt,  O. Vydrov,  T. Wang,  
 M. A. Watson,  J. Wenzel,  A. White,  C. F. Williams,  V. Vanovschi,  
 K. Yao,  S. Yeganeh,  S. R. Yost,  Z.-Q. You,  I. Y. Zhang,  X. Zhang,  
 Y. Zhao,  B. R. Brooks,  G. K. L. Chan,  D. M. Chipman,  C. J. Cramer,  
 W. A. Goddard III,  M. S. Gordon,  W. J. Hehre,  A. Klamt,  
 H. F. Schaefer III,  M. W. Schmidt,  C. D. Sherrill,  D. G. Truhlar,  
 A. Warshel,  X. Xu,  A. Aspuru-Guzik,  R. Baer,  A. T. Bell,  N. A. Besley,  
 J.-D. Chai,  A. Dreuw,  B. D. Dunietz,  T. R. Furlani,  S. R. Gwaltney,  
 C.-P. Hsu,  Y. Jung,  J. Kong,  D. S. Lambrecht,  W. Liang,  C. Ochsenfeld,  
 V. A. Rassolov,  L. V. Slipchenko,  J. E. Subotnik,  T. Van Voorhis,  
 J. M. Herbert,  A. I. Krylov,  P. M. W. Gill,  M. Head-Gordon

 Contributors to earlier versions of Q-Chem not listed above: 
 R. D. Adamson,  J. Baker,  E. F. C. Byrd,  A. K. Chakraborty,  C.-L. Cheng,  
 H. Dachsel,  R. J. Doerksen,  G. Hawkins,  A. Heyden,  S. Hirata,  
 G. Kedziora,  F. J. Keil,  C. Kelley,  P. P. Korambath,  W. Kurlancheek,  
 A. M. Lee,  M. S. Lee,  D. Liotard,  I. Lotan,  P. E. Maslen,  N. Nair,  
 D. Neuhauser,  R. Olson,  B. Peters,  J. Ritchie,  N. E. Schultz,  
 N. Shenvi,  A. C. Simmonett,  K. S. Thanthiriwatte,  Q. Wu,  W. Zhang

 Please cite Q-Chem as follows:
 Y. Shao et al., Mol. Phys. 113, 184-215 (2015)
 DOI: 10.1080/00268976.2014.952696

 Q-Chem 4.4.2 for Intel X86 EM64T Linux

 Parts of Q-Chem use Armadillo 5.200.1 (Boston Tea Smuggler).
 http://arma.sourceforge.net/

 Q-Chem begins on Tue May 30 10:58:48 2017  

Host: nid00444
0

     Scratch files written to /dev/shm/eg_qchem/qchem33750.0//
 Parallel job on  22  processors

Checking the input file for inconsistencies... 	...done.

--------------------------------------------------------------
User input:
--------------------------------------------------------------
$molecule
 1  2
 H           0.00000000        0.00000000        0.00000000
 H           0.66366000       -2.46828000       -0.59127000
 C           0.99103000       -0.39106000       -0.11652000
 C           1.36812000       -1.67442000       -0.42485000
 S           2.34669000        0.62586000        0.08638000
 C           2.76167000       -1.82175000       -0.50822000
 H           3.26291000       -2.73877000       -0.76199000
 C           3.44671000       -0.65043000       -0.26057000
 H           4.55645000        1.43902671        0.15704385
 C           4.88382000       -0.65043000       -0.26057000
 C           5.26091000        0.64090194        0.01245390
 S           6.23948000       -1.67253113       -0.43550939
 C           6.65446000        0.79046248        0.09175311
 H           7.15570000        1.71409653        0.32028213
 C           7.33950000       -0.38720773       -0.12368600
 C           8.77661000       -0.38720773       -0.12368600
 H           8.96041000        1.71960889       -0.54070898
 C           9.46165000        0.79312512       -0.32402645
 S           9.87663000       -1.67641880        0.17165229
 C          10.85520000        0.64256104       -0.24664968
 C          11.23229000       -0.65216088        0.00981602
 H          11.55966000        1.44247179       -0.38100632
 H          12.22332000       -1.04759141        0.11051403
$end


$rem
         jobtype = opt
        exchange = b3lyp
           basis = 6-31++g**
  max_scf_cycles = 150
      mem_static = 281
       mem_total = 2818
      sym_ignore = true
        symmetry = false
          thresh = 12
$end


$opt
CONSTRAINT
tors 13 15 16 18 -20.0
ENDCONSTRAINT
$end

--------------------------------------------------------------
 ----------------------------------------------------------------
             Standard Nuclear Orientation (Angstroms)
    I     Atom           X                Y                Z
 ----------------------------------------------------------------
    1      H       0.0000000000     0.0000000000     0.0000000000
    2      H       0.6636600000    -2.4682800000    -0.5912700000
    3      C       0.9910300000    -0.3910600000    -0.1165200000
    4      C       1.3681200000    -1.6744200000    -0.4248500000
    5      S       2.3466900000     0.6258600000     0.0863800000
    6      C       2.7616700000    -1.8217500000    -0.5082200000
    7      H       3.2629100000    -2.7387700000    -0.7619900000
    8      C       3.4467100000    -0.6504300000    -0.2605700000
    9      H       4.5564500000     1.4390267100     0.1570438500
   10      C       4.8838200000    -0.6504300000    -0.2605700000
   11      C       5.2609100000     0.6409019400     0.0124539000
   12      S       6.2394800000    -1.6725311300    -0.4355093900
   13      C       6.6544600000     0.7904624800     0.0917531100
   14      H       7.1557000000     1.7140965300     0.3202821300
   15      C       7.3395000000    -0.3872077300    -0.1236860000
   16      C       8.7766100000    -0.3872077300    -0.1236860000
   17      H       8.9604100000     1.7196088900    -0.5407089800
   18      C       9.4616500000     0.7931251200    -0.3240264500
   19      S       9.8766300000    -1.6764188000     0.1716522900
   20      C      10.8552000000     0.6425610400    -0.2466496800
   21      C      11.2322900000    -0.6521608800     0.0098160200
   22      H      11.5596600000     1.4424717900    -0.3810063200
   23      H      12.2233200000    -1.0475914100     0.1105140300
 ----------------------------------------------------------------
 Nuclear Repulsion Energy =  1186.5240443701 hartrees
 There are       64 alpha and       63 beta electrons
 Requested basis set is 6-31++G(d,p)
 There are 110 shells and 345 basis functions

 Total QAlloc Memory Limit   2818 MB
 Mega-Array Size       275 MB
 MEM_STATIC part       281 MB
 A cutoff of  1.0D-12 yielded   4726 shell pairs
 There are     48157 function pairs

 Q-Chem warning in module /project/projectdirs/jcesr/qchem/qc44/cnl_qc441/compile/cori/qc_src/libqints/qchem/aobasis.C, line 68:

 Using reconstructed effective core potential

 
 -------------------------------------------------------
 OpenMP Integral Computing Module                       
 Release: version 1.0, May 2013, Q-Chem Inc. Pittsburgh 
 -------------------------------------------------------
 Integral Job Info:
 Integral job number is                      11
 Integral operator is                         1
 short-range coefficients                     0
 long-range coefficients              100000000
 Omega coefficients                           0
 if combine SR and LR in K                    0
 Integral screening is                        0
 Integral computing path is                   2
 max size of driver memory is            800000
 size of driver memory is                593474
 size of scratch memory is             15166112
 max col of scratch BK array               1296
 max len of scratch array in speh3          155
 max len of scratch index in speh4           18
 max int batch size is                      520
 min int batch size is                       52
 fixed nKL is                                52
 max L of basis functions is                  2
 order of int derivative is                   0
 number of shells is                        110
 number of basis is                         345
 number of cartesian basis is               345
 number of contracted shell pairs          4726
 number of primitive shell pairs          14805
 maxK2 (contraction) of shell pair           36
 max number of K2 of shell pair               1
 max number of CS2 of shell pair            509
 max number of PS2 of shell pair           3054
 mem total for path MDJ                  101288
 -------------------------------------------------------
 Smallest overlap matrix eigenvalue = 1.20E-07
 Linear dependence detected in AO basis
 Number of orthogonalized atomic orbitals = 342
 Maximum deviation from orthogonality = 7.582E-11

 Scale SEOQF with 1.000000e-02/1.000000e-01/1.000000e-01

 Standard Electronic Orientation quadrupole field applied
 Nucleus-field energy     =     0.0000000340 hartrees
 Guess from superposition of atomic densities
 Warning:  Energy on first SCF cycle will be non-variational
 An unrestricted hybrid HF-DFT SCF calculation will be
 performed using Pulay DIIS extrapolation
 Exchange:     0.2000 Hartree-Fock + 0.0800 Slater + 0.7200 B88
 Correlation:  0.1900 VWN1RPA + 0.8100 LYP
 Using SG-1 standard quadrature grid
 SCF converges when DIIS error is below 1.0E-08
 Inaccurate integrated density:
   Number of electrons =   127
   Numerical integral  =   127.999633465440
   Relative error      =     0.7871129649 %
 ---------------------------------------
  Cycle       Energy         DIIS Error
 ---------------------------------------
    1   -1660.7438395567      3.84E-02
    2   -1656.1691760038      3.50E-03
    3   -1655.8537235872      5.43E-03
    4   -1656.3589264495      7.90E-04
    5   -1656.3657828564      5.14E-04
    6   -1656.3696886757      2.07E-04
    7   -1656.3704285641      6.80E-05
    8   -1656.3705338721      1.44E-05
    9   -1656.3705498394      6.35E-06
   10   -1656.3705607920      3.61E-06
   11   -1656.3705683283      1.86E-06
   12   -1656.3705718041      1.23E-06
   13   -1656.3705728047      5.16E-07
   14   -1656.3705728680      3.16E-07
   15   -1656.3705728849      8.86E-08
   16   -1656.3705728856      4.50E-08
   17   -1656.3705728843      1.64E-08
   18   -1656.3705728851      9.74E-09 Convergence criterion met
 ---------------------------------------
 <S^2> = 0.7662
 SCF time:  CPU 24.91 s  wall 23.30 s
 SCF   energy in the final basis set = -1656.3705728851
 Total energy in the final basis set = -1656.3705728851
 
 --------------------------------------------------------------
 
                    Orbital Energies (a.u.)
 --------------------------------------------------------------
 
 Alpha MOs
 -- Occupied --
-89.085 -89.067 -89.062 -10.408 -10.403 -10.390 -10.387 -10.377
-10.371 -10.358 -10.357 -10.350 -10.350 -10.341 -10.338  -8.145
 -8.127  -8.122  -6.109  -6.105  -6.101  -6.092  -6.088  -6.086
 -6.084  -6.082  -6.079  -1.080  -1.052  -1.038  -0.957  -0.917
 -0.901  -0.893  -0.888  -0.848  -0.774  -0.750  -0.715  -0.703
 -0.692  -0.679  -0.676  -0.657  -0.607  -0.583  -0.582  -0.571
 -0.564  -0.552  -0.550  -0.544  -0.536  -0.526  -0.518  -0.508
 -0.492  -0.489  -0.458  -0.423  -0.408  -0.402  -0.398  -0.354
 -- Virtual --
 -0.221  -0.171  -0.148  -0.133  -0.123  -0.114  -0.111  -0.104
 -0.099  -0.093  -0.091  -0.089  -0.081  -0.078  -0.072  -0.070
 -0.068  -0.064  -0.060  -0.052  -0.047  -0.044  -0.039  -0.034
 -0.028  -0.024  -0.016  -0.014  -0.005  -0.004   0.003   0.006
  0.011   0.013   0.015   0.017   0.022   0.029   0.030   0.032
  0.036   0.037   0.042   0.044   0.046   0.049   0.050   0.057
  0.059   0.060   0.065   0.067   0.073   0.074   0.078   0.081
  0.087   0.096   0.098   0.101   0.108   0.110   0.115   0.118
  0.120   0.124   0.131   0.136   0.140   0.144   0.148   0.154
  0.160   0.166   0.168   0.172   0.174   0.182   0.190   0.197
  0.204   0.208   0.222   0.229   0.239   0.243   0.244   0.255
  0.263   0.270   0.274   0.292   0.306   0.329   0.349   0.358
  0.376   0.381   0.393   0.411   0.422   0.437   0.457   0.469
  0.474   0.495   0.499   0.508   0.509   0.517   0.518   0.523
  0.525   0.532   0.547   0.567   0.571   0.578   0.583   0.594
  0.601   0.602   0.605   0.612   0.620   0.639   0.655   0.661
  0.665   0.668   0.674   0.680   0.698   0.710   0.747   0.761
  0.795   0.801   0.806   0.809   0.820   0.824   0.832   0.834
  0.843   0.856   0.862   0.871   0.879   0.891   0.900   0.907
  0.920   0.932   0.945   0.951   0.962   0.973   0.976   0.985
  1.000   1.025   1.035   1.051   1.057   1.073   1.101   1.114
  1.122   1.146   1.152   1.185   1.189   1.198   1.211   1.217
  1.226   1.230   1.248   1.268   1.275   1.307   1.326   1.368
  1.386   1.403   1.460   1.491   1.498   1.542   1.560   1.570
  1.670   1.698   1.715   1.733   1.757   1.766   1.788   1.795
  1.818   1.834   1.853   1.858   1.874   1.899   1.918   1.943
  1.953   1.972   1.991   2.026   2.035   2.057   2.062   2.089
  2.094   2.103   2.150   2.166   2.187   2.201   2.236   2.242
  2.275   2.301   2.319   2.329   2.332   2.337   2.372   2.392
  2.395   2.396   2.422   2.440   2.454   2.468   2.472   2.513
  2.532   2.557   2.578   2.581   2.600   2.678   2.695   2.715
  2.768   2.786   2.823   2.836   3.020   3.062   3.105   3.162
  3.165   3.204   3.297   3.299   3.557   3.625   3.633   3.813
  3.850   3.860   4.103   4.122   4.166   4.176   4.190   4.196
  4.232   4.323   4.412   4.503   4.564   4.584
 
 Beta MOs
 -- Occupied --
-89.086 -89.067 -89.062 -10.405 -10.401 -10.389 -10.386 -10.374
-10.368 -10.357 -10.357 -10.348 -10.348 -10.342 -10.338  -8.145
 -8.128  -8.122  -6.109  -6.105  -6.102  -6.092  -6.088  -6.086
 -6.084  -6.082  -6.079  -1.076  -1.049  -1.035  -0.951  -0.915
 -0.896  -0.891  -0.886  -0.841  -0.771  -0.747  -0.712  -0.701
 -0.691  -0.676  -0.675  -0.656  -0.605  -0.581  -0.571  -0.569
 -0.562  -0.549  -0.545  -0.541  -0.534  -0.518  -0.516  -0.507
 -0.492  -0.488  -0.439  -0.420  -0.403  -0.399  -0.380
 -- Virtual --
 -0.301  -0.207  -0.161  -0.146  -0.128  -0.117  -0.113  -0.105
 -0.101  -0.097  -0.093  -0.089  -0.082  -0.080  -0.077  -0.070
 -0.068  -0.066  -0.063  -0.058  -0.051  -0.045  -0.043  -0.038
 -0.034  -0.027  -0.022  -0.016  -0.013  -0.005  -0.003   0.004
  0.007   0.012   0.013   0.015   0.018   0.023   0.030   0.031
  0.032   0.037   0.038   0.043   0.045   0.047   0.050   0.051
  0.057   0.060   0.061   0.066   0.068   0.074   0.075   0.080
  0.082   0.088   0.096   0.099   0.102   0.109   0.110   0.116
  0.119   0.120   0.126   0.132   0.137   0.141   0.145   0.149
  0.155   0.161   0.167   0.169   0.174   0.175   0.183   0.191
  0.198   0.205   0.210   0.224   0.230   0.240   0.243   0.245
  0.256   0.264   0.271   0.275   0.294   0.307   0.330   0.350
  0.359   0.376   0.382   0.394   0.413   0.424   0.438   0.458
  0.470   0.475   0.498   0.502   0.511   0.513   0.518   0.523
  0.528   0.531   0.534   0.549   0.568   0.573   0.581   0.586
  0.595   0.604   0.605   0.607   0.614   0.622   0.644   0.656
  0.663   0.666   0.671   0.675   0.685   0.702   0.714   0.748
  0.762   0.796   0.802   0.809   0.810   0.822   0.828   0.834
  0.836   0.845   0.857   0.864   0.872   0.880   0.893   0.902
  0.908   0.921   0.934   0.946   0.953   0.963   0.974   0.977
  0.987   1.001   1.028   1.038   1.054   1.060   1.076   1.104
  1.117   1.125   1.149   1.157   1.187   1.193   1.202   1.214
  1.223   1.231   1.233   1.250   1.269   1.281   1.310   1.329
  1.372   1.390   1.407   1.463   1.497   1.503   1.546   1.570
  1.578   1.673   1.699   1.719   1.736   1.758   1.768   1.789
  1.796   1.822   1.838   1.856   1.862   1.877   1.903   1.922
  1.946   1.955   1.978   1.996   2.033   2.040   2.063   2.069
  2.095   2.100   2.108   2.156   2.169   2.190   2.205   2.238
  2.244   2.280   2.304   2.323   2.332   2.336   2.340   2.374
  2.395   2.399   2.400   2.426   2.443   2.456   2.471   2.475
  2.515   2.535   2.559   2.582   2.584   2.602   2.680   2.699
  2.718   2.769   2.788   2.824   2.839   3.021   3.062   3.106
  3.162   3.165   3.204   3.298   3.300   3.558   3.626   3.634
  3.813   3.850   3.860   4.107   4.126   4.171   4.179   4.192
  4.198   4.237   4.327   4.416   4.506   4.567   4.587
 --------------------------------------------------------------
 
          Ground-State Mulliken Net Atomic Charges

     Atom                 Charge (a.u.)    Spin (a.u.)
  --------------------------------------------------------
      1 H                     0.249020      -0.011501
      2 H                     0.154978       0.001440
      3 C                     0.086205       0.234383
      4 C                    -0.380784      -0.043096
      5 S                    -0.099306      -0.029663
      6 C                     0.558111       0.146753
      7 H                     0.139594      -0.008907
      8 C                     0.149885       0.040823
      9 H                     0.070136      -0.005668
     10 C                    -0.133957       0.173949
     11 C                    -0.453146       0.060949
     12 S                     0.129598      -0.047818
     13 C                    -0.101836       0.026590
     14 H                     0.124507      -0.002455
     15 C                     0.039410       0.186039
     16 C                    -0.264240       0.035937
     17 H                     0.140313      -0.007515
     18 C                     0.503802       0.129407
     19 S                     0.088983      -0.030837
     20 C                    -0.464637      -0.042795
     21 C                     0.071820       0.202691
     22 H                     0.156707       0.001816
     23 H                     0.234837      -0.010522
  --------------------------------------------------------
  Sum of atomic charges =     1.000000
  Sum of spin   charges =     1.000000

 -----------------------------------------------------------------
                    Cartesian Multipole Moments
 -----------------------------------------------------------------
    Charge (ESU x 10^10)
                 4.8032
    Dipole Moment (Debye)
         X      28.8695      Y      -1.5475      Z      -0.7900
       Tot      28.9218
    Quadrupole Moments (Debye-Ang)
        XX     157.4847     XY      -3.5249     YY     -89.7016
        XZ      -3.4072     YZ       2.0185     ZZ    -109.4009
    Octopole Moments (Debye-Ang^2)
       XXX     740.0414    XXY      22.5402    XYY    -554.4547
       YYY     145.2387    XXZ      -6.0383    XYZ      -2.1239
       YYZ       8.5706    XZZ    -669.5662    YZZ      53.9332
       ZZZ      47.5821
    Hexadecapole Moments (Debye-Ang^3)
      XXXX   -1747.3453   XXXY     491.0081   XXYY   -4545.1099
      XYYY     940.4915   YYYY    -892.0950   XXXZ      69.2074
      XXYZ    -105.1363   XYYZ      53.6674   YYYZ     -33.6930
      XXZZ   -5381.2155   XYZZ     322.9197   YYZZ    -194.5146
      XZZZ     231.8543   YZZZ     -53.1779   ZZZZ    -182.0557
 -----------------------------------------------------------------
 Calculating analytic gradient of the SCF energy
 Gradient of SCF Energy
            1           2           3           4           5           6
    1   0.0068612   0.0045531  -0.0046093  -0.0003366   0.0028034   0.0239938
    2  -0.0034292   0.0048557   0.0016869   0.0123359  -0.0267084   0.0110054
    3  -0.0011820   0.0009499  -0.0000631   0.0039266  -0.0056932   0.0037422
            7           8           9          10          11          12
    1  -0.0015509  -0.0215285  -0.0024017   0.0465781  -0.0657905   0.0027683
    2   0.0061672   0.0625389  -0.0059264  -0.0459112  -0.0323984   0.0405239
    3   0.0005290   0.0118868  -0.0013534  -0.0096828  -0.0078694   0.0064410
           13          14          15          16          17          18
    1   0.0322725   0.0009762  -0.0230501   0.0221966  -0.0022044  -0.0184214
    2  -0.0233156  -0.0037627  -0.0002925   0.0051591  -0.0045736  -0.0141071
    3  -0.0026602  -0.0021639  -0.0004941  -0.0000629   0.0020756   0.0011718
           19          20          21          22          23
    1   0.0022717   0.0019807   0.0034539  -0.0039260  -0.0068897
    2   0.0268136  -0.0087473   0.0001000  -0.0050970   0.0030827
    3  -0.0020109   0.0029409  -0.0001141   0.0012740  -0.0015879
 Max gradient component =       6.579E-02
 RMS gradient           =       1.787E-02
 Gradient time:  CPU 4.22 s  wall 4.23 s
 Geometry Optimization Parameters
   NAtoms,    NIC,     NZ,  NCons,   NDum,   NFix, NCnnct, MaxDiis
       23     166       0       1       0       0       0       0


** CONSTRAINED OPTIMIZATION IN DELOCALIZED INTERNAL COORDINATES **
   Searching for a Minimum

   Optimization Cycle:   1

                       Coordinates (Angstroms)
     ATOM                X               Y               Z
      1  H         0.0000000000    0.0000000000    0.0000000000
      2  H         0.6636600000   -2.4682800000   -0.5912700000
      3  C         0.9910300000   -0.3910600000   -0.1165200000
      4  C         1.3681200000   -1.6744200000   -0.4248500000
      5  S         2.3466900000    0.6258600000    0.0863800000
      6  C         2.7616700000   -1.8217500000   -0.5082200000
      7  H         3.2629100000   -2.7387700000   -0.7619900000
      8  C         3.4467100000   -0.6504300000   -0.2605700000
      9  H         4.5564500000    1.4390267100    0.1570438500
     10  C         4.8838200000   -0.6504300000   -0.2605700000
     11  C         5.2609100000    0.6409019400    0.0124539000
     12  S         6.2394800000   -1.6725311300   -0.4355093900
     13  C         6.6544600000    0.7904624800    0.0917531100
     14  H         7.1557000000    1.7140965300    0.3202821300
     15  C         7.3395000000   -0.3872077300   -0.1236860000
     16  C         8.7766100000   -0.3872077300   -0.1236860000
     17  H         8.9604100000    1.7196088900   -0.5407089800
     18  C         9.4616500000    0.7931251200   -0.3240264500
     19  S         9.8766300000   -1.6764188000    0.1716522900
     20  C        10.8552000000    0.6425610400   -0.2466496800
     21  C        11.2322900000   -0.6521608800    0.0098160200
     22  H        11.5596600000    1.4424717900   -0.3810063200
     23  H        12.2233200000   -1.0475914100    0.1105140300
   Point Group: c1    Number of degrees of freedom:    63


   Energy is  -1656.370572885

              Constraints and their Current Values
                                        Value     Constraint
   Dihedral:       13  15  16  18      -20.000      -20.000

 Attempting to Generate Delocalized Internal Coordinates

 62 Hessian modes will be used to form the next step
  Hessian Eigenvalues:
     0.045000    0.045000    0.045000    0.045000    0.045000    0.045000
     0.045001    0.045001    0.045001    0.045002    0.045003    0.045003
     0.045011    0.045012    0.045012    0.045025    0.045032    0.045058
     0.045059    0.159944    0.159945    0.159945    0.159992    0.159993
     0.159993    0.160000    0.160000    0.221307    0.221308    0.227041
     0.237995    0.238010    0.245411    0.249662    0.249670    0.249670
     0.249825    0.326317    0.326319    0.326962    0.340043    0.340044
     0.340629    0.365512    0.365512    0.365513    0.366888    0.366889
     0.366889    0.370099    0.370100    0.399845    0.399845    0.435419
     0.435419    0.435422    0.463117    0.463122    0.464282    0.495500
     0.495500    0.495533

 Minimum Search - Taking Simple RFO Step
 Searching for Lamda that Minimizes Along All modes
 Value Taken    Lamda =  -0.07021818
 Calculated Step too Large.  Step scaled by  0.665562
 Step Taken.  Stepsize is  0.300000

                             Maximum     Tolerance    Cnvgd?
         Gradient           0.092509      0.000300      NO
         Displacement       0.188941      0.001200      NO
         Energy change     *********      0.000001      NO


 New Cartesian Coordinates Obtained by Inverse Iteration

 Displacement from previous Coordinates is:  2.287788
 ----------------------------------------------------------------
             Standard Nuclear Orientation (Angstroms)
    I     Atom           X                Y                Z
 ----------------------------------------------------------------
    1      H      -0.1292438069    -0.3486362700    -0.0420507768
    2      H       0.8160556154    -2.7368499430    -0.6330372837
    3      C       0.9075945522    -0.6256588354    -0.1428101346
    4      C       1.4275177880    -1.8657124191    -0.4511848147
    5      S       2.1288504698     0.5568170266     0.0909271142
    6      C       2.8302405455    -1.8484402400    -0.5072608207
    7      H       3.4355105548    -2.7086599300    -0.7539907693
    8      C       3.3867906230    -0.5930369086    -0.2397428166
    9      H       4.5822374813     1.7510789385     0.2240548865
   10      C       4.8165939014    -0.3884552404    -0.2067041660
   11      C       5.2527482048     0.9232973707     0.0672633264
   12      S       6.1709985652    -1.4305253783    -0.3939387328
   13      C       6.6412945477     1.0528860205     0.1301531781
   14      H       7.1548560155     1.9733784964     0.3563137536
   15      C       7.3069184141    -0.1546080735    -0.0954713692
   16      C       8.7400021649    -0.2726966182    -0.1259262071
   17      H       9.2268953540     1.8105970033    -0.5530152720
   18      C       9.5878879692     0.8175133311    -0.3389316335
   19      S       9.6638501188    -1.7128474868     0.1516909783
   20      C      10.9487840167     0.4763131091    -0.2821693446
   21      C      11.1434215298    -0.8656517442    -0.0272588829
   22      H      11.7589539861     1.1747384431    -0.4282163629
   23      H      12.0781213886    -1.3949838318     0.0619386606
 ----------------------------------------------------------------
 Nuclear Repulsion Energy =  1178.2411936926 hartrees
 There are       64 alpha and       63 beta electrons
 Applying Cartesian multipole field
    Component          Value
    ---------          -----
     (2,0,0)        1.00000E-12
     (0,2,0)        2.00000E-11
     (0,0,2)       -3.00000E-11
 Nucleus-field energy     =     0.0000000339 hartrees
 Requested basis set is 6-31++G(d,p)
 There are 110 shells and 345 basis functions
 A cutoff of  1.0D-12 yielded   4703 shell pairs
 There are     47897 function pairs

 Q-Chem warning in module /project/projectdirs/jcesr/qchem/qc44/cnl_qc441/compile/cori/qc_src/libqints/qchem/aobasis.C, line 68:

 Using reconstructed effective core potential

 Smallest overlap matrix eigenvalue = 1.02E-07
 Linear dependence detected in AO basis
 Number of orthogonalized atomic orbitals = 342
 Maximum deviation from orthogonality = 1.461E-10
 Guess MOs from SCF MO coefficient file
 Reading MOs from coefficient file
 Reading MOs from coefficient file
 An unrestricted hybrid HF-DFT SCF calculation will be
 performed using Pulay DIIS extrapolation
 Exchange:     0.2000 Hartree-Fock + 0.0800 Slater + 0.7200 B88
 Correlation:  0.1900 VWN1RPA + 0.8100 LYP
 Using SG-1 standard quadrature grid
 SCF converges when DIIS error is below 1.0E-08
 Geometry optimization detected.  Setting ReadMinima to 0
 Setting SaveMinima to 0
 Inaccurate integrated density:
   Number of electrons =   127
   Numerical integral  =   126.765891435546
   Relative error      =    -0.1843374523 %
 ---------------------------------------
  Cycle       Energy         DIIS Error
 ---------------------------------------
    1   -1656.1135363597      6.40E-03
    2   -1656.3651765002      1.46E-03
    3   -1656.2739319292      2.72E-03
    4   -1656.3982888312      4.82E-04
    5   -1656.4021261862      1.40E-04
    6   -1656.4024374569      5.10E-05
    7   -1656.4024777901      2.07E-05
    8   -1656.4024849338      4.73E-06
    9   -1656.4024853124      2.12E-06
   10   -1656.4024854217      5.21E-07
   11   -1656.4024854499      3.54E-07
   12   -1656.4024854612      1.27E-07
   13   -1656.4024854670      1.09E-07
   14   -1656.4024854705      3.42E-08
   15   -1656.4024854706      1.92E-08
   16   -1656.4024854706      8.28E-09 Convergence criterion met
 ---------------------------------------
 <S^2> = 0.7678
 SCF time:  CPU 22.74 s  wall 21.18 s
 SCF   energy in the final basis set = -1656.4024854706
 Total energy in the final basis set = -1656.4024854706
 
 --------------------------------------------------------------
 
                    Orbital Energies (a.u.)
 --------------------------------------------------------------
 
 Alpha MOs
 -- Occupied --
-89.081 -89.067 -89.063 -10.410 -10.409 -10.392 -10.389 -10.378
-10.374 -10.362 -10.361 -10.354 -10.353 -10.343 -10.340  -8.140
 -8.127  -8.123  -6.105  -6.101  -6.097  -6.091  -6.087  -6.087
 -6.084  -6.083  -6.080  -1.070  -1.045  -1.032  -0.946  -0.912
 -0.895  -0.892  -0.887  -0.844  -0.770  -0.746  -0.711  -0.705
 -0.689  -0.679  -0.674  -0.651  -0.607  -0.575  -0.574  -0.568
 -0.561  -0.549  -0.548  -0.544  -0.531  -0.525  -0.522  -0.510
 -0.494  -0.490  -0.454  -0.421  -0.406  -0.403  -0.397  -0.351
 -- Virtual --
 -0.225  -0.174  -0.149  -0.133  -0.125  -0.113  -0.111  -0.104
 -0.101  -0.093  -0.090  -0.088  -0.081  -0.079  -0.073  -0.069
 -0.067  -0.064  -0.061  -0.053  -0.047  -0.043  -0.039  -0.035
 -0.027  -0.023  -0.015  -0.013  -0.006  -0.004   0.003   0.007
  0.011   0.012   0.014   0.017   0.023   0.029   0.029   0.031
  0.035   0.036   0.042   0.044   0.046   0.049   0.050   0.055
  0.057   0.060   0.066   0.068   0.073   0.074   0.076   0.078
  0.086   0.091   0.096   0.102   0.104   0.111   0.115   0.116
  0.120   0.122   0.129   0.132   0.139   0.143   0.149   0.155
  0.156   0.161   0.165   0.171   0.174   0.184   0.190   0.194
  0.199   0.207   0.222   0.230   0.231   0.239   0.245   0.248
  0.256   0.264   0.269   0.280   0.305   0.326   0.342   0.356
  0.372   0.381   0.396   0.398   0.425   0.434   0.446   0.455
  0.469   0.482   0.496   0.501   0.510   0.513   0.519   0.523
  0.526   0.531   0.546   0.555   0.568   0.576   0.583   0.590
  0.594   0.598   0.603   0.607   0.619   0.633   0.646   0.653
  0.660   0.670   0.678   0.681   0.697   0.710   0.734   0.759
  0.796   0.800   0.803   0.810   0.817   0.821   0.826   0.836
  0.845   0.848   0.854   0.865   0.876   0.878   0.897   0.901
  0.916   0.926   0.937   0.946   0.961   0.965   0.973   0.975
  1.000   1.021   1.029   1.046   1.047   1.068   1.092   1.112
  1.117   1.139   1.146   1.185   1.190   1.199   1.203   1.214
  1.215   1.221   1.232   1.266   1.290   1.316   1.324   1.364
  1.389   1.403   1.433   1.489   1.504   1.533   1.558   1.566
  1.666   1.695   1.700   1.736   1.755   1.768   1.780   1.787
  1.808   1.817   1.835   1.846   1.863   1.877   1.903   1.921
  1.934   1.956   1.976   2.012   2.022   2.038   2.054   2.071
  2.084   2.099   2.119   2.132   2.166   2.183   2.229   2.235
  2.264   2.295   2.311   2.315   2.324   2.332   2.356   2.376
  2.383   2.395   2.398   2.413   2.434   2.453   2.469   2.491
  2.524   2.546   2.569   2.576   2.591   2.661   2.695   2.722
  2.752   2.778   2.796   2.829   2.999   3.047   3.086   3.148
  3.153   3.195   3.280   3.286   3.533   3.605   3.615   3.808
  3.843   3.862   4.098   4.117   4.158   4.166   4.181   4.192
  4.230   4.316   4.402   4.493   4.556   4.583
 
 Beta MOs
 -- Occupied --
-89.081 -89.067 -89.063 -10.407 -10.407 -10.391 -10.388 -10.375
-10.371 -10.361 -10.361 -10.352 -10.352 -10.343 -10.341  -8.141
 -8.127  -8.123  -6.105  -6.101  -6.097  -6.091  -6.087  -6.087
 -6.084  -6.083  -6.080  -1.066  -1.041  -1.029  -0.940  -0.911
 -0.891  -0.890  -0.886  -0.837  -0.767  -0.743  -0.709  -0.702
 -0.687  -0.676  -0.672  -0.650  -0.606  -0.573  -0.566  -0.565
 -0.559  -0.547  -0.544  -0.538  -0.529  -0.524  -0.512  -0.509
 -0.493  -0.489  -0.435  -0.419  -0.402  -0.400  -0.379
 -- Virtual --
 -0.298  -0.210  -0.163  -0.146  -0.127  -0.120  -0.112  -0.104
 -0.101  -0.099  -0.092  -0.089  -0.081  -0.079  -0.078  -0.070
 -0.068  -0.065  -0.062  -0.059  -0.052  -0.045  -0.042  -0.038
 -0.034  -0.026  -0.022  -0.015  -0.012  -0.005  -0.004   0.004
  0.008   0.012   0.013   0.014   0.017   0.024   0.029   0.030
  0.032   0.035   0.037   0.043   0.045   0.046   0.050   0.051
  0.055   0.058   0.061   0.067   0.068   0.074   0.074   0.077
  0.080   0.087   0.092   0.096   0.103   0.105   0.111   0.116
  0.117   0.120   0.123   0.130   0.133   0.139   0.144   0.150
  0.156   0.158   0.162   0.165   0.172   0.174   0.185   0.191
  0.196   0.200   0.209   0.223   0.231   0.233   0.240   0.245
  0.249   0.258   0.266   0.270   0.282   0.306   0.327   0.343
  0.356   0.372   0.381   0.396   0.400   0.426   0.435   0.448
  0.456   0.470   0.483   0.498   0.506   0.513   0.517   0.522
  0.529   0.531   0.534   0.547   0.556   0.569   0.579   0.584
  0.592   0.595   0.601   0.607   0.612   0.621   0.638   0.648
  0.655   0.662   0.674   0.680   0.685   0.701   0.713   0.735
  0.760   0.797   0.802   0.806   0.811   0.818   0.825   0.829
  0.838   0.847   0.848   0.855   0.867   0.877   0.879   0.898
  0.902   0.917   0.927   0.938   0.947   0.962   0.967   0.974
  0.976   1.001   1.025   1.031   1.049   1.051   1.071   1.095
  1.115   1.121   1.141   1.152   1.189   1.192   1.201   1.206
  1.218   1.221   1.226   1.233   1.267   1.296   1.319   1.328
  1.368   1.394   1.407   1.436   1.493   1.511   1.537   1.567
  1.574   1.669   1.696   1.705   1.738   1.757   1.769   1.782
  1.789   1.812   1.822   1.839   1.850   1.866   1.880   1.906
  1.926   1.938   1.961   1.980   2.019   2.029   2.044   2.060
  2.077   2.089   2.104   2.123   2.137   2.169   2.187   2.232
  2.237   2.269   2.299   2.315   2.319   2.326   2.334   2.359
  2.378   2.388   2.397   2.400   2.417   2.437   2.456   2.472
  2.493   2.527   2.548   2.572   2.579   2.593   2.663   2.699
  2.725   2.753   2.779   2.797   2.831   3.000   3.048   3.087
  3.148   3.154   3.196   3.281   3.287   3.534   3.606   3.617
  3.808   3.843   3.863   4.102   4.121   4.162   4.171   4.183
  4.194   4.235   4.319   4.406   4.496   4.558   4.586
 --------------------------------------------------------------
 
          Ground-State Mulliken Net Atomic Charges

     Atom                 Charge (a.u.)    Spin (a.u.)
  --------------------------------------------------------
      1 H                     0.245491      -0.011480
      2 H                     0.160128       0.001667
      3 C                     0.073015       0.227669
      4 C                    -0.320504      -0.043090
      5 S                    -0.022166      -0.029272
      6 C                     0.467372       0.142946
      7 H                     0.139268      -0.009184
      8 C                    -0.056114       0.035915
      9 H                     0.119146      -0.005693
     10 C                    -0.075400       0.179836
     11 C                    -0.288026       0.065719
     12 S                    -0.057212      -0.054471
     13 C                    -0.007640       0.031659
     14 H                     0.140193      -0.002827
     15 C                    -0.013805       0.187092
     16 C                    -0.254245       0.031748
     17 H                     0.148437      -0.008080
     18 C                     0.466782       0.134815
     19 S                     0.069722      -0.030276
     20 C                    -0.411746      -0.044796
     21 C                     0.081667       0.208993
     22 H                     0.158547       0.001865
     23 H                     0.237090      -0.010757
  --------------------------------------------------------
  Sum of atomic charges =     1.000000
  Sum of spin   charges =     1.000000

 -----------------------------------------------------------------
                    Cartesian Multipole Moments
 -----------------------------------------------------------------
    Charge (ESU x 10^10)
                 4.8032
    Dipole Moment (Debye)
         X      28.8810      Y      -1.4823      Z      -0.7800
       Tot      28.9296
    Quadrupole Moments (Debye-Ang)
        XX     158.4340     XY      -2.4602     YY     -88.2713
        XZ      -3.8402     YZ       2.1616     ZZ    -109.8526
    Octopole Moments (Debye-Ang^2)
       XXX     765.0743    XXY      14.7979    XYY    -538.8039
       YYY     135.0351    XXZ     -16.9334    XYZ      -1.9509
       YYZ       8.4813    XZZ    -665.7768    YZZ      50.9161
       ZZZ      46.2028
    Hexadecapole Moments (Debye-Ang^3)
      XXXX   -1357.9528   XXXY     250.7890   XXYY   -4385.9515
      XYYY     851.2948   YYYY    -885.6094   XXXZ     -91.3812
      XXYZ    -106.4737   XYYZ      59.6056   YYYZ     -29.8599
      XXZZ   -5328.1645   XYZZ     296.0167   YYZZ    -196.9231
      XZZZ     234.6184   YZZZ     -52.3274   ZZZZ    -182.0638
 -----------------------------------------------------------------
 Calculating analytic gradient of the SCF energy
 Gradient of SCF Energy
            1           2           3           4           5           6
    1   0.0030604   0.0013620  -0.0022888  -0.0029260   0.0002540   0.0092790
    2  -0.0013539   0.0019450   0.0000123   0.0038136  -0.0152531   0.0038894
    3  -0.0006922   0.0004140  -0.0002743   0.0018712  -0.0027010   0.0020580
            7           8           9          10          11          12
    1  -0.0009702  -0.0277256   0.0034824   0.0345331  -0.0277966   0.0005254
    2   0.0029138   0.0383766  -0.0027823  -0.0429941  -0.0066922   0.0275662
    3  -0.0001890   0.0068902  -0.0007870  -0.0100629  -0.0019687   0.0040897
           13          14          15          16          17          18
    1   0.0195256  -0.0008868  -0.0181378   0.0161514   0.0005259  -0.0073441
    2  -0.0065214  -0.0024518  -0.0012665  -0.0051053  -0.0031313  -0.0020866
    3   0.0009370  -0.0007944   0.0011759  -0.0006486   0.0006775  -0.0011917
           19          20          21          22          23
    1   0.0017523   0.0012857   0.0008999  -0.0017938  -0.0027672
    2   0.0142156  -0.0030574  -0.0000001  -0.0016875   0.0016511
    3  -0.0002351   0.0014147   0.0004025   0.0006532  -0.0010391
 Max gradient component =       4.299E-02
 RMS gradient           =       1.130E-02
 Gradient time:  CPU 4.19 s  wall 4.20 s
 Geometry Optimization Parameters
   NAtoms,    NIC,     NZ,  NCons,   NDum,   NFix, NCnnct, MaxDiis
       23     166       0       1       0       0       0       0

 Cartesian Hessian Update
 Hessian Updated using BFGS Update


** CONSTRAINED OPTIMIZATION IN DELOCALIZED INTERNAL COORDINATES **
   Searching for a Minimum

   Optimization Cycle:   2

                       Coordinates (Angstroms)
     ATOM                X               Y               Z
      1  H        -0.1292438069   -0.3486362700   -0.0420507768
      2  H         0.8160556154   -2.7368499430   -0.6330372837
      3  C         0.9075945522   -0.6256588354   -0.1428101346
      4  C         1.4275177880   -1.8657124191   -0.4511848147
      5  S         2.1288504698    0.5568170266    0.0909271142
      6  C         2.8302405455   -1.8484402400   -0.5072608207
      7  H         3.4355105548   -2.7086599300   -0.7539907693
      8  C         3.3867906230   -0.5930369086   -0.2397428166
      9  H         4.5822374813    1.7510789385    0.2240548865
     10  C         4.8165939014   -0.3884552404   -0.2067041660
     11  C         5.2527482048    0.9232973707    0.0672633264
     12  S         6.1709985652   -1.4305253783   -0.3939387328
     13  C         6.6412945477    1.0528860205    0.1301531781
     14  H         7.1548560155    1.9733784964    0.3563137536
     15  C         7.3069184141   -0.1546080735   -0.0954713692
     16  C         8.7400021649   -0.2726966182   -0.1259262071
     17  H         9.2268953540    1.8105970033   -0.5530152720
     18  C         9.5878879692    0.8175133311   -0.3389316335
     19  S         9.6638501188   -1.7128474868    0.1516909783
     20  C        10.9487840167    0.4763131091   -0.2821693446
     21  C        11.1434215298   -0.8656517442   -0.0272588829
     22  H        11.7589539861    1.1747384431   -0.4282163629
     23  H        12.0781213886   -1.3949838318    0.0619386606
   Point Group: c1    Number of degrees of freedom:    63


   Energy is  -1656.402485471

              Constraints and their Current Values
                                        Value     Constraint
   Dihedral:       13  15  16  18      -20.000      -20.000
 Hessian Updated using BFGS Update

 62 Hessian modes will be used to form the next step
  Hessian Eigenvalues:
     0.044845    0.045000    0.045000    0.045000    0.045000    0.045000
     0.045001    0.045001    0.045002    0.045002    0.045003    0.045005
     0.045009    0.045012    0.045012    0.045027    0.045046    0.045057
     0.045064    0.159599    0.159944    0.159948    0.159987    0.159993
     0.159995    0.160000    0.160597    0.198936    0.221308    0.221805
     0.229187    0.238015    0.239039    0.247182    0.249670    0.249694
     0.286712    0.323756    0.326464    0.327429    0.338785    0.340062
     0.340452    0.365075    0.365512    0.365579    0.366547    0.366889
     0.367298    0.369894    0.370100    0.399788    0.416890    0.434881
     0.435420    0.437055    0.462898    0.463126    0.470017    0.495133
     0.495501    0.569079

 Minimum Search - Taking Simple RFO Step
 Searching for Lamda that Minimizes Along All modes
 Value Taken    Lamda =  -0.02137440
 Calculated Step too Large.  Step scaled by  0.948893
 Step Taken.  Stepsize is  0.300000

                             Maximum     Tolerance    Cnvgd?
         Gradient           0.031503      0.000300      NO
         Displacement       0.118314      0.001200      NO
         Energy change     -0.031913      0.000001      NO


 New Cartesian Coordinates Obtained by Inverse Iteration

 Displacement from previous Coordinates is:  1.540460
 ----------------------------------------------------------------
             Standard Nuclear Orientation (Angstroms)
    I     Atom           X                Y                Z
 ----------------------------------------------------------------
    1      H      -0.0954876761    -0.5226408947    -0.0708520793
    2      H       0.9734221039    -2.8729939309    -0.6467392054
    3      C       0.9601531751    -0.7482788322    -0.1615008322
    4      C       1.5434553647    -1.9702686849    -0.4628065563
    5      S       2.1061297083     0.5133505000     0.0807476899
    6      C       2.9421882780    -1.8888729412    -0.5018350383
    7      H       3.5931070525    -2.7253973164    -0.7337141277
    8      C       3.4252431601    -0.5936738425    -0.2289094858
    9      H       4.5367204725     1.9376950217     0.2655670944
   10      C       4.7855666003    -0.2118220412    -0.1646748916
   11      C       5.2228711579     1.1125711317     0.1029932007
   12      S       6.1300573893    -1.2941857137    -0.3704969086
   13      C       6.5982981876     1.2324634662     0.1468285470
   14      H       7.1214722490     2.1546427067     0.3676940310
   15      C       7.2643814575     0.0065992594    -0.0876740370
   16      C       8.6723641997    -0.1838217797    -0.1260215337
   17      H       9.3567796874     1.8631052194    -0.5295324616
   18      C       9.6230220821     0.8305472322    -0.3338169302
   19      S       9.4540081156    -1.7313004711     0.1143711698
   20      C      10.9431418137     0.3529492497    -0.2997655628
   21      C      11.0071037256    -1.0119963321    -0.0647706481
   22      H      11.8202204881     0.9722320760    -0.4453062544
   23      H      11.8926612071    -1.6310462625     0.0108473303
 ----------------------------------------------------------------
 Nuclear Repulsion Energy =  1182.1057331775 hartrees
 There are       64 alpha and       63 beta electrons
 Applying Cartesian multipole field
    Component          Value
    ---------          -----
     (2,0,0)        1.00000E-12
     (0,2,0)        2.00000E-11
     (0,0,2)       -3.00000E-11
 Nucleus-field energy     =     0.0000000340 hartrees
 Requested basis set is 6-31++G(d,p)
 There are 110 shells and 345 basis functions
 A cutoff of  1.0D-12 yielded   4688 shell pairs
 There are     47752 function pairs

 Q-Chem warning in module /project/projectdirs/jcesr/qchem/qc44/cnl_qc441/compile/cori/qc_src/libqints/qchem/aobasis.C, line 68:

 Using reconstructed effective core potential

 Smallest overlap matrix eigenvalue = 5.51E-08
 Linear dependence detected in AO basis
 Number of orthogonalized atomic orbitals = 342
 Maximum deviation from orthogonality = 7.622E-11
 Guess MOs from SCF MO coefficient file
 Reading MOs from coefficient file
 Reading MOs from coefficient file
 An unrestricted hybrid HF-DFT SCF calculation will be
 performed using Pulay DIIS extrapolation
 Exchange:     0.2000 Hartree-Fock + 0.0800 Slater + 0.7200 B88
 Correlation:  0.1900 VWN1RPA + 0.8100 LYP
 Using SG-1 standard quadrature grid
 SCF converges when DIIS error is below 1.0E-08
 Geometry optimization detected.  Setting ReadMinima to 0
 Setting SaveMinima to 0
 ---------------------------------------
  Cycle       Energy         DIIS Error
 ---------------------------------------
    1   -1656.2829710719      4.01E-03
    2   -1656.4004210493      8.76E-04
    3   -1656.3612223029      1.74E-03
    4   -1656.4135113024      2.29E-04
    5   -1656.4143607582      8.18E-05
    6   -1656.4144733185      2.64E-05
    7   -1656.4144845147      1.10E-05
    8   -1656.4144866046      3.39E-06
    9   -1656.4144869096      1.38E-06
   10   -1656.4144870082      5.33E-07
   11   -1656.4144870662      3.94E-07
   12   -1656.4144870931      1.87E-07
   13   -1656.4144871085      1.04E-07
   14   -1656.4144871144      4.07E-08
   15   -1656.4144871148      1.60E-08
   16   -1656.4144871140      1.02E-08
   17   -1656.4144871149      4.11E-09 Convergence criterion met
 ---------------------------------------
 <S^2> = 0.7702
 SCF time:  CPU 23.72 s  wall 22.21 s
 SCF   energy in the final basis set = -1656.4144871149
 Total energy in the final basis set = -1656.4144871149
 
 --------------------------------------------------------------
 
                    Orbital Energies (a.u.)
 --------------------------------------------------------------
 
 Alpha MOs
 -- Occupied --
-89.077 -89.066 -89.064 -10.409 -10.408 -10.390 -10.388 -10.379
-10.375 -10.366 -10.365 -10.358 -10.356 -10.345 -10.342  -8.136
 -8.126  -8.123  -6.101  -6.097  -6.093  -6.090  -6.087  -6.086
 -6.083  -6.083  -6.080  -1.066  -1.041  -1.027  -0.944  -0.915
 -0.894  -0.892  -0.884  -0.839  -0.771  -0.747  -0.710  -0.706
 -0.689  -0.677  -0.673  -0.644  -0.606  -0.573  -0.572  -0.568
 -0.558  -0.550  -0.547  -0.544  -0.534  -0.522  -0.519  -0.513
 -0.496  -0.491  -0.453  -0.423  -0.407  -0.404  -0.394  -0.346
 -- Virtual --
 -0.230  -0.177  -0.155  -0.134  -0.127  -0.113  -0.111  -0.104
 -0.097  -0.093  -0.091  -0.084  -0.081  -0.079  -0.073  -0.068
 -0.066  -0.064  -0.060  -0.051  -0.046  -0.042  -0.039  -0.032
 -0.027  -0.022  -0.015  -0.011  -0.006  -0.004   0.002   0.007
  0.010   0.013   0.013   0.016   0.024   0.029   0.029   0.031
  0.035   0.035   0.042   0.043   0.046   0.048   0.051   0.054
  0.057   0.061   0.066   0.070   0.072   0.075   0.079   0.080
  0.083   0.092   0.096   0.100   0.103   0.111   0.114   0.118
  0.119   0.122   0.126   0.131   0.135   0.141   0.150   0.153
  0.155   0.162   0.166   0.172   0.174   0.183   0.190   0.196
  0.198   0.209   0.220   0.230   0.235   0.239   0.245   0.246
  0.251   0.262   0.266   0.279   0.309   0.323   0.337   0.360
  0.375   0.382   0.396   0.401   0.430   0.431   0.445   0.451
  0.467   0.474   0.491   0.506   0.510   0.512   0.516   0.525
  0.526   0.533   0.548   0.550   0.567   0.575   0.585   0.589
  0.592   0.595   0.606   0.608   0.617   0.634   0.641   0.651
  0.662   0.678   0.683   0.695   0.698   0.712   0.736   0.759
  0.794   0.796   0.801   0.810   0.812   0.818   0.825   0.837
  0.843   0.847   0.852   0.864   0.875   0.877   0.893   0.899
  0.908   0.926   0.927   0.944   0.956   0.961   0.967   0.973
  0.999   1.023   1.032   1.045   1.051   1.071   1.090   1.111
  1.119   1.135   1.139   1.180   1.189   1.200   1.204   1.212
  1.215   1.222   1.227   1.291   1.311   1.329   1.341   1.366
  1.399   1.405   1.433   1.492   1.515   1.532   1.556   1.564
  1.661   1.684   1.709   1.728   1.751   1.769   1.777   1.793
  1.794   1.814   1.818   1.847   1.861   1.874   1.907   1.913
  1.930   1.948   1.976   2.004   2.018   2.036   2.051   2.066
  2.082   2.099   2.112   2.123   2.155   2.180   2.225   2.232
  2.261   2.292   2.301   2.303   2.319   2.329   2.347   2.366
  2.379   2.385   2.393   2.412   2.425   2.444   2.469   2.483
  2.522   2.543   2.565   2.572   2.586   2.654   2.715   2.732
  2.748   2.779   2.800   2.829   2.983   3.038   3.080   3.138
  3.143   3.174   3.269   3.274   3.525   3.596   3.605   3.803
  3.839   3.868   4.104   4.117   4.157   4.166   4.179   4.190
  4.234   4.319   4.402   4.494   4.557   4.588
 
 Beta MOs
 -- Occupied --
-89.078 -89.067 -89.064 -10.406 -10.405 -10.390 -10.387 -10.376
-10.372 -10.365 -10.364 -10.356 -10.354 -10.346 -10.342  -8.137
 -8.126  -8.123  -6.101  -6.097  -6.094  -6.090  -6.087  -6.086
 -6.083  -6.083  -6.080  -1.062  -1.038  -1.023  -0.938  -0.914
 -0.892  -0.889  -0.882  -0.832  -0.767  -0.745  -0.707  -0.704
 -0.687  -0.675  -0.672  -0.642  -0.605  -0.571  -0.566  -0.563
 -0.556  -0.548  -0.544  -0.537  -0.531  -0.521  -0.512  -0.508
 -0.496  -0.490  -0.435  -0.421  -0.403  -0.400  -0.378
 -- Virtual --
 -0.293  -0.214  -0.166  -0.153  -0.128  -0.122  -0.112  -0.105
 -0.101  -0.095  -0.092  -0.090  -0.081  -0.078  -0.075  -0.071
 -0.067  -0.064  -0.061  -0.059  -0.051  -0.044  -0.041  -0.039
 -0.031  -0.025  -0.021  -0.014  -0.010  -0.005  -0.003   0.004
  0.008   0.011   0.013   0.014   0.017   0.025   0.029   0.030
  0.032   0.035   0.036   0.043   0.044   0.046   0.049   0.052
  0.055   0.058   0.061   0.067   0.071   0.073   0.076   0.080
  0.081   0.084   0.093   0.097   0.102   0.104   0.111   0.115
  0.119   0.120   0.123   0.128   0.133   0.136   0.142   0.151
  0.154   0.156   0.164   0.166   0.173   0.175   0.184   0.191
  0.197   0.200   0.210   0.221   0.231   0.236   0.240   0.246
  0.246   0.253   0.263   0.267   0.280   0.310   0.325   0.338
  0.360   0.376   0.382   0.397   0.401   0.431   0.433   0.446
  0.452   0.468   0.475   0.493   0.511   0.515   0.515   0.520
  0.528   0.531   0.537   0.549   0.551   0.568   0.577   0.587
  0.591   0.592   0.596   0.610   0.613   0.620   0.639   0.644
  0.652   0.663   0.682   0.688   0.696   0.702   0.715   0.737
  0.760   0.795   0.798   0.802   0.811   0.814   0.822   0.828
  0.838   0.844   0.848   0.853   0.865   0.876   0.878   0.893
  0.900   0.910   0.928   0.928   0.945   0.957   0.962   0.968
  0.973   1.000   1.026   1.035   1.048   1.054   1.075   1.093
  1.114   1.122   1.139   1.144   1.182   1.192   1.203   1.206
  1.215   1.222   1.226   1.229   1.293   1.317   1.332   1.346
  1.370   1.403   1.410   1.436   1.497   1.522   1.537   1.566
  1.572   1.667   1.686   1.711   1.730   1.753   1.770   1.779
  1.795   1.799   1.818   1.822   1.851   1.864   1.877   1.912
  1.916   1.934   1.950   1.981   2.011   2.024   2.042   2.056
  2.071   2.086   2.103   2.117   2.129   2.159   2.185   2.228
  2.234   2.266   2.296   2.303   2.307   2.322   2.331   2.349
  2.369   2.383   2.387   2.396   2.416   2.428   2.447   2.471
  2.486   2.525   2.544   2.568   2.575   2.588   2.657   2.719
  2.735   2.751   2.781   2.803   2.831   2.984   3.039   3.081
  3.139   3.143   3.174   3.270   3.275   3.526   3.597   3.606
  3.803   3.840   3.868   4.108   4.121   4.160   4.171   4.182
  4.192   4.239   4.323   4.406   4.497   4.560   4.591
 --------------------------------------------------------------
 
          Ground-State Mulliken Net Atomic Charges

     Atom                 Charge (a.u.)    Spin (a.u.)
  --------------------------------------------------------
      1 H                     0.241126      -0.011764
      2 H                     0.163019       0.001702
      3 C                     0.047425       0.231374
      4 C                    -0.234463      -0.042962
      5 S                    -0.039571      -0.024850
      6 C                     0.465692       0.147235
      7 H                     0.144276      -0.009423
      8 C                    -0.164167       0.025035
      9 H                     0.141004      -0.005297
     10 C                    -0.094872       0.178998
     11 C                    -0.132831       0.060610
     12 S                    -0.259334      -0.059679
     13 C                     0.127232       0.044682
     14 H                     0.149097      -0.003547
     15 C                    -0.066649       0.183763
     16 C                    -0.231505       0.018470
     17 H                     0.150932      -0.008645
     18 C                     0.443856       0.144406
     19 S                     0.038093      -0.027064
     20 C                    -0.373770      -0.049589
     21 C                     0.087922       0.215560
     22 H                     0.159240       0.002050
     23 H                     0.238249      -0.011066
  --------------------------------------------------------
  Sum of atomic charges =     1.000000
  Sum of spin   charges =     1.000000

 -----------------------------------------------------------------
                    Cartesian Multipole Moments
 -----------------------------------------------------------------
    Charge (ESU x 10^10)
                 4.8032
    Dipole Moment (Debye)
         X      28.8356      Y      -1.4415      Z      -0.7898
       Tot      28.8824
    Quadrupole Moments (Debye-Ang)
        XX     155.2677     XY      -2.2121     YY     -86.4855
        XZ      -4.3013     YZ       2.4452     ZZ    -110.0904
    Octopole Moments (Debye-Ang^2)
       XXX     720.3496    XXY       8.5698    XYY    -524.6803
       YYY     127.4950    XXZ     -25.0322    XYZ       0.2455
       YYZ       8.7440    XZZ    -664.0381    YZZ      49.0704
       ZZZ      46.7238
    Hexadecapole Moments (Debye-Ang^3)
      XXXX   -1724.2249   XXXY     114.2625   XXYY   -4229.8462
      XYYY     789.7971   YYYY    -896.8724   XXXZ    -196.1132
      XXYZ     -87.6866   XYYZ      65.1847   YYYZ     -29.4812
      XXZZ   -5259.3023   XYZZ     280.7405   YYZZ    -202.9187
      XZZZ     248.3596   YZZZ     -55.5843   ZZZZ    -180.7641
 -----------------------------------------------------------------
 Calculating analytic gradient of the SCF energy
 Gradient of SCF Energy
            1           2           3           4           5           6
    1  -0.0001916   0.0000876   0.0024231  -0.0002247   0.0036071   0.0020825
    2   0.0006910  -0.0003478  -0.0009060  -0.0014779   0.0001046  -0.0028998
    3  -0.0000718  -0.0000332  -0.0002325   0.0000315   0.0005889   0.0002595
            7           8           9          10          11          12
    1   0.0004172  -0.0077033  -0.0007253   0.0118020  -0.0035647  -0.0010937
    2  -0.0002462   0.0161119   0.0012935  -0.0172510   0.0027000   0.0027505
    3  -0.0007486   0.0024743  -0.0000171  -0.0043738   0.0003130  -0.0003817
           13          14          15          16          17          18
    1   0.0010489  -0.0004659  -0.0068818   0.0032667  -0.0001325  -0.0015720
    2   0.0010999   0.0005116  -0.0008702  -0.0063043   0.0007114   0.0021664
    3   0.0021387   0.0003032   0.0009149  -0.0006752  -0.0003469  -0.0021400
           19          20          21          22          23
    1  -0.0011764  -0.0001358  -0.0010453   0.0000256   0.0001522
    2   0.0021871   0.0009209  -0.0007976   0.0003902  -0.0005384
    3   0.0011609   0.0002174   0.0009974   0.0000922  -0.0004713
 Max gradient component =       1.725E-02
 RMS gradient           =       3.769E-03
 Gradient time:  CPU 4.20 s  wall 4.20 s
 Geometry Optimization Parameters
   NAtoms,    NIC,     NZ,  NCons,   NDum,   NFix, NCnnct, MaxDiis
       23     166       0       1       0       0       0       0

 Cartesian Hessian Update
 Hessian Updated using BFGS Update


** CONSTRAINED OPTIMIZATION IN DELOCALIZED INTERNAL COORDINATES **
   Searching for a Minimum

   Optimization Cycle:   3

                       Coordinates (Angstroms)
     ATOM                X               Y               Z
      1  H        -0.0954876761   -0.5226408947   -0.0708520793
      2  H         0.9734221039   -2.8729939309   -0.6467392054
      3  C         0.9601531751   -0.7482788322   -0.1615008322
      4  C         1.5434553647   -1.9702686849   -0.4628065563
      5  S         2.1061297083    0.5133505000    0.0807476899
      6  C         2.9421882780   -1.8888729412   -0.5018350383
      7  H         3.5931070525   -2.7253973164   -0.7337141277
      8  C         3.4252431601   -0.5936738425   -0.2289094858
      9  H         4.5367204725    1.9376950217    0.2655670944
     10  C         4.7855666003   -0.2118220412   -0.1646748916
     11  C         5.2228711579    1.1125711317    0.1029932007
     12  S         6.1300573893   -1.2941857137   -0.3704969086
     13  C         6.5982981876    1.2324634662    0.1468285470
     14  H         7.1214722490    2.1546427067    0.3676940310
     15  C         7.2643814575    0.0065992594   -0.0876740370
     16  C         8.6723641997   -0.1838217797   -0.1260215337
     17  H         9.3567796874    1.8631052194   -0.5295324616
     18  C         9.6230220821    0.8305472322   -0.3338169302
     19  S         9.4540081156   -1.7313004711    0.1143711698
     20  C        10.9431418137    0.3529492497   -0.2997655628
     21  C        11.0071037256   -1.0119963321   -0.0647706481
     22  H        11.8202204881    0.9722320760   -0.4453062544
     23  H        11.8926612071   -1.6310462625    0.0108473303
   Point Group: c1    Number of degrees of freedom:    63


   Energy is  -1656.414487115

              Constraints and their Current Values
                                        Value     Constraint
   Dihedral:       13  15  16  18      -20.000      -20.000
 Hessian Updated using BFGS Update

 61 Hessian modes will be used to form the next step
  Hessian Eigenvalues:
     0.043711    0.045000    0.045000    0.045000    0.045000    0.045001
     0.045001    0.045002    0.045003    0.045003    0.045006    0.045011
     0.045012    0.045013    0.045029    0.045048    0.045057    0.045066
     0.154572    0.159948    0.159963    0.159992    0.159994    0.160000
     0.160042    0.160292    0.176646    0.221344    0.222778    0.230314
     0.238111    0.240401    0.249361    0.249680    0.267500    0.279364
     0.322354    0.326450    0.327799    0.338570    0.340062    0.341595
     0.365506    0.365577    0.365834    0.366888    0.367181    0.367993
     0.370099    0.370906    0.399745    0.425218    0.435419    0.435540
     0.448259    0.462997    0.463766    0.478489    0.495492    0.497715
     0.566801

 Minimum Search - Taking Simple RFO Step
 Searching for Lamda that Minimizes Along All modes
 Value Taken    Lamda =  -0.00301696
 Step Taken.  Stepsize is  0.159776

                             Maximum     Tolerance    Cnvgd?
         Gradient           0.013088      0.000300      NO
         Displacement       0.058097      0.001200      NO
         Energy change     -0.012002      0.000001      NO


 New Cartesian Coordinates Obtained by Inverse Iteration

 Displacement from previous Coordinates is:  0.534464
 ----------------------------------------------------------------
             Standard Nuclear Orientation (Angstroms)
    I     Atom           X                Y                Z
 ----------------------------------------------------------------
    1      H      -0.1232618220    -0.5930066508    -0.1097013321
    2      H       1.0066232750    -2.9184499213    -0.6450033997
    3      C       0.9385758466    -0.7940441494    -0.1838561531
    4      C       1.5568507113    -2.0032831804    -0.4634496961
    5      S       2.0621471719     0.4855164102     0.0569403569
    6      C       2.9558375201    -1.9005334582    -0.4818423880
    7      H       3.6196271233    -2.7322802109    -0.6906508787
    8      C       3.4208980584    -0.5990971142    -0.2156690462
    9      H       4.5323575874     1.9971678255     0.2808932739
   10      C       4.7575532500    -0.1474121779    -0.1384326349
   11      C       5.2146519099     1.1707369810     0.1150357221
   12      S       6.1145255597    -1.2335645761    -0.3518795887
   13      C       6.5932141325     1.2848317854     0.1409057641
   14      H       7.1226030913     2.2060656839     0.3521508411
   15      C       7.2686764550     0.0624248728    -0.0937077357
   16      C       8.6712944552    -0.1464438782    -0.1219259236
   17      H       9.4259637251     1.8788160762    -0.4858853204
   18      C       9.6590097494     0.8345589867    -0.3132511357
   19      S       9.4123727170    -1.7284677012     0.0753009703
   20      C      10.9636289284     0.3143253091    -0.2997659475
   21      C      10.9881386820    -1.0551292171    -0.0950387516
   22      H      11.8598051016     0.9072892728    -0.4376374788
   23      H      11.8557867713    -1.7001641480    -0.0328970074
 ----------------------------------------------------------------
 Nuclear Repulsion Energy =  1180.4297776072 hartrees
 There are       64 alpha and       63 beta electrons
 Applying Cartesian multipole field
    Component          Value
    ---------          -----
     (2,0,0)        1.00000E-12
     (0,2,0)        2.00000E-11
     (0,0,2)       -3.00000E-11
 Nucleus-field energy     =     0.0000000341 hartrees
 Requested basis set is 6-31++G(d,p)
 There are 110 shells and 345 basis functions
 A cutoff of  1.0D-12 yielded   4682 shell pairs
 There are     47727 function pairs

 Q-Chem warning in module /project/projectdirs/jcesr/qchem/qc44/cnl_qc441/compile/cori/qc_src/libqints/qchem/aobasis.C, line 68:

 Using reconstructed effective core potential

 Smallest overlap matrix eigenvalue = 4.59E-08
 Linear dependence detected in AO basis
 Number of orthogonalized atomic orbitals = 342
 Maximum deviation from orthogonality = 4.531E-11
 Guess MOs from SCF MO coefficient file
 Reading MOs from coefficient file
 Reading MOs from coefficient file
 An unrestricted hybrid HF-DFT SCF calculation will be
 performed using Pulay DIIS extrapolation
 Exchange:     0.2000 Hartree-Fock + 0.0800 Slater + 0.7200 B88
 Correlation:  0.1900 VWN1RPA + 0.8100 LYP
 Using SG-1 standard quadrature grid
 SCF converges when DIIS error is below 1.0E-08
 Geometry optimization detected.  Setting ReadMinima to 0
 Setting SaveMinima to 0
 ---------------------------------------
  Cycle       Energy         DIIS Error
 ---------------------------------------
    1   -1656.3622479202      1.49E-03
    2   -1656.4139654371      3.30E-04
    3   -1656.4093600588      6.13E-04
    4   -1656.4159337129      1.04E-04
    5   -1656.4161005397      3.43E-05
    6   -1656.4161207454      1.13E-05
    7   -1656.4161229147      3.89E-06
    8   -1656.4161231947      1.73E-06
    9   -1656.4161232773      7.42E-07
   10   -1656.4161233082      3.25E-07
   11   -1656.4161233243      2.01E-07
   12   -1656.4161233303      9.80E-08
   13   -1656.4161233322      5.20E-08
   14   -1656.4161233329      1.30E-08
   15   -1656.4161233341      8.23E-09 Convergence criterion met
 ---------------------------------------
 <S^2> = 0.7699
 SCF time:  CPU 20.89 s  wall 19.40 s
 SCF   energy in the final basis set = -1656.4161233341
 Total energy in the final basis set = -1656.4161233341
 
 --------------------------------------------------------------
 
                    Orbital Energies (a.u.)
 --------------------------------------------------------------
 
 Alpha MOs
 -- Occupied --
-89.075 -89.065 -89.064 -10.410 -10.409 -10.391 -10.389 -10.379
-10.376 -10.367 -10.366 -10.358 -10.357 -10.345 -10.343  -8.134
 -8.124  -8.123  -6.098  -6.094  -6.090  -6.089  -6.087  -6.085
 -6.083  -6.082  -6.080  -1.064  -1.041  -1.026  -0.944  -0.914
 -0.893  -0.892  -0.883  -0.841  -0.772  -0.749  -0.710  -0.708
 -0.688  -0.677  -0.673  -0.643  -0.608  -0.572  -0.571  -0.570
 -0.561  -0.551  -0.548  -0.544  -0.535  -0.521  -0.519  -0.511
 -0.494  -0.488  -0.455  -0.422  -0.406  -0.404  -0.395  -0.347
 -- Virtual --
 -0.231  -0.178  -0.155  -0.133  -0.127  -0.113  -0.111  -0.103
 -0.098  -0.093  -0.091  -0.082  -0.081  -0.079  -0.073  -0.068
 -0.066  -0.063  -0.061  -0.051  -0.046  -0.043  -0.039  -0.032
 -0.027  -0.022  -0.015  -0.011  -0.006  -0.004   0.002   0.007
  0.010   0.012   0.013   0.016   0.024   0.028   0.029   0.031
  0.035   0.036   0.041   0.042   0.046   0.047   0.051   0.054
  0.056   0.061   0.066   0.070   0.071   0.076   0.080   0.081
  0.083   0.091   0.096   0.099   0.102   0.110   0.113   0.118
  0.120   0.123   0.126   0.132   0.134   0.139   0.149   0.153
  0.157   0.163   0.166   0.173   0.178   0.183   0.190   0.196
  0.200   0.208   0.219   0.230   0.237   0.238   0.247   0.248
  0.251   0.264   0.267   0.280   0.308   0.323   0.337   0.362
  0.376   0.382   0.395   0.402   0.428   0.433   0.447   0.451
  0.468   0.471   0.491   0.508   0.511   0.512   0.515   0.524
  0.525   0.531   0.546   0.550   0.566   0.574   0.584   0.587
  0.591   0.593   0.605   0.608   0.616   0.633   0.640   0.651
  0.664   0.678   0.683   0.695   0.697   0.711   0.737   0.757
  0.792   0.795   0.801   0.809   0.813   0.818   0.826   0.836
  0.843   0.849   0.852   0.862   0.874   0.877   0.893   0.899
  0.906   0.923   0.930   0.943   0.954   0.962   0.968   0.975
  1.000   1.022   1.031   1.043   1.053   1.069   1.088   1.109
  1.116   1.133   1.137   1.179   1.190   1.199   1.203   1.209
  1.215   1.221   1.229   1.306   1.321   1.336   1.343   1.366
  1.401   1.406   1.436   1.488   1.518   1.529   1.557   1.564
  1.656   1.682   1.707   1.722   1.748   1.770   1.776   1.778
  1.791   1.810   1.816   1.846   1.857   1.871   1.901   1.915
  1.926   1.944   1.975   2.000   2.013   2.033   2.045   2.060
  2.080   2.092   2.111   2.123   2.152   2.184   2.226   2.231
  2.263   2.288   2.294   2.305   2.319   2.330   2.343   2.365
  2.381   2.388   2.392   2.414   2.423   2.444   2.464   2.488
  2.521   2.542   2.565   2.573   2.587   2.650   2.712   2.730
  2.763   2.790   2.802   2.835   2.983   3.040   3.082   3.140
  3.143   3.173   3.269   3.274   3.522   3.594   3.604   3.801
  3.839   3.869   4.106   4.117   4.154   4.170   4.178   4.189
  4.235   4.322   4.400   4.493   4.556   4.589
 
 Beta MOs
 -- Occupied --
-89.075 -89.065 -89.064 -10.407 -10.407 -10.391 -10.389 -10.376
-10.374 -10.366 -10.365 -10.357 -10.355 -10.346 -10.343  -8.134
 -8.124  -8.123  -6.098  -6.095  -6.091  -6.089  -6.087  -6.085
 -6.083  -6.082  -6.080  -1.060  -1.037  -1.022  -0.939  -0.912
 -0.891  -0.889  -0.881  -0.834  -0.768  -0.746  -0.707  -0.705
 -0.686  -0.675  -0.671  -0.641  -0.607  -0.570  -0.568  -0.562
 -0.559  -0.549  -0.546  -0.537  -0.532  -0.519  -0.510  -0.508
 -0.493  -0.488  -0.436  -0.419  -0.402  -0.400  -0.379
 -- Virtual --
 -0.294  -0.215  -0.167  -0.153  -0.127  -0.122  -0.112  -0.104
 -0.101  -0.096  -0.092  -0.090  -0.081  -0.079  -0.073  -0.071
 -0.066  -0.064  -0.060  -0.060  -0.051  -0.044  -0.042  -0.039
 -0.031  -0.026  -0.021  -0.015  -0.010  -0.005  -0.003   0.004
  0.007   0.011   0.013   0.014   0.017   0.025   0.029   0.029
  0.032   0.035   0.036   0.042   0.043   0.047   0.048   0.052
  0.055   0.057   0.061   0.066   0.071   0.072   0.077   0.081
  0.082   0.084   0.092   0.097   0.101   0.103   0.111   0.114
  0.119   0.120   0.124   0.127   0.133   0.135   0.140   0.150
  0.154   0.158   0.164   0.167   0.174   0.178   0.184   0.191
  0.197   0.201   0.210   0.220   0.231   0.238   0.239   0.248
  0.249   0.253   0.265   0.269   0.282   0.309   0.324   0.338
  0.362   0.377   0.383   0.397   0.402   0.429   0.434   0.448
  0.452   0.469   0.472   0.492   0.513   0.514   0.516   0.519
  0.527   0.531   0.536   0.547   0.551   0.567   0.577   0.586
  0.589   0.592   0.595   0.609   0.612   0.619   0.638   0.641
  0.652   0.665   0.681   0.688   0.696   0.701   0.715   0.738
  0.758   0.794   0.798   0.802   0.811   0.815   0.822   0.828
  0.837   0.844   0.851   0.853   0.864   0.875   0.878   0.894
  0.900   0.908   0.924   0.931   0.944   0.956   0.963   0.969
  0.975   1.001   1.025   1.033   1.047   1.056   1.072   1.091
  1.112   1.120   1.139   1.140   1.181   1.193   1.203   1.206
  1.212   1.221   1.226   1.231   1.308   1.326   1.339   1.346
  1.370   1.406   1.411   1.440   1.493   1.523   1.535   1.566
  1.572   1.661   1.683   1.708   1.725   1.750   1.771   1.778
  1.782   1.793   1.813   1.820   1.850   1.861   1.874   1.907
  1.918   1.931   1.946   1.980   2.007   2.019   2.039   2.049
  2.066   2.084   2.096   2.117   2.128   2.156   2.189   2.228
  2.233   2.267   2.289   2.299   2.309   2.322   2.332   2.345
  2.368   2.385   2.389   2.396   2.418   2.426   2.447   2.466
  2.491   2.525   2.543   2.568   2.576   2.589   2.652   2.715
  2.733   2.765   2.792   2.804   2.836   2.983   3.041   3.083
  3.141   3.143   3.173   3.271   3.275   3.523   3.596   3.606
  3.801   3.839   3.869   4.110   4.120   4.156   4.174   4.182
  4.191   4.240   4.325   4.405   4.496   4.559   4.592
 --------------------------------------------------------------
 
          Ground-State Mulliken Net Atomic Charges

     Atom                 Charge (a.u.)    Spin (a.u.)
  --------------------------------------------------------
      1 H                     0.242041      -0.011483
      2 H                     0.163294       0.001489
      3 C                     0.061232       0.225317
      4 C                    -0.226394      -0.038786
      5 S                    -0.043851      -0.021591
      6 C                     0.499641       0.140978
      7 H                     0.146486      -0.009068
      8 C                    -0.229021       0.026162
      9 H                     0.147138      -0.004902
     10 C                    -0.097866       0.180273
     11 C                    -0.063984       0.055787
     12 S                    -0.353508      -0.061641
     13 C                     0.174380       0.054402
     14 H                     0.151022      -0.004236
     15 C                    -0.080003       0.179507
     16 C                    -0.208078       0.019769
     17 H                     0.148216      -0.008799
     18 C                     0.392126       0.144444
     19 S                     0.034148      -0.026560
     20 C                    -0.351188      -0.048447
     21 C                     0.094173       0.216551
     22 H                     0.159977       0.002009
     23 H                     0.240020      -0.011175
  --------------------------------------------------------
  Sum of atomic charges =     1.000000
  Sum of spin   charges =     1.000000

 -----------------------------------------------------------------
                    Cartesian Multipole Moments
 -----------------------------------------------------------------
    Charge (ESU x 10^10)
                 4.8032
    Dipole Moment (Debye)
         X      28.9206      Y      -1.4088      Z      -0.8071
       Tot      28.9661
    Quadrupole Moments (Debye-Ang)
        XX     157.1680     XY      -1.7837     YY     -86.2622
        XZ      -4.4845     YZ       2.5039     ZZ    -110.2755
    Octopole Moments (Debye-Ang^2)
       XXX     749.0243    XXY       8.3651    XYY    -521.7717
       YYY     124.9614    XXZ     -28.8662    XYZ       1.6709
       YYZ       9.3517    XZZ    -663.8386    YZZ      48.4009
       ZZZ      48.0205
    Hexadecapole Moments (Debye-Ang^3)
      XXXX   -1354.2251   XXXY      69.5358   XXYY   -4200.9097
      XYYY     764.9761   YYYY    -898.7790   XXXZ    -246.8743
      XXYZ     -69.5911   XYYZ      68.8105   YYYZ     -30.5206
      XXZZ   -5253.6011   XYZZ     273.1541   YYZZ    -204.7406
      XZZZ     259.6933   YZZZ     -57.5161   ZZZZ    -177.6596
 -----------------------------------------------------------------
 Calculating analytic gradient of the SCF energy
 Gradient of SCF Energy
            1           2           3           4           5           6
    1  -0.0003893  -0.0002934  -0.0013723  -0.0004367   0.0021257   0.0002314
    2   0.0003349   0.0001674  -0.0011293   0.0003102  -0.0014588  -0.0014644
    3  -0.0000350   0.0001022   0.0000562   0.0000889  -0.0001303   0.0002195
            7           8           9          10          11          12
    1   0.0003085   0.0013997  -0.0009292  -0.0005920   0.0006143  -0.0020782
    2   0.0001906   0.0038957  -0.0000910  -0.0040757   0.0018758   0.0018879
    3  -0.0004224   0.0002534  -0.0002629  -0.0011484   0.0001628  -0.0002063
           13          14          15          16          17          18
    1  -0.0007581   0.0004403   0.0020319  -0.0007692  -0.0002757  -0.0002717
    2  -0.0000451  -0.0001737   0.0005507  -0.0016269   0.0001255   0.0002506
    3   0.0017284   0.0003416  -0.0004543   0.0003732  -0.0003169  -0.0015068
           19          20          21          22          23
    1  -0.0006662   0.0001144   0.0011482   0.0002102   0.0002075
    2   0.0011921  -0.0004272   0.0000036  -0.0000724  -0.0002204
    3   0.0006979   0.0000669   0.0006570   0.0000383  -0.0003030
 Max gradient component =       4.076E-03
 RMS gradient           =       1.079E-03
 Gradient time:  CPU 4.20 s  wall 4.20 s
 Geometry Optimization Parameters
   NAtoms,    NIC,     NZ,  NCons,   NDum,   NFix, NCnnct, MaxDiis
       23     166       0       1       0       0       0       0

 Cartesian Hessian Update
 Hessian Updated using BFGS Update


** CONSTRAINED OPTIMIZATION IN DELOCALIZED INTERNAL COORDINATES **
   Searching for a Minimum

   Optimization Cycle:   4

                       Coordinates (Angstroms)
     ATOM                X               Y               Z
      1  H        -0.1232618220   -0.5930066508   -0.1097013321
      2  H         1.0066232750   -2.9184499213   -0.6450033997
      3  C         0.9385758466   -0.7940441494   -0.1838561531
      4  C         1.5568507113   -2.0032831804   -0.4634496961
      5  S         2.0621471719    0.4855164102    0.0569403569
      6  C         2.9558375201   -1.9005334582   -0.4818423880
      7  H         3.6196271233   -2.7322802109   -0.6906508787
      8  C         3.4208980584   -0.5990971142   -0.2156690462
      9  H         4.5323575874    1.9971678255    0.2808932739
     10  C         4.7575532500   -0.1474121779   -0.1384326349
     11  C         5.2146519099    1.1707369810    0.1150357221
     12  S         6.1145255597   -1.2335645761   -0.3518795887
     13  C         6.5932141325    1.2848317854    0.1409057641
     14  H         7.1226030913    2.2060656839    0.3521508411
     15  C         7.2686764550    0.0624248728   -0.0937077357
     16  C         8.6712944552   -0.1464438782   -0.1219259236
     17  H         9.4259637251    1.8788160762   -0.4858853204
     18  C         9.6590097494    0.8345589867   -0.3132511357
     19  S         9.4123727170   -1.7284677012    0.0753009703
     20  C        10.9636289284    0.3143253091   -0.2997659475
     21  C        10.9881386820   -1.0551292171   -0.0950387516
     22  H        11.8598051016    0.9072892728   -0.4376374788
     23  H        11.8557867713   -1.7001641480   -0.0328970074
   Point Group: c1    Number of degrees of freedom:    63


   Energy is  -1656.416123334

              Constraints and their Current Values
                                        Value     Constraint
   Dihedral:       13  15  16  18      -20.000      -20.000
 Hessian Updated using BFGS Update

 62 Hessian modes will be used to form the next step
  Hessian Eigenvalues:
     0.036560    0.045000    0.045000    0.045000    0.045000    0.045001
     0.045001    0.045001    0.045002    0.045003    0.045004    0.045011
     0.045011    0.045013    0.045017    0.045031    0.045051    0.045063
     0.045098    0.158133    0.159958    0.159965    0.159992    0.159998
     0.160000    0.160262    0.163286    0.176365    0.221524    0.222900
     0.229887    0.238099    0.241483    0.249678    0.250523    0.269917
     0.290452    0.321805    0.326418    0.327307    0.339334    0.340563
     0.340919    0.365507    0.365577    0.365814    0.366892    0.367179
     0.367751    0.370114    0.370540    0.399664    0.421346    0.435419
     0.435621    0.450840    0.462942    0.463667    0.479048    0.495510
     0.499192    0.571795

 Minimum Search - Taking Simple RFO Step
 Searching for Lamda that Minimizes Along All modes
 Value Taken    Lamda =  -0.00031399
 Step Taken.  Stepsize is  0.077288

                             Maximum     Tolerance    Cnvgd?
         Gradient           0.001808      0.000300      NO
         Displacement       0.039284      0.001200      NO
         Energy change     -0.001636      0.000001      NO


 New Cartesian Coordinates Obtained by Inverse Iteration

 Displacement from previous Coordinates is:  0.161916
 ----------------------------------------------------------------
             Standard Nuclear Orientation (Angstroms)
    I     Atom           X                Y                Z
 ----------------------------------------------------------------
    1      H      -0.1234985514    -0.5946696059    -0.1372820231
    2      H       1.0117746654    -2.9238000888    -0.6383309780
    3      C       0.9389289356    -0.7931866834    -0.1994159063
    4      C       1.5588341963    -2.0059577514    -0.4605119634
    5      S       2.0561426329     0.4898808862     0.0410172678
    6      C       2.9562934221    -1.9044703680    -0.4653328219
    7      H       3.6194391602    -2.7407718488    -0.6561410834
[...]
      2 H                     0.162941       0.001456
      3 C                     0.057062       0.222175
      4 C                    -0.220023      -0.037089
      5 S                    -0.032596      -0.019522
      6 C                     0.492503       0.138021
      7 H                     0.146298      -0.008965
      8 C                    -0.214387       0.025765
      9 H                     0.144275      -0.004628
     10 C                    -0.075559       0.183064
     11 C                    -0.088202       0.049283
     12 S                    -0.381745      -0.062044
     13 C                     0.178390       0.058340
     14 H                     0.148146      -0.004500
     15 C                    -0.023519       0.179027
     16 C                    -0.177261       0.019363
     17 H                     0.139111      -0.009174
     18 C                     0.286677       0.145698
     19 S                     0.049760      -0.026854
     20 C                    -0.311930      -0.049177
     21 C                     0.076976       0.220630
     22 H                     0.160476       0.002152
     23 H                     0.241088      -0.011598
  --------------------------------------------------------
  Sum of atomic charges =     1.000000
  Sum of spin   charges =     1.000000

 -----------------------------------------------------------------
                    Cartesian Multipole Moments
 -----------------------------------------------------------------
    Charge (ESU x 10^10)
                 4.8032
    Dipole Moment (Debye)
         X      29.0188      Y      -1.3929      Z      -0.8428
       Tot      29.0644
    Quadrupole Moments (Debye-Ang)
        XX     158.3884     XY      -1.7620     YY     -85.9623
        XZ      -4.6597     YZ       2.5682     ZZ    -110.5342
    Octopole Moments (Debye-Ang^2)
       XXX     762.5743    XXY       9.1267    XYY    -519.6972
       YYY     124.7247    XXZ     -32.3789    XYZ       4.9234
       YYZ      11.2907    XZZ    -665.3134    YZZ      48.7342
       ZZZ      52.6356
    Hexadecapole Moments (Debye-Ang^3)
      XXXX   -1213.0868   XXXY      83.4366   XXYY   -4185.1517
      XYYY     767.8735   YYYY    -902.7482   XXXZ    -289.5045
      XXYZ     -26.6655   XYYZ      76.5179   YYYZ     -34.4513
      XXZZ   -5264.1589   XYZZ     274.1093   YYZZ    -207.2687
      XZZZ     288.6287   YZZZ     -61.0174   ZZZZ    -172.0928
 -----------------------------------------------------------------
 Calculating analytic gradient of the SCF energy
 Gradient of SCF Energy
            1           2           3           4           5           6
    1   0.0000010  -0.0000065  -0.0000441   0.0000257   0.0000787  -0.0000186
    2   0.0000108   0.0000042  -0.0000455   0.0000225  -0.0000360  -0.0000556
    3   0.0000124  -0.0000135  -0.0000199   0.0000126   0.0000277  -0.0000728
            7           8           9          10          11          12
    1   0.0000078  -0.0000219  -0.0000296   0.0000352   0.0000646  -0.0000675
    2   0.0000059   0.0001209  -0.0000182  -0.0001474   0.0000905   0.0000615
    3   0.0000053   0.0000649   0.0000076  -0.0000298  -0.0000311   0.0000641
           13          14          15          16          17          18
    1  -0.0001500   0.0000133   0.0001536  -0.0000111  -0.0000064  -0.0000175
    2  -0.0004322  -0.0000020   0.0005256   0.0001350   0.0000025  -0.0002810
    3   0.0021983  -0.0000233  -0.0048040   0.0048368   0.0000133  -0.0022071
           19          20          21          22          23
    1  -0.0000295  -0.0000183   0.0000359   0.0000046   0.0000008
    2   0.0000401   0.0000016   0.0000001  -0.0000023  -0.0000010
    3  -0.0000212  -0.0000115  -0.0000100   0.0000056  -0.0000044
 Max gradient component =       4.837E-03
 RMS gradient           =       9.080E-04
 Gradient time:  CPU 4.22 s  wall 4.18 s
 Geometry Optimization Parameters
   NAtoms,    NIC,     NZ,  NCons,   NDum,   NFix, NCnnct, MaxDiis
       23     166       0       1       0       0       0       0

 Cartesian Hessian Update
 Hessian Updated using BFGS Update


** CONSTRAINED OPTIMIZATION IN DELOCALIZED INTERNAL COORDINATES **
   Searching for a Minimum

   Optimization Cycle:  10

                       Coordinates (Angstroms)
     ATOM                X               Y               Z
      1  H        -0.1240930261   -0.5757244391   -0.1980415626
      2  H         1.0056926076   -2.9251546599   -0.6042333460
      3  C         0.9383329464   -0.7811162740   -0.2341237302
      4  C         1.5547156241   -2.0051479398   -0.4451148760
      5  S         2.0584294711    0.5021997575   -0.0122454565
      6  C         2.9534535591   -1.9111131873   -0.4271013704
      7  H         3.6146110649   -2.7584210124   -0.5711291976
      8  C         3.4193908839   -0.6054842191   -0.2011309370
      9  H         4.5424432173    1.9968843063    0.2830914795
     10  C         4.7572486509   -0.1516326831   -0.1220970172
     11  C         5.2165855244    1.1653418564    0.1132231943
     12  S         6.1176650902   -1.2444190557   -0.3357667483
     13  C         6.5945621338    1.2813584994    0.1220892948
     14  H         7.1199096944    2.2093541878    0.3111683418
     15  C         7.2688491595    0.0587495323   -0.1107451495
     16  C         8.6724049057   -0.1451175532   -0.1049377953
     17  H         9.4313001796    1.8953892330   -0.3676029946
     18  C         9.6607071898    0.8421276134   -0.2590714810
     19  S         9.4131429208   -1.7391579346   -0.0086695855
     20  C        10.9633281023    0.3215718901   -0.2845086562
     21  C        10.9859163237   -1.0575101983   -0.1572505855
     22  H        11.8585660459    0.9210718920   -0.3957633258
     23  H        11.8537177309   -1.7041927916   -0.1294059852
   Point Group: c1    Number of degrees of freedom:    63


   Energy is  -1656.416479561

              Constraints and their Current Values
                                        Value     Constraint
   Dihedral:       13  15  16  18      -20.000      -20.000
 Hessian Updated using BFGS Update

 62 Hessian modes will be used to form the next step
  Hessian Eigenvalues:
     0.008388    0.014775    0.044934    0.045000    0.045000    0.045001
     0.045001    0.045001    0.045002    0.045004    0.045005    0.045005
     0.045012    0.045013    0.045030    0.045038    0.045058    0.045064
     0.046508    0.157587    0.159928    0.159990    0.160002    0.160121
     0.160133    0.160510    0.164930    0.171984    0.221985    0.223500
     0.230652    0.239536    0.247059    0.249274    0.251008    0.271727
     0.290850    0.324097    0.326546    0.328879    0.339929    0.340949
     0.343669    0.365508    0.365592    0.365882    0.366916    0.367252
     0.368147    0.370151    0.371603    0.401096    0.429919    0.435789
     0.440581    0.462754    0.463496    0.472281    0.483065    0.496302
     0.500346    0.591570

 Minimum Search - Taking Simple RFO Step
 Searching for Lamda that Minimizes Along All modes
 Value Taken    Lamda =   0.00000000
 Step Taken.  Stepsize is  0.008673

                             Maximum     Tolerance    Cnvgd?
         Gradient           0.000081      0.000300     YES
         Displacement       0.005516      0.001200      NO
         Energy change     -0.000001      0.000001     YES

 Final energy is   -1656.41647956057     


 ******************************
 **  OPTIMIZATION CONVERGED  **
 ******************************

                       Coordinates (Angstroms)
     ATOM                X               Y               Z
      1  H        -0.1240930261   -0.5757244391   -0.1980415626
      2  H         1.0056926076   -2.9251546599   -0.6042333460
      3  C         0.9383329464   -0.7811162740   -0.2341237302
      4  C         1.5547156241   -2.0051479398   -0.4451148760
      5  S         2.0584294711    0.5021997575   -0.0122454565
      6  C         2.9534535591   -1.9111131873   -0.4271013704
      7  H         3.6146110649   -2.7584210124   -0.5711291976
      8  C         3.4193908839   -0.6054842191   -0.2011309370
      9  H         4.5424432173    1.9968843063    0.2830914795
     10  C         4.7572486509   -0.1516326831   -0.1220970172
     11  C         5.2165855244    1.1653418564    0.1132231943
     12  S         6.1176650902   -1.2444190557   -0.3357667483
     13  C         6.5945621338    1.2813584994    0.1220892948
     14  H         7.1199096944    2.2093541878    0.3111683418
     15  C         7.2688491595    0.0587495323   -0.1107451495
     16  C         8.6724049057   -0.1451175532   -0.1049377953
     17  H         9.4313001796    1.8953892330   -0.3676029946
     18  C         9.6607071898    0.8421276134   -0.2590714810
     19  S         9.4131429208   -1.7391579346   -0.0086695855
     20  C        10.9633281023    0.3215718901   -0.2845086562
     21  C        10.9859163237   -1.0575101983   -0.1572505855
     22  H        11.8585660459    0.9210718920   -0.3957633258
     23  H        11.8537177309   -1.7041927916   -0.1294059852

Z-matrix Print:
$molecule
1 2
S 
C  1 1.753313
C  2 1.415503 1 110.506861
H  3 1.083013 2 122.530164 1 178.445035 0
C  3 1.382880 2 113.650252 1 -0.205846 0
H  5 1.083875 3 123.669397 2 179.404742 0
C  5 1.414492 3 113.750984 2 0.200512 0
C  7 1.414953 5 127.950156 3 -179.575532 0
C  8 1.404574 7 128.374495 5 -179.625910 0
H  9 1.084345 8 123.056062 7 0.138067 0
C  9 1.402011 8 113.288914 7 -179.948416 0
H  11 1.083124 9 124.371959 8 -179.975253 0
C  11 1.386614 9 112.477692 8 -0.021342 0
H  13 1.082699 11 127.497860 9 -179.876794 0
C  2 1.418296 1 122.918197 3 177.129714 0
C  15 1.405401 2 126.476052 1 163.345072 0
H  16 1.083405 15 123.024898 2 2.194691 0
C  16 1.403013 15 113.219433 2 -176.601452 0
H  18 1.083157 16 124.324248 15 179.975099 0
C  18 1.385125 16 112.512391 15 0.264775 0
H  20 1.082614 18 127.601305 16 -178.881747 0
S  13 1.717774 11 112.909810 9 0.054802 0
S  20 1.720563 18 112.797521 16 0.152554 0
$end

 
 --------------------------------------------------------------
 
                    Orbital Energies (a.u.)
 --------------------------------------------------------------
 
 Alpha MOs
 -- Occupied --
-89.074 -89.065 -89.064 -10.410 -10.409 -10.391 -10.390 -10.378
-10.377 -10.366 -10.366 -10.358 -10.358 -10.345 -10.343  -8.134
 -8.124  -8.123  -6.098  -6.094  -6.090  -6.088  -6.088  -6.084
 -6.084  -6.081  -6.080  -1.064  -1.041  -1.026  -0.944  -0.914
 -0.893  -0.892  -0.883  -0.841  -0.772  -0.748  -0.710  -0.707
 -0.689  -0.677  -0.673  -0.643  -0.608  -0.572  -0.571  -0.570
 -0.561  -0.550  -0.548  -0.544  -0.534  -0.521  -0.519  -0.511
 -0.494  -0.488  -0.455  -0.422  -0.407  -0.404  -0.395  -0.346
 -- Virtual --
 -0.231  -0.177  -0.156  -0.133  -0.127  -0.113  -0.111  -0.103
 -0.098  -0.093  -0.091  -0.082  -0.081  -0.079  -0.072  -0.068
 -0.065  -0.063  -0.061  -0.051  -0.045  -0.043  -0.039  -0.032
 -0.027  -0.022  -0.015  -0.011  -0.007  -0.003   0.002   0.006
  0.011   0.012   0.014   0.017   0.024   0.028   0.028   0.031
  0.034   0.036   0.041   0.043   0.046   0.048   0.051   0.054
  0.056   0.061   0.066   0.069   0.071   0.076   0.081   0.083
  0.085   0.091   0.094   0.098   0.101   0.109   0.113   0.118
  0.120   0.123   0.128   0.133   0.134   0.138   0.151   0.153
  0.160   0.163   0.167   0.174   0.182   0.188   0.191   0.198
  0.202   0.210   0.219   0.231   0.238   0.239   0.247   0.250
  0.253   0.266   0.268   0.281   0.310   0.324   0.338   0.364
  0.377   0.382   0.396   0.402   0.427   0.436   0.447   0.454
  0.470   0.471   0.492   0.508   0.510   0.514   0.516   0.522
  0.525   0.529   0.548   0.553   0.564   0.573   0.582   0.587
  0.590   0.593   0.601   0.607   0.616   0.633   0.641   0.651
  0.667   0.673   0.683   0.694   0.697   0.710   0.737   0.756
  0.791   0.795   0.801   0.808   0.815   0.818   0.826   0.835
  0.844   0.849   0.856   0.864   0.876   0.878   0.893   0.898
  0.908   0.921   0.933   0.942   0.956   0.963   0.970   0.976
  1.003   1.021   1.029   1.039   1.059   1.069   1.091   1.109
  1.121   1.135   1.143   1.180   1.192   1.199   1.204   1.207
  1.215   1.222   1.226   1.314   1.320   1.332   1.342   1.363
  1.401   1.412   1.445   1.474   1.520   1.524   1.557   1.563
  1.656   1.681   1.707   1.723   1.750   1.772   1.776   1.777
  1.793   1.814   1.816   1.853   1.857   1.871   1.903   1.917
  1.929   1.941   1.972   2.001   2.009   2.031   2.046   2.063
  2.081   2.088   2.114   2.122   2.155   2.185   2.227   2.231
  2.263   2.289   2.296   2.306   2.319   2.332   2.343   2.366
  2.381   2.388   2.391   2.418   2.425   2.443   2.464   2.490
  2.522   2.540   2.566   2.574   2.588   2.649   2.714   2.733
  2.765   2.793   2.802   2.835   2.985   3.042   3.083   3.141
  3.143   3.176   3.270   3.275   3.522   3.596   3.606   3.800
  3.839   3.870   4.109   4.116   4.153   4.173   4.179   4.192
  4.234   4.323   4.401   4.494   4.558   4.590
 
 Beta MOs
 -- Occupied --
-89.075 -89.065 -89.064 -10.407 -10.407 -10.391 -10.390 -10.375
-10.374 -10.365 -10.365 -10.356 -10.356 -10.345 -10.344  -8.134
 -8.124  -8.123  -6.098  -6.095  -6.091  -6.088  -6.088  -6.085
 -6.084  -6.081  -6.081  -1.059  -1.037  -1.022  -0.939  -0.912
 -0.891  -0.890  -0.881  -0.833  -0.768  -0.745  -0.708  -0.705
 -0.687  -0.675  -0.672  -0.641  -0.606  -0.570  -0.568  -0.562
 -0.559  -0.548  -0.546  -0.537  -0.533  -0.519  -0.511  -0.508
 -0.493  -0.488  -0.437  -0.419  -0.402  -0.400  -0.379
 -- Virtual --
 -0.293  -0.215  -0.166  -0.154  -0.128  -0.122  -0.112  -0.103
 -0.101  -0.096  -0.092  -0.090  -0.081  -0.078  -0.073  -0.070
 -0.066  -0.063  -0.060  -0.059  -0.050  -0.043  -0.042  -0.038
 -0.032  -0.026  -0.021  -0.015  -0.010  -0.006  -0.003   0.004
  0.007   0.011   0.013   0.015   0.018   0.025   0.028   0.029
  0.031   0.035   0.037   0.042   0.044   0.047   0.048   0.052
  0.055   0.058   0.061   0.066   0.070   0.071   0.077   0.082
  0.084   0.086   0.092   0.095   0.100   0.102   0.110   0.114
  0.119   0.121   0.124   0.129   0.134   0.135   0.139   0.152
  0.154   0.161   0.164   0.168   0.175   0.183   0.189   0.192
  0.199   0.203   0.211   0.220   0.233   0.239   0.240   0.249
  0.251   0.254   0.267   0.270   0.283   0.311   0.325   0.339
  0.364   0.378   0.382   0.398   0.402   0.428   0.437   0.448
  0.455   0.471   0.472   0.494   0.513   0.515   0.516   0.519
  0.526   0.530   0.534   0.548   0.555   0.567   0.575   0.584
  0.589   0.592   0.593   0.605   0.612   0.619   0.639   0.642
  0.652   0.668   0.676   0.688   0.695   0.701   0.713   0.738
  0.757   0.793   0.798   0.802   0.810   0.816   0.822   0.829
  0.836   0.846   0.850   0.857   0.866   0.878   0.879   0.893
  0.899   0.909   0.922   0.934   0.943   0.958   0.964   0.971
  0.977   1.004   1.025   1.032   1.043   1.063   1.073   1.093
  1.113   1.125   1.140   1.147   1.183   1.195   1.203   1.207
  1.209   1.221   1.227   1.228   1.316   1.325   1.336   1.345
  1.368   1.407   1.416   1.449   1.479   1.523   1.531   1.566
  1.571   1.661   1.683   1.708   1.726   1.752   1.773   1.778
  1.782   1.795   1.817   1.820   1.857   1.861   1.874   1.909
  1.920   1.934   1.942   1.978   2.008   2.016   2.037   2.050
  2.069   2.085   2.092   2.120   2.128   2.158   2.190   2.229
  2.233   2.267   2.290   2.301   2.310   2.322   2.335   2.345
  2.369   2.385   2.390   2.394   2.422   2.428   2.446   2.466
  2.493   2.526   2.541   2.569   2.577   2.590   2.651   2.717
  2.735   2.768   2.795   2.804   2.837   2.986   3.042   3.084
  3.141   3.143   3.176   3.271   3.276   3.523   3.597   3.607
  3.800   3.839   3.870   4.113   4.120   4.156   4.176   4.183
  4.194   4.239   4.327   4.405   4.497   4.561   4.593
 --------------------------------------------------------------
 
          Ground-State Mulliken Net Atomic Charges

     Atom                 Charge (a.u.)    Spin (a.u.)
  --------------------------------------------------------
      1 H                     0.241520      -0.011423
      2 H                     0.162941       0.001456
      3 C                     0.057062       0.222175
      4 C                    -0.220023      -0.037089
      5 S                    -0.032596      -0.019522
      6 C                     0.492503       0.138021
      7 H                     0.146298      -0.008965
      8 C                    -0.214387       0.025765
      9 H                     0.144275      -0.004628
     10 C                    -0.075559       0.183064
     11 C                    -0.088202       0.049283
     12 S                    -0.381745      -0.062044
     13 C                     0.178390       0.058340
     14 H                     0.148146      -0.004500
     15 C                    -0.023519       0.179027
     16 C                    -0.177261       0.019363
     17 H                     0.139111      -0.009174
     18 C                     0.286677       0.145698
     19 S                     0.049760      -0.026854
     20 C                    -0.311930      -0.049177
     21 C                     0.076976       0.220630
     22 H                     0.160476       0.002152
     23 H                     0.241088      -0.011598
  --------------------------------------------------------
  Sum of atomic charges =     1.000000
  Sum of spin   charges =     1.000000

 -----------------------------------------------------------------
                    Cartesian Multipole Moments
 -----------------------------------------------------------------
    Charge (ESU x 10^10)
                 4.8032
    Dipole Moment (Debye)
         X      29.0188      Y      -1.3929      Z      -0.8428
       Tot      29.0644
    Quadrupole Moments (Debye-Ang)
        XX     158.3884     XY      -1.7620     YY     -85.9623
        XZ      -4.6597     YZ       2.5682     ZZ    -110.5342
    Octopole Moments (Debye-Ang^2)
       XXX     762.5743    XXY       9.1267    XYY    -519.6972
       YYY     124.7247    XXZ     -32.3789    XYZ       4.9234
       YYZ      11.2907    XZZ    -665.3134    YZZ      48.7342
       ZZZ      52.6356
    Hexadecapole Moments (Debye-Ang^3)
      XXXX   -1213.0868   XXXY      83.4366   XXYY   -4185.1517
      XYYY     767.8735   YYYY    -902.7482   XXXZ    -289.5045
      XXYZ     -26.6655   XYYZ      76.5179   YYYZ     -34.4513
      XXZZ   -5264.1589   XYZZ     274.1093   YYZZ    -207.2687
      XZZZ     288.6287   YZZZ     -61.0174   ZZZZ    -172.0928
 -----------------------------------------------------------------
Archival summary:
1\1\nid00536\OPT\ProcedureUnspecified\BasisUnspecified\3128(1+,2)\bwood\TueMay3011:02:312017TueMay3011:02:312017\0\\#,OPT,ProcedureUnspecified,BasisUnspecified,\\1,2\S\C,1,1.75331\C,2,1.4155,1,110.507\H,3,1.08301,2,122.53,1,178.445,0\C,3,1.38288,2,113.65,1,-0.205846,0\H,5,1.08388,3,123.669,2,179.405,0\C,5,1.41449,3,113.751,2,0.200512,0\C,7,1.41495,5,127.95,3,-179.576,0\C,8,1.40457,7,128.374,5,-179.626,0\H,9,1.08434,8,123.056,7,0.138067,0\C,9,1.40201,8,113.289,7,-179.948,0\H,11,1.08312,9,124.372,8,-179.975,0\C,11,1.38661,9,112.478,8,-0.0213421,0\H,13,1.0827,11,127.498,9,-179.877,0\C,2,1.4183,1,122.918,3,177.13,0\C,15,1.4054,2,126.476,1,163.345,0\H,16,1.08341,15,123.025,2,2.19469,0\C,16,1.40301,15,113.219,2,-176.601,0\H,18,1.08316,16,124.324,15,179.975,0\C,18,1.38513,16,112.512,15,0.264775,0\H,20,1.08261,18,127.601,16,-178.882,0\S,13,1.71777,11,112.91,9,0.0548025,0\S,20,1.72056,18,112.798,16,0.152554,0\\\@

 Total job time:  222.11s(wall), 235.44s(cpu) 
 Tue May 30 11:02:31 2017

        *************************************************************
        *                                                           *
        *  Thank you very much for using Q-Chem.  Have a nice day.  *
        *                                                           *
        *************************************************************


0 sent ACK to 0 
now end server 0 ... 
