srun -N 1 --ntasks-per-node 22 --cpus-per-task 2 --cpu_bind=cores --nodelist nid00538 /global/project/projectdirs/jcesr/qchem/qc44/cnl_qc441/dist/exe/qcprog.cori.haswell.exe .pt_nn_cation_-140.0.in.33575.qcin.1 /dev/shm/eg_qchem/qchem33575/
Process 1 of 22 is on nid00538 - thread support 0
Process 2 of 22 is on nid00538 - thread support 0
Process 3 of 22 is on nid00538 - thread support 0
Process 4 of 22 is on nid00538 - thread support 0
Process 5 of 22 is on nid00538 - thread support 0
Process 6 of 22 is on nid00538 - thread support 0
Process 0 of 22 is on nid00538 - thread support 0
Process 21 of 22 is on nid00538 - thread support 0
initial socket setup ...start
initial socket setup ...done 
now start server 0 ... 
nid00538 10.128.2
Q-Chem Developer Version! Running on 10.128.2.*
                  Welcome to Q-Chem
     A Quantum Leap Into The Future Of Chemistry


 Q-Chem 4.4, Q-Chem, Inc., Pleasanton, CA (2016)

 Y. Shao,  Z. Gan,  E. Epifanovsky,  A. T. B. Gilbert,  M. Wormit,  
 J. Kussmann,  A. W. Lange,  A. Behn,  J. Deng,  X. Feng,  D. Ghosh,  
 M. Goldey,  P. R. Horn,  L. D. Jacobson,  I. Kaliman,  F. Rob,  
 R. Z. Khaliullin,  T. Kus,  A. Landau,  J. Liu,  E. I. Proynov,  Y. M. Rhee,  
 R. M. Richard,  M. A. Rohrdanz,  R. P. Steele,  E. J. Sundstrom,  
 H. L. Woodcock III,  P. M. Zimmerman,  D. Zuev,  B. Albrecht,  E. Alguire,  
 B. Austin,  S. A. Baeppler,  G. J. O. Beran,  Y. A. Bernard,  
 E. J. Berquist,  K. Brandhorst,  K. B. Bravaya,  S. T. Brown,  D. Casanova,  
 C.-M. Chang,  Y. Chen,  S. H. Chien,  K. D. Closser,  M. P. Coons,  
 D. L. Crittenden,  S. Dasgupta,  M. Diedenhofen,  R. A. DiStasio Jr.,  
 H. Do,  A. D. Dutoi,  R. G. Edgar,  P.-T. Fang,  S. Fatehi,  Q. Feng,  
 L. Fusti-Molnar,  A. Ghysels,  A. Golubeva-Zadorozhnaya,  J. Gomes,  
 A. Gunina,  M. W. D. Hanson-Heine,  P. H. P. Harbach,  A. W. Hauser,  
 J. E. Herr,  E. G. Hohenstein,  Z. C. Holden,  K. Hui,  T.-C. Jagau,  H. Ji,  
 B. Kaduk,  K. Khistyaev,  Jaehoon Kim,  Jihan Kim,  R. A. King,  
 P. Klunzinger,  K. Koh,  D. Kosenkov,  T. Kowalczyk,  C. M. Krauter,  
 A. Kunitsa,  K. U. Lao,  A. Laurent,  K. V. Lawler,  J. Lee,  D. Lefrancois,  
 S. Lehtola,  S. V. Levchenko,  C. Y. Lin,  Y.-S. Lin,  F. Liu,  E. Livshits,  
 R. C. Lochan,  A. Luenser,  P. Manohar,  S. F. Manzer,  S.-P. Mao,  Y. Mao,  
 N. Mardirossian,  A. V. Marenich,  L. A. Martinez-Martinez,  S. A. Maurer,  
 N. J. Mayhall,  J.-M. Mewes,  A. F. Morrison,  K. Nanda,  T. S. Nguyen-Beck,  
 C. M. Oana,  R. Olivares-Amaya,  D. P. O'Neill,  J. A. Parkhill,  
 T. M. Perrine,  R. Peverati,  P. A. Pieniazek,  F. Plasser,  A. Prociuk,  
 D. R. Rehn,  E. Rosta,  N. J. Russ,  N. Sergueev,  S. M. Sharada,  
 S. Sharma,  D. W. Small,  A. Sodt,  T. Stauch,  T. Stein,  D. Stuck,  
 Y.-C. Su,  A. J. W. Thom,  T. Tsuchimochi,  L. Vogt,  O. Vydrov,  T. Wang,  
 M. A. Watson,  J. Wenzel,  A. White,  C. F. Williams,  V. Vanovschi,  
 K. Yao,  S. Yeganeh,  S. R. Yost,  Z.-Q. You,  I. Y. Zhang,  X. Zhang,  
 Y. Zhao,  B. R. Brooks,  G. K. L. Chan,  D. M. Chipman,  C. J. Cramer,  
 W. A. Goddard III,  M. S. Gordon,  W. J. Hehre,  A. Klamt,  
 H. F. Schaefer III,  M. W. Schmidt,  C. D. Sherrill,  D. G. Truhlar,  
 A. Warshel,  X. Xu,  A. Aspuru-Guzik,  R. Baer,  A. T. Bell,  N. A. Besley,  
 J.-D. Chai,  A. Dreuw,  B. D. Dunietz,  T. R. Furlani,  S. R. Gwaltney,  
 C.-P. Hsu,  Y. Jung,  J. Kong,  D. S. Lambrecht,  W. Liang,  C. Ochsenfeld,  
 V. A. Rassolov,  L. V. Slipchenko,  J. E. Subotnik,  T. Van Voorhis,  
 J. M. Herbert,  A. I. Krylov,  P. M. W. Gill,  M. Head-Gordon

 Contributors to earlier versions of Q-Chem not listed above: 
 R. D. Adamson,  J. Baker,  E. F. C. Byrd,  A. K. Chakraborty,  C.-L. Cheng,  
 H. Dachsel,  R. J. Doerksen,  G. Hawkins,  A. Heyden,  S. Hirata,  
 G. Kedziora,  F. J. Keil,  C. Kelley,  P. P. Korambath,  W. Kurlancheek,  
 A. M. Lee,  M. S. Lee,  D. Liotard,  I. Lotan,  P. E. Maslen,  N. Nair,  
 D. Neuhauser,  R. Olson,  B. Peters,  J. Ritchie,  N. E. Schultz,  
 N. Shenvi,  A. C. Simmonett,  K. S. Thanthiriwatte,  Q. Wu,  W. Zhang

 Please cite Q-Chem as follows:
 Y. Shao et al., Mol. Phys. 113, 184-215 (2015)
 DOI: 10.1080/00268976.2014.952696

 Q-Chem 4.4.2 for Intel X86 EM64T Linux

 Parts of Q-Chem use Armadillo 5.200.1 (Boston Tea Smuggler).
 http://arma.sourceforge.net/

 Q-Chem begins on Tue May 30 10:58:48 2017  

Host: nid00444
0

     Scratch files written to /dev/shm/eg_qchem/qchem33575.0//
 Parallel job on  22  processors

Checking the input file for inconsistencies... 	...done.

--------------------------------------------------------------
User input:
--------------------------------------------------------------
$molecule
 1  2
 H           0.00000000        0.00000000        0.00000000
 H           0.66366000       -2.46828000       -0.59127000
 C           0.99103000       -0.39106000       -0.11652000
 C           1.36812000       -1.67442000       -0.42485000
 S           2.34669000        0.62586000        0.08638000
 C           2.76167000       -1.82175000       -0.50822000
 H           3.26291000       -2.73877000       -0.76199000
 C           3.44671000       -0.65043000       -0.26057000
 H           4.55645000        1.43902671        0.15704385
 C           4.88382000       -0.65043000       -0.26057000
 C           5.26091000        0.64090194        0.01245390
 S           6.23948000       -1.67253113       -0.43550939
 C           6.65446000        0.79046248        0.09175311
 H           7.15570000        1.71409653        0.32028213
 C           7.33950000       -0.38720773       -0.12368600
 C           8.77661000       -0.38720773       -0.12368600
 H           8.96041000       -1.80176853       -1.73973121
 C           9.46165000       -1.15087407       -1.04571400
 S           9.87663000        0.51316827        0.84513440
 C          10.85520000       -1.00858178       -0.95401007
 C          11.23229000       -0.13911501        0.03901916
 H          11.55966000       -1.52489342       -1.57957478
 H          12.22332000        0.14580729        0.33112304
$end


$rem
         jobtype = opt
        exchange = b3lyp
           basis = 6-31++g**
  max_scf_cycles = 150
      mem_static = 281
       mem_total = 2818
      sym_ignore = true
        symmetry = false
          thresh = 12
$end


$opt
CONSTRAINT
tors 13 15 16 18 -140.0
ENDCONSTRAINT
$end

--------------------------------------------------------------
 ----------------------------------------------------------------
             Standard Nuclear Orientation (Angstroms)
    I     Atom           X                Y                Z
 ----------------------------------------------------------------
    1      H       0.0000000000     0.0000000000     0.0000000000
    2      H       0.6636600000    -2.4682800000    -0.5912700000
    3      C       0.9910300000    -0.3910600000    -0.1165200000
    4      C       1.3681200000    -1.6744200000    -0.4248500000
    5      S       2.3466900000     0.6258600000     0.0863800000
    6      C       2.7616700000    -1.8217500000    -0.5082200000
    7      H       3.2629100000    -2.7387700000    -0.7619900000
    8      C       3.4467100000    -0.6504300000    -0.2605700000
    9      H       4.5564500000     1.4390267100     0.1570438500
   10      C       4.8838200000    -0.6504300000    -0.2605700000
   11      C       5.2609100000     0.6409019400     0.0124539000
   12      S       6.2394800000    -1.6725311300    -0.4355093900
   13      C       6.6544600000     0.7904624800     0.0917531100
   14      H       7.1557000000     1.7140965300     0.3202821300
   15      C       7.3395000000    -0.3872077300    -0.1236860000
   16      C       8.7766100000    -0.3872077300    -0.1236860000
   17      H       8.9604100000    -1.8017685300    -1.7397312100
   18      C       9.4616500000    -1.1508740700    -1.0457140000
   19      S       9.8766300000     0.5131682700     0.8451344000
   20      C      10.8552000000    -1.0085817800    -0.9540100700
   21      C      11.2322900000    -0.1391150100     0.0390191600
   22      H      11.5596600000    -1.5248934200    -1.5795747800
   23      H      12.2233200000     0.1458072900     0.3311230400
 ----------------------------------------------------------------
 Nuclear Repulsion Energy =  1185.6948635133 hartrees
 There are       64 alpha and       63 beta electrons
 Requested basis set is 6-31++G(d,p)
 There are 110 shells and 345 basis functions

 Total QAlloc Memory Limit   2818 MB
 Mega-Array Size       275 MB
 MEM_STATIC part       281 MB
 A cutoff of  1.0D-12 yielded   4718 shell pairs
 There are     48088 function pairs

 Q-Chem warning in module /project/projectdirs/jcesr/qchem/qc44/cnl_qc441/compile/cori/qc_src/libqints/qchem/aobasis.C, line 68:

 Using reconstructed effective core potential

 
 -------------------------------------------------------
 OpenMP Integral Computing Module                       
 Release: version 1.0, May 2013, Q-Chem Inc. Pittsburgh 
 -------------------------------------------------------
 Integral Job Info:
 Integral job number is                      11
 Integral operator is                         1
 short-range coefficients                     0
 long-range coefficients              100000000
 Omega coefficients                           0
 if combine SR and LR in K                    0
 Integral screening is                        0
 Integral computing path is                   2
 max size of driver memory is            800000
 size of driver memory is                593474
 size of scratch memory is             15166112
 max col of scratch BK array               1296
 max len of scratch array in speh3          155
 max len of scratch index in speh4           18
 max int batch size is                      520
 min int batch size is                       52
 fixed nKL is                                52
 max L of basis functions is                  2
 order of int derivative is                   0
 number of shells is                        110
 number of basis is                         345
 number of cartesian basis is               345
 number of contracted shell pairs          4718
 number of primitive shell pairs          14804
 maxK2 (contraction) of shell pair           36
 max number of K2 of shell pair               1
 max number of CS2 of shell pair            511
 max number of PS2 of shell pair           3066
 mem total for path MDJ                  101288
 -------------------------------------------------------
 Smallest overlap matrix eigenvalue = 7.86E-08
 Linear dependence detected in AO basis
 Number of orthogonalized atomic orbitals = 342
 Maximum deviation from orthogonality = 4.777E-11

 Scale SEOQF with 1.000000e-02/1.000000e-01/1.000000e-01

 Standard Electronic Orientation quadrupole field applied
 Nucleus-field energy     =     0.0000000285 hartrees
 Guess from superposition of atomic densities
 Warning:  Energy on first SCF cycle will be non-variational
 An unrestricted hybrid HF-DFT SCF calculation will be
 performed using Pulay DIIS extrapolation
 Exchange:     0.2000 Hartree-Fock + 0.0800 Slater + 0.7200 B88
 Correlation:  0.1900 VWN1RPA + 0.8100 LYP
 Using SG-1 standard quadrature grid
 SCF converges when DIIS error is below 1.0E-08
 Inaccurate integrated density:
   Number of electrons =   127
   Numerical integral  =   127.999736954413
   Relative error      =     0.7871944523 %
 ---------------------------------------
  Cycle       Energy         DIIS Error
 ---------------------------------------
    1   -1660.7317923236      3.84E-02
    2   -1656.1490357044      3.62E-03
    3   -1655.8005305749      5.69E-03
    4   -1656.3454817007      1.11E-03
    5   -1656.3609005011      5.99E-04
    6   -1656.3668243274      1.90E-04
    7   -1656.3674227982      7.93E-05
    8   -1656.3675620889      2.19E-05
    9   -1656.3675831344      6.72E-06
   10   -1656.3675955965      3.53E-06
   11   -1656.3676025707      2.80E-06
   12   -1656.3676064891      1.09E-06
   13   -1656.3676078605      6.91E-07
   14   -1656.3676079536      2.90E-07
   15   -1656.3676079878      6.49E-08
   16   -1656.3676079903      5.06E-08
   17   -1656.3676079879      2.01E-08
   18   -1656.3676079891      1.30E-08
   19   -1656.3676079895      6.47E-09 Convergence criterion met
 ---------------------------------------
 <S^2> = 0.7648
 SCF time:  CPU 26.08 s  wall 24.41 s
 SCF   energy in the final basis set = -1656.3676079895
 Total energy in the final basis set = -1656.3676079895
 
 --------------------------------------------------------------
 
                    Orbital Energies (a.u.)
 --------------------------------------------------------------
 
 Alpha MOs
 -- Occupied --
-89.087 -89.069 -89.062 -10.406 -10.404 -10.393 -10.383 -10.379
-10.368 -10.359 -10.356 -10.352 -10.346 -10.343 -10.335  -8.146
 -8.129  -8.121  -6.111  -6.107  -6.103  -6.093  -6.089  -6.086
 -6.086  -6.082  -6.078  -1.081  -1.052  -1.037  -0.956  -0.915
 -0.900  -0.895  -0.886  -0.849  -0.774  -0.749  -0.714  -0.698
 -0.690  -0.685  -0.676  -0.656  -0.607  -0.583  -0.580  -0.571
 -0.565  -0.552  -0.550  -0.545  -0.531  -0.526  -0.522  -0.507
 -0.493  -0.489  -0.455  -0.423  -0.408  -0.401  -0.396  -0.356
 -- Virtual --
 -0.219  -0.171  -0.144  -0.142  -0.122  -0.114  -0.113  -0.105
 -0.097  -0.095  -0.092  -0.085  -0.083  -0.078  -0.076  -0.073
 -0.070  -0.064  -0.060  -0.053  -0.050  -0.045  -0.038  -0.035
 -0.025  -0.024  -0.018  -0.011  -0.005   0.001   0.004   0.006
  0.007   0.010   0.016   0.020   0.024   0.028   0.032   0.034
  0.035   0.037   0.042   0.044   0.045   0.049   0.052   0.053
  0.055   0.060   0.063   0.065   0.070   0.071   0.077   0.080
  0.088   0.094   0.098   0.100   0.109   0.110   0.114   0.117
  0.120   0.123   0.126   0.135   0.137   0.142   0.150   0.152
  0.159   0.163   0.167   0.173   0.176   0.180   0.189   0.203
  0.206   0.207   0.221   0.230   0.237   0.239   0.247   0.252
  0.258   0.266   0.269   0.290   0.305   0.332   0.348   0.361
  0.375   0.385   0.391   0.407   0.422   0.434   0.460   0.465
  0.477   0.489   0.496   0.499   0.505   0.508   0.514   0.518
  0.526   0.536   0.548   0.559   0.575   0.579   0.592   0.594
  0.599   0.603   0.604   0.619   0.636   0.647   0.651   0.658
  0.666   0.669   0.674   0.682   0.697   0.708   0.742   0.750
  0.793   0.799   0.803   0.811   0.817   0.823   0.827   0.836
  0.842   0.856   0.859   0.870   0.880   0.889   0.899   0.910
  0.911   0.919   0.932   0.948   0.951   0.968   0.975   0.978
  0.987   1.020   1.030   1.044   1.050   1.080   1.101   1.111
  1.135   1.149   1.157   1.182   1.189   1.198   1.211   1.215
  1.218   1.231   1.239   1.271   1.275   1.286   1.319   1.336
  1.356   1.398   1.460   1.482   1.504   1.559   1.563   1.594
  1.671   1.696   1.720   1.739   1.763   1.774   1.788   1.791
  1.816   1.842   1.844   1.866   1.882   1.896   1.917   1.944
  1.951   1.966   1.984   2.021   2.049   2.054   2.056   2.072
  2.091   2.114   2.143   2.148   2.191   2.194   2.234   2.245
  2.281   2.308   2.313   2.328   2.332   2.337   2.366   2.387
  2.390   2.395   2.417   2.446   2.454   2.460   2.469   2.513
  2.538   2.549   2.575   2.578   2.605   2.683   2.689   2.712
  2.757   2.777   2.810   2.823   3.024   3.059   3.093   3.160
  3.165   3.200   3.295   3.300   3.560   3.625   3.630   3.820
  3.846   3.852   4.101   4.139   4.165   4.173   4.188   4.194
  4.235   4.326   4.408   4.508   4.564   4.577
 
 Beta MOs
 -- Occupied --
-89.088 -89.069 -89.062 -10.403 -10.402 -10.392 -10.382 -10.376
-10.366 -10.357 -10.355 -10.350 -10.344 -10.344 -10.335  -8.147
 -8.129  -8.121  -6.111  -6.107  -6.103  -6.094  -6.090  -6.086
 -6.086  -6.082  -6.078  -1.076  -1.048  -1.034  -0.950  -0.914
 -0.895  -0.893  -0.885  -0.842  -0.771  -0.746  -0.711  -0.696
 -0.689  -0.682  -0.674  -0.655  -0.605  -0.579  -0.571  -0.570
 -0.563  -0.549  -0.544  -0.543  -0.528  -0.521  -0.516  -0.505
 -0.492  -0.488  -0.436  -0.420  -0.404  -0.397  -0.378
 -- Virtual --
 -0.303  -0.205  -0.161  -0.140  -0.138  -0.117  -0.112  -0.110
 -0.103  -0.094  -0.090  -0.086  -0.082  -0.081  -0.077  -0.074
 -0.071  -0.069  -0.064  -0.059  -0.052  -0.048  -0.044  -0.037
 -0.035  -0.024  -0.023  -0.017  -0.010  -0.004   0.002   0.004
  0.007   0.008   0.011   0.017   0.021   0.025   0.029   0.032
  0.034   0.036   0.038   0.043   0.044   0.046   0.050   0.053
  0.054   0.057   0.061   0.064   0.065   0.071   0.072   0.078
  0.080   0.088   0.095   0.099   0.101   0.110   0.112   0.115
  0.118   0.121   0.124   0.127   0.136   0.138   0.142   0.151
  0.153   0.160   0.164   0.168   0.173   0.178   0.181   0.191
  0.204   0.208   0.209   0.221   0.231   0.238   0.239   0.248
  0.253   0.260   0.267   0.270   0.292   0.306   0.333   0.350
  0.362   0.376   0.386   0.392   0.408   0.423   0.435   0.461
  0.466   0.479   0.492   0.499   0.501   0.509   0.510   0.517
  0.524   0.531   0.539   0.550   0.561   0.577   0.583   0.594
  0.596   0.600   0.605   0.607   0.624   0.641   0.648   0.653
  0.660   0.668   0.672   0.678   0.684   0.701   0.712   0.743
  0.751   0.794   0.802   0.805   0.813   0.819   0.826   0.830
  0.839   0.843   0.857   0.860   0.871   0.881   0.891   0.901
  0.912   0.912   0.921   0.933   0.949   0.952   0.970   0.976
  0.979   0.988   1.022   1.033   1.046   1.054   1.083   1.104
  1.114   1.138   1.153   1.161   1.184   1.192   1.203   1.216
  1.220   1.221   1.233   1.241   1.274   1.277   1.292   1.322
  1.341   1.360   1.401   1.463   1.488   1.510   1.568   1.570
  1.600   1.673   1.698   1.723   1.743   1.765   1.775   1.790
  1.792   1.820   1.846   1.848   1.870   1.886   1.900   1.920
  1.947   1.954   1.971   1.990   2.027   2.055   2.060   2.064
  2.078   2.097   2.119   2.146   2.153   2.196   2.199   2.237
  2.247   2.287   2.311   2.315   2.331   2.335   2.341   2.368
  2.390   2.392   2.400   2.418   2.450   2.456   2.462   2.471
  2.516   2.541   2.551   2.577   2.581   2.607   2.687   2.692
  2.715   2.759   2.779   2.812   2.826   3.025   3.060   3.094
  3.160   3.166   3.201   3.296   3.301   3.561   3.626   3.631
  3.820   3.847   3.852   4.105   4.143   4.170   4.176   4.191
  4.196   4.240   4.330   4.413   4.511   4.566   4.580
 --------------------------------------------------------------
 
          Ground-State Mulliken Net Atomic Charges

     Atom                 Charge (a.u.)    Spin (a.u.)
  --------------------------------------------------------
      1 H                     0.249600      -0.011915
      2 H                     0.155709       0.001366
      3 C                     0.096034       0.240034
      4 C                    -0.385585      -0.042003
      5 S                    -0.090646      -0.030990
      6 C                     0.561336       0.144941
      7 H                     0.139670      -0.009064
      8 C                     0.159336       0.051122
      9 H                     0.063793      -0.006379
     10 C                    -0.140840       0.165892
     11 C                    -0.531129       0.080322
     12 S                     0.158547      -0.041921
     13 C                    -0.039023       0.027759
     14 H                     0.152953      -0.001449
     15 C                    -0.003191       0.174159
     16 C                    -0.096741       0.040993
     17 H                     0.141318      -0.007511
     18 C                     0.252104       0.104715
     19 S                     0.130828      -0.023774
     20 C                    -0.410102      -0.029590
     21 C                     0.049308       0.181021
     22 H                     0.151943       0.001531
     23 H                     0.234777      -0.009260
  --------------------------------------------------------
  Sum of atomic charges =     1.000000
  Sum of spin   charges =     1.000000

 -----------------------------------------------------------------
                    Cartesian Multipole Moments
 -----------------------------------------------------------------
    Charge (ESU x 10^10)
                 4.8032
    Dipole Moment (Debye)
         X      28.4480      Y      -2.4796      Z      -1.3029
       Tot      28.5856
    Quadrupole Moments (Debye-Ang)
        XX     152.1315     XY     -11.3313     YY     -92.6592
        XZ      -8.5783     YZ       7.1775     ZZ    -105.5543
    Octopole Moments (Debye-Ang^2)
       XXX     680.1262    XXY     -47.1803    XYY    -587.6462
       YYY     117.5740    XXZ     -57.9937    XYZ      51.3429
       YYZ       4.5818    XZZ    -629.9319    YZZ      40.6943
       ZZZ      44.4520
    Hexadecapole Moments (Debye-Ang^3)
      XXXX   -2399.8856   XXXY    -174.7144   XXYY   -4888.6619
      XYYY     671.8153   YYYY    -741.0215   XXXZ    -446.4176
      XXYZ     431.1245   XYYZ      14.1134   YYYZ     -99.9894
      XXZZ   -4983.5852   XYZZ     191.1370   YYZZ    -176.0980
      XZZZ     206.4936   YZZZ    -124.3253   ZZZZ    -303.7023
 -----------------------------------------------------------------
 Calculating analytic gradient of the SCF energy
 Gradient of SCF Energy
            1           2           3           4           5           6
    1   0.0068945   0.0045507  -0.0047409  -0.0007905   0.0028898   0.0246028
    2  -0.0034505   0.0048354   0.0013200   0.0129098  -0.0270185   0.0115955
    3  -0.0011231   0.0010817  -0.0002894   0.0040084  -0.0058169   0.0034559
            7           8           9          10          11          12
    1  -0.0015295  -0.0218991  -0.0021690   0.0457766  -0.0633104   0.0006342
    2   0.0061465   0.0621310  -0.0060751  -0.0473286  -0.0330984   0.0411459
    3   0.0005749   0.0115928  -0.0001867  -0.0071161  -0.0086170   0.0093023
           13          14          15          16          17          18
    1   0.0313379  -0.0027167  -0.0204138   0.0193392   0.0013412  -0.0170816
    2  -0.0190429  -0.0054732  -0.0291266   0.0262700   0.0030315   0.0136694
    3  -0.0120923   0.0003854  -0.0116903   0.0168061   0.0056456   0.0026112
           19          20          21          22          23
    1   0.0048830  -0.0012066   0.0046426  -0.0041882  -0.0068462
    2  -0.0192251   0.0056975   0.0004494   0.0026937  -0.0020565
    3  -0.0199548   0.0071160   0.0028165   0.0044283  -0.0029386
 Max gradient component =       6.331E-02
 RMS gradient           =       1.848E-02
 Gradient time:  CPU 4.22 s  wall 4.28 s
 Geometry Optimization Parameters
   NAtoms,    NIC,     NZ,  NCons,   NDum,   NFix, NCnnct, MaxDiis
       23     166       0       1       0       0       0       0


** CONSTRAINED OPTIMIZATION IN DELOCALIZED INTERNAL COORDINATES **
   Searching for a Minimum

   Optimization Cycle:   1

                       Coordinates (Angstroms)
     ATOM                X               Y               Z
      1  H         0.0000000000    0.0000000000    0.0000000000
      2  H         0.6636600000   -2.4682800000   -0.5912700000
      3  C         0.9910300000   -0.3910600000   -0.1165200000
      4  C         1.3681200000   -1.6744200000   -0.4248500000
      5  S         2.3466900000    0.6258600000    0.0863800000
      6  C         2.7616700000   -1.8217500000   -0.5082200000
      7  H         3.2629100000   -2.7387700000   -0.7619900000
      8  C         3.4467100000   -0.6504300000   -0.2605700000
      9  H         4.5564500000    1.4390267100    0.1570438500
     10  C         4.8838200000   -0.6504300000   -0.2605700000
     11  C         5.2609100000    0.6409019400    0.0124539000
     12  S         6.2394800000   -1.6725311300   -0.4355093900
     13  C         6.6544600000    0.7904624800    0.0917531100
     14  H         7.1557000000    1.7140965300    0.3202821300
     15  C         7.3395000000   -0.3872077300   -0.1236860000
     16  C         8.7766100000   -0.3872077300   -0.1236860000
     17  H         8.9604100000   -1.8017685300   -1.7397312100
     18  C         9.4616500000   -1.1508740700   -1.0457140000
     19  S         9.8766300000    0.5131682700    0.8451344000
     20  C        10.8552000000   -1.0085817800   -0.9540100700
     21  C        11.2322900000   -0.1391150100    0.0390191600
     22  H        11.5596600000   -1.5248934200   -1.5795747800
     23  H        12.2233200000    0.1458072900    0.3311230400
   Point Group: c1    Number of degrees of freedom:    63


   Energy is  -1656.367607990

              Constraints and their Current Values
                                        Value     Constraint
   Dihedral:       13  15  16  18     -140.000     -140.000

 Attempting to Generate Delocalized Internal Coordinates

 62 Hessian modes will be used to form the next step
  Hessian Eigenvalues:
     0.045000    0.045000    0.045000    0.045000    0.045000    0.045000
     0.045001    0.045001    0.045001    0.045002    0.045003    0.045003
     0.045011    0.045012    0.045012    0.045025    0.045032    0.045058
     0.045059    0.159944    0.159945    0.159945    0.159992    0.159993
     0.159993    0.160000    0.160000    0.221307    0.221308    0.227041
     0.237995    0.238010    0.245411    0.249662    0.249670    0.249670
     0.249825    0.326317    0.326319    0.326962    0.340043    0.340044
     0.340629    0.365512    0.365512    0.365513    0.366888    0.366889
     0.366889    0.370099    0.370100    0.399845    0.399845    0.435419
     0.435419    0.435422    0.463117    0.463122    0.464282    0.495500
     0.495500    0.495533

 Minimum Search - Taking Simple RFO Step
 Searching for Lamda that Minimizes Along All modes
 Value Taken    Lamda =  -0.06771074
 Calculated Step too Large.  Step scaled by  0.675528
 Step Taken.  Stepsize is  0.300000

                             Maximum     Tolerance    Cnvgd?
         Gradient           0.073995      0.000300      NO
         Displacement       0.136325      0.001200      NO
         Energy change     *********      0.000001      NO


 New Cartesian Coordinates Obtained by Inverse Iteration

 Displacement from previous Coordinates is:  1.671878
 ----------------------------------------------------------------
             Standard Nuclear Orientation (Angstroms)
    I     Atom           X                Y                Z
 ----------------------------------------------------------------
    1      H      -0.0998570046    -0.2682524863    -0.0506411124
    2      H       0.7951129831    -2.6747790549    -0.6478294790
    3      C       0.9311745622    -0.5669114362    -0.1508209691
    4      C       1.4248234442    -1.8173479377    -0.4624459932
    5      S       2.1764547357     0.5895391934     0.0877711218
    6      C       2.8273454764    -1.8295326384    -0.5167052848
    7      H       3.4145199892    -2.7017916692    -0.7652853698
    8      C       3.4103007174    -0.5861873833    -0.2452044906
    9      H       4.6595863070     1.7343957465     0.2243316338
   10      C       4.8439716326    -0.4112624313    -0.2097924714
   11      C       5.3100894702     0.8901518411     0.0701045864
   12      S       6.1725467904    -1.4884535174    -0.3991074979
   13      C       6.7022057440     0.9834092262     0.1352893682
   14      H       7.2485480607     1.8891139526     0.3549358474
   15      C       7.3344572206    -0.2388637075    -0.0963671048
   16      C       8.7634160768    -0.3788406948    -0.1391560303
   17      H       8.8715658063    -1.8214200456    -1.7675367867
   18      C       9.4082711581    -1.1983062235    -1.0667553815
   19      S       9.9165053226     0.4661015234     0.8382102721
   20      C      10.8093457629    -1.1378026679    -0.9747907987
   21      C      11.2281797019    -0.2812360623     0.0222593239
   22      H      11.4887887382    -1.6970196450    -1.6005151690
   23      H      12.2395273040    -0.0527000619     0.3173399256
 ----------------------------------------------------------------
 Nuclear Repulsion Energy =  1176.4605624248 hartrees
 There are       64 alpha and       63 beta electrons
 Applying Cartesian multipole field
    Component          Value
    ---------          -----
     (2,0,0)        1.00000E-12
     (0,2,0)        2.00000E-11
     (0,0,2)       -3.00000E-11
 Nucleus-field energy     =     0.0000000285 hartrees
 Requested basis set is 6-31++G(d,p)
 There are 110 shells and 345 basis functions
 A cutoff of  1.0D-12 yielded   4709 shell pairs
 There are     47984 function pairs

 Q-Chem warning in module /project/projectdirs/jcesr/qchem/qc44/cnl_qc441/compile/cori/qc_src/libqints/qchem/aobasis.C, line 68:

 Using reconstructed effective core potential

 Smallest overlap matrix eigenvalue = 7.13E-08
 Linear dependence detected in AO basis
 Number of orthogonalized atomic orbitals = 342
 Maximum deviation from orthogonality = 1.002E-10
 Guess MOs from SCF MO coefficient file
 Reading MOs from coefficient file
 Reading MOs from coefficient file
 An unrestricted hybrid HF-DFT SCF calculation will be
 performed using Pulay DIIS extrapolation
 Exchange:     0.2000 Hartree-Fock + 0.0800 Slater + 0.7200 B88
 Correlation:  0.1900 VWN1RPA + 0.8100 LYP
 Using SG-1 standard quadrature grid
 SCF converges when DIIS error is below 1.0E-08
 Geometry optimization detected.  Setting ReadMinima to 0
 Setting SaveMinima to 0
 Inaccurate integrated density:
   Number of electrons =   127
   Numerical integral  =   126.852064156477
   Relative error      =    -0.1164849162 %
 ---------------------------------------
  Cycle       Energy         DIIS Error
 ---------------------------------------
    1   -1656.1713457304      4.46E-03
    2   -1656.3787673317      1.07E-03
    3   -1656.3335797306      1.93E-03
    4   -1656.3983533681      2.45E-04
    5   -1656.3992357884      8.56E-05
    6   -1656.3993473741      3.51E-05
    7   -1656.3993661721      1.55E-05
    8   -1656.3993701204      4.39E-06
    9   -1656.3993704946      2.13E-06
   10   -1656.3993706324      6.57E-07
   11   -1656.3993706807      3.70E-07
   12   -1656.3993707007      1.53E-07
   13   -1656.3993707101      8.46E-08
   14   -1656.3993707134      4.40E-08
   15   -1656.3993707164      2.40E-08
   16   -1656.3993707148      1.06E-08
   17   -1656.3993707162      5.89E-09 Convergence criterion met
 ---------------------------------------
 <S^2> = 0.7665
 SCF time:  CPU 23.60 s  wall 22.02 s
 SCF   energy in the final basis set = -1656.3993707162
 Total energy in the final basis set = -1656.3993707162
 
 --------------------------------------------------------------
 
                    Orbital Energies (a.u.)
 --------------------------------------------------------------
 
 Alpha MOs
 -- Occupied --
-89.083 -89.069 -89.063 -10.410 -10.408 -10.394 -10.385 -10.380
-10.371 -10.363 -10.360 -10.356 -10.350 -10.345 -10.338  -8.142
 -8.128  -8.122  -6.106  -6.103  -6.098  -6.093  -6.089  -6.086
 -6.085  -6.082  -6.079  -1.070  -1.045  -1.031  -0.946  -0.913
 -0.894  -0.893  -0.887  -0.845  -0.770  -0.745  -0.712  -0.700
 -0.688  -0.682  -0.673  -0.653  -0.606  -0.576  -0.572  -0.569
 -0.560  -0.550  -0.548  -0.544  -0.528  -0.527  -0.522  -0.510
 -0.494  -0.491  -0.451  -0.421  -0.407  -0.402  -0.396  -0.353
 -- Virtual --
 -0.223  -0.174  -0.145  -0.138  -0.124  -0.119  -0.112  -0.104
 -0.099  -0.094  -0.090  -0.086  -0.083  -0.080  -0.076  -0.073
 -0.070  -0.064  -0.060  -0.053  -0.049  -0.045  -0.036  -0.033
 -0.024  -0.023  -0.018  -0.010  -0.005   0.001   0.005   0.006
  0.007   0.009   0.015   0.021   0.024   0.028   0.031   0.033
  0.034   0.036   0.041   0.044   0.047   0.048   0.053   0.054
  0.056   0.059   0.062   0.064   0.069   0.071   0.076   0.079
  0.082   0.090   0.099   0.102   0.105   0.108   0.112   0.114
  0.120   0.123   0.124   0.132   0.134   0.142   0.148   0.152
  0.155   0.156   0.161   0.168   0.176   0.180   0.189   0.200
  0.203   0.207   0.224   0.227   0.233   0.237   0.246   0.248
  0.252   0.263   0.267   0.275   0.311   0.324   0.340   0.362
  0.378   0.380   0.391   0.408   0.423   0.427   0.456   0.463
  0.469   0.482   0.495   0.499   0.504   0.506   0.514   0.516
  0.522   0.533   0.551   0.552   0.570   0.576   0.582   0.591
  0.593   0.599   0.604   0.615   0.632   0.636   0.651   0.652
  0.671   0.672   0.677   0.682   0.697   0.706   0.727   0.747
  0.795   0.797   0.804   0.812   0.815   0.820   0.824   0.830
  0.843   0.847   0.853   0.855   0.873   0.881   0.896   0.902
  0.912   0.917   0.930   0.943   0.951   0.965   0.970   0.975
  0.979   1.024   1.031   1.034   1.040   1.077   1.094   1.111
  1.128   1.143   1.153   1.183   1.189   1.192   1.202   1.211
  1.213   1.224   1.243   1.264   1.289   1.295   1.320   1.339
  1.358   1.393   1.433   1.482   1.508   1.555   1.556   1.588
  1.670   1.692   1.714   1.726   1.754   1.767   1.779   1.786
  1.806   1.822   1.827   1.854   1.873   1.879   1.901   1.925
  1.934   1.953   1.974   2.010   2.029   2.036   2.051   2.061
  2.085   2.102   2.112   2.128   2.166   2.178   2.229   2.238
  2.276   2.297   2.301   2.316   2.324   2.327   2.349   2.375
  2.379   2.385   2.396   2.431   2.442   2.446   2.458   2.485
  2.522   2.540   2.567   2.571   2.597   2.683   2.692   2.711
  2.754   2.765   2.778   2.802   2.998   3.043   3.077   3.146
  3.151   3.191   3.278   3.285   3.538   3.603   3.612   3.820
  3.841   3.845   4.094   4.133   4.162   4.166   4.180   4.189
  4.234   4.321   4.397   4.503   4.553   4.572
 
 Beta MOs
 -- Occupied --
-89.083 -89.069 -89.063 -10.408 -10.405 -10.394 -10.384 -10.377
-10.368 -10.362 -10.359 -10.354 -10.348 -10.345 -10.338  -8.142
 -8.128  -8.122  -6.107  -6.103  -6.099  -6.093  -6.089  -6.086
 -6.085  -6.082  -6.079  -1.066  -1.042  -1.028  -0.940  -0.911
 -0.892  -0.889  -0.885  -0.838  -0.767  -0.742  -0.710  -0.697
 -0.686  -0.679  -0.671  -0.651  -0.605  -0.572  -0.567  -0.565
 -0.558  -0.548  -0.543  -0.540  -0.527  -0.525  -0.512  -0.508
 -0.494  -0.490  -0.432  -0.419  -0.403  -0.398  -0.377
 -- Virtual --
 -0.300  -0.208  -0.164  -0.139  -0.136  -0.120  -0.115  -0.111
 -0.102  -0.095  -0.091  -0.083  -0.082  -0.081  -0.078  -0.075
 -0.071  -0.069  -0.064  -0.060  -0.053  -0.048  -0.044  -0.035
 -0.032  -0.023  -0.022  -0.018  -0.009  -0.004   0.002   0.005
  0.006   0.008   0.010   0.016   0.021   0.025   0.029   0.031
  0.034   0.035   0.037   0.042   0.045   0.047   0.049   0.054
  0.055   0.056   0.060   0.063   0.064   0.070   0.072   0.078
  0.080   0.083   0.091   0.100   0.103   0.106   0.110   0.113
  0.115   0.121   0.123   0.125   0.133   0.135   0.143   0.149
  0.153   0.156   0.158   0.162   0.169   0.176   0.181   0.190
  0.202   0.205   0.209   0.225   0.228   0.234   0.238   0.247
  0.249   0.254   0.264   0.268   0.277   0.311   0.326   0.342
  0.362   0.378   0.382   0.391   0.409   0.425   0.428   0.457
  0.464   0.471   0.483   0.497   0.503   0.507   0.511   0.516
  0.522   0.528   0.535   0.552   0.555   0.571   0.579   0.584
  0.593   0.595   0.600   0.608   0.619   0.636   0.641   0.653
  0.654   0.673   0.675   0.681   0.684   0.701   0.710   0.728
  0.748   0.797   0.799   0.805   0.813   0.817   0.823   0.826
  0.833   0.844   0.848   0.854   0.857   0.874   0.882   0.897
  0.903   0.914   0.918   0.932   0.944   0.952   0.967   0.972
  0.976   0.980   1.027   1.033   1.036   1.044   1.080   1.097
  1.114   1.130   1.149   1.155   1.185   1.192   1.195   1.206
  1.215   1.219   1.227   1.244   1.266   1.293   1.301   1.324
  1.344   1.362   1.396   1.436   1.487   1.515   1.562   1.565
  1.595   1.672   1.694   1.718   1.729   1.756   1.768   1.781
  1.787   1.810   1.826   1.831   1.858   1.876   1.882   1.905
  1.930   1.938   1.956   1.979   2.017   2.036   2.042   2.056
  2.067   2.090   2.106   2.117   2.132   2.172   2.183   2.231
  2.240   2.283   2.300   2.304   2.321   2.327   2.330   2.351
  2.376   2.383   2.389   2.398   2.433   2.445   2.449   2.461
  2.488   2.525   2.542   2.570   2.573   2.599   2.686   2.696
  2.713   2.756   2.766   2.779   2.804   2.998   3.044   3.078
  3.147   3.152   3.192   3.279   3.286   3.539   3.604   3.613
  3.820   3.841   3.845   4.099   4.137   4.165   4.170   4.183
  4.191   4.238   4.325   4.401   4.506   4.556   4.575
 --------------------------------------------------------------
 
          Ground-State Mulliken Net Atomic Charges

     Atom                 Charge (a.u.)    Spin (a.u.)
  --------------------------------------------------------
      1 H                     0.245648      -0.011932
      2 H                     0.161134       0.001659
      3 C                     0.076415       0.233091
      4 C                    -0.326433      -0.042440
      5 S                    -0.016170      -0.031420
      6 C                     0.449755       0.142137
      7 H                     0.137071      -0.009365
      8 C                    -0.038883       0.044561
      9 H                     0.117345      -0.006016
     10 C                    -0.069128       0.171654
     11 C                    -0.348188       0.083680
     12 S                     0.009136      -0.050167
     13 C                     0.059486       0.034565
     14 H                     0.157908      -0.002070
     15 C                    -0.069278       0.177918
     16 C                    -0.161037       0.037321
     17 H                     0.150002      -0.007872
     18 C                     0.303266       0.112628
     19 S                     0.122105      -0.024623
     20 C                    -0.393058      -0.032664
     21 C                     0.044848       0.187396
     22 H                     0.154461       0.001665
     23 H                     0.233595      -0.009706
  --------------------------------------------------------
  Sum of atomic charges =     1.000000
  Sum of spin   charges =     1.000000

 -----------------------------------------------------------------
                    Cartesian Multipole Moments
 -----------------------------------------------------------------
    Charge (ESU x 10^10)
                 4.8032
    Dipole Moment (Debye)
         X      28.5360      Y      -2.4234      Z      -1.2957
       Tot      28.6680
    Quadrupole Moments (Debye-Ang)
        XX     153.4949     XY     -10.9144     YY     -91.7478
        XZ      -8.3351     YZ       7.6367     ZZ    -105.7731
    Octopole Moments (Debye-Ang^2)
       XXX     698.3045    XXY     -61.0622    XYY    -580.0363
       YYY     112.0990    XXZ     -56.7607    XYZ      54.2676
       YYZ       3.3517    XZZ    -627.9579    YZZ      37.9122
       ZZZ      42.7907
    Hexadecapole Moments (Debye-Ang^3)
      XXXX   -2232.1434   XXXY    -460.8831   XXYY   -4830.5844
      XYYY     646.6844   YYYY    -737.8840   XXXZ    -440.2961
      XXYZ     454.2609   XYYZ       4.2672   YYYZ     -96.5888
      XXZZ   -4967.1247   XYZZ     172.9425   YYZZ    -176.3556
      XZZZ     192.7664   YZZZ    -124.7434   ZZZZ    -305.8865
 -----------------------------------------------------------------
 Calculating analytic gradient of the SCF energy
 Gradient of SCF Energy
            1           2           3           4           5           6
    1   0.0029743   0.0013562  -0.0021356  -0.0030515  -0.0001056   0.0093745
    2  -0.0014028   0.0018107  -0.0001081   0.0039101  -0.0148461   0.0036709
    3  -0.0005491   0.0004510  -0.0004227   0.0017114  -0.0029793   0.0021170
            7           8           9          10          11          12
    1  -0.0008973  -0.0269708   0.0035986   0.0332409  -0.0263266  -0.0002081
    2   0.0028527   0.0384106  -0.0029053  -0.0447518  -0.0053948   0.0263751
    3  -0.0001381   0.0067156   0.0002765  -0.0078217  -0.0024267   0.0064885
           13          14          15          16          17          18
    1   0.0204942  -0.0008325  -0.0169157   0.0156225   0.0007811  -0.0073539
    2  -0.0046748  -0.0022445  -0.0190108   0.0190388   0.0004334   0.0079456
    3  -0.0089115   0.0010330  -0.0056226   0.0161115   0.0028483  -0.0036780
           19          20          21          22          23
    1   0.0004256   0.0006507   0.0007767  -0.0015437  -0.0029541
    2  -0.0106137   0.0015825  -0.0004217   0.0007737  -0.0004297
    3  -0.0090331   0.0016692   0.0018626   0.0017822  -0.0014841
 Max gradient component =       4.475E-02
 RMS gradient           =       1.188E-02
 Gradient time:  CPU 4.29 s  wall 4.18 s
 Geometry Optimization Parameters
   NAtoms,    NIC,     NZ,  NCons,   NDum,   NFix, NCnnct, MaxDiis
       23     166       0       1       0       0       0       0

 Cartesian Hessian Update
 Hessian Updated using BFGS Update


** CONSTRAINED OPTIMIZATION IN DELOCALIZED INTERNAL COORDINATES **
   Searching for a Minimum

   Optimization Cycle:   2

                       Coordinates (Angstroms)
     ATOM                X               Y               Z
      1  H        -0.0998570046   -0.2682524863   -0.0506411124
      2  H         0.7951129831   -2.6747790549   -0.6478294790
      3  C         0.9311745622   -0.5669114362   -0.1508209691
      4  C         1.4248234442   -1.8173479377   -0.4624459932
      5  S         2.1764547357    0.5895391934    0.0877711218
      6  C         2.8273454764   -1.8295326384   -0.5167052848
      7  H         3.4145199892   -2.7017916692   -0.7652853698
      8  C         3.4103007174   -0.5861873833   -0.2452044906
      9  H         4.6595863070    1.7343957465    0.2243316338
     10  C         4.8439716326   -0.4112624313   -0.2097924714
     11  C         5.3100894702    0.8901518411    0.0701045864
     12  S         6.1725467904   -1.4884535174   -0.3991074979
     13  C         6.7022057440    0.9834092262    0.1352893682
     14  H         7.2485480607    1.8891139526    0.3549358474
     15  C         7.3344572206   -0.2388637075   -0.0963671048
     16  C         8.7634160768   -0.3788406948   -0.1391560303
     17  H         8.8715658063   -1.8214200456   -1.7675367867
     18  C         9.4082711581   -1.1983062235   -1.0667553815
     19  S         9.9165053226    0.4661015234    0.8382102721
     20  C        10.8093457629   -1.1378026679   -0.9747907987
     21  C        11.2281797019   -0.2812360623    0.0222593239
     22  H        11.4887887382   -1.6970196450   -1.6005151690
     23  H        12.2395273040   -0.0527000619    0.3173399256
   Point Group: c1    Number of degrees of freedom:    63


   Energy is  -1656.399370716

              Constraints and their Current Values
                                        Value     Constraint
   Dihedral:       13  15  16  18     -140.000     -140.000
 Hessian Updated using BFGS Update

 62 Hessian modes will be used to form the next step
  Hessian Eigenvalues:
     0.044859    0.045000    0.045000    0.045000    0.045000    0.045000
     0.045001    0.045001    0.045001    0.045002    0.045003    0.045004
     0.045009    0.045012    0.045012    0.045026    0.045033    0.045056
     0.045059    0.159222    0.159945    0.159947    0.159984    0.159993
     0.159993    0.160000    0.160239    0.189850    0.221308    0.221979
     0.229792    0.238064    0.238935    0.246417    0.249670    0.249674
     0.283733    0.324191    0.326562    0.327605    0.338913    0.340043
     0.340430    0.365198    0.365513    0.365523    0.366559    0.366889
     0.367349    0.369916    0.370100    0.399797    0.414607    0.434905
     0.435420    0.436907    0.462327    0.463136    0.470561    0.495197
     0.495501    0.575347

 Minimum Search - Taking Simple RFO Step
 Searching for Lamda that Minimizes Along All modes
 Value Taken    Lamda =  -0.02324921
 Calculated Step too Large.  Step scaled by  0.895343
 Step Taken.  Stepsize is  0.300000

                             Maximum     Tolerance    Cnvgd?
         Gradient           0.034452      0.000300      NO
         Displacement       0.134420      0.001200      NO
         Energy change     -0.031763      0.000001      NO


 New Cartesian Coordinates Obtained by Inverse Iteration

 Displacement from previous Coordinates is:  1.016465
 ----------------------------------------------------------------
             Standard Nuclear Orientation (Angstroms)
    I     Atom           X                Y                Z
 ----------------------------------------------------------------
    1      H      -0.0676879311    -0.3787724220    -0.0905364684
    2      H       0.9119495144    -2.7599239344    -0.6972167741
    3      C       0.9787555595    -0.6440841655    -0.1789046627
    4      C       1.5157760390    -1.8833566129    -0.4963518679
    5      S       2.1721972716     0.5673228327     0.0877947333
    6      C       2.9164006536    -1.8556891894    -0.5292795724
    7      H       3.5353133736    -2.7128458128    -0.7724803705
    8      C       3.4488547899    -0.5843162968    -0.2354801705
    9      H       4.6551784974     1.8943640995     0.2786559027
   10      C       4.8243299065    -0.2603459959    -0.1597434892
   11      C       5.3094724365     1.0419348225     0.1273698116
   12      S       6.1281725191    -1.3934366536    -0.3634969315
   13      C       6.6908783135     1.1031210969     0.1824923073
   14      H       7.2558333867     2.0044957546     0.3875846158
   15      C       7.3099640536    -0.1439108367    -0.0648037087
   16      C       8.7129651137    -0.3958684639    -0.1598762482
   17      H       8.7900085339    -1.8681823020    -1.7808976070
   18      C       9.3408391388    -1.2532208995    -1.0779510095
   19      S       9.8961804815     0.4493562039     0.8088727450
   20      C      10.7443201850    -1.2214284363    -0.9865286428
   21      C      11.1858584243    -0.3535453031    -0.0026475661
   22      H      11.4133072307    -1.8043020115    -1.6080756102
   23      H      12.2080125084    -0.1453616537     0.2887887240
 ----------------------------------------------------------------
 Nuclear Repulsion Energy =  1177.7095917835 hartrees
 There are       64 alpha and       63 beta electrons
 Applying Cartesian multipole field
    Component          Value
    ---------          -----
     (2,0,0)        1.00000E-12
     (0,2,0)        2.00000E-11
     (0,0,2)       -3.00000E-11
 Nucleus-field energy     =     0.0000000287 hartrees
 Requested basis set is 6-31++G(d,p)
 There are 110 shells and 345 basis functions
 A cutoff of  1.0D-12 yielded   4706 shell pairs
 There are     47934 function pairs

 Q-Chem warning in module /project/projectdirs/jcesr/qchem/qc44/cnl_qc441/compile/cori/qc_src/libqints/qchem/aobasis.C, line 68:

 Using reconstructed effective core potential

 Smallest overlap matrix eigenvalue = 6.39E-08
 Linear dependence detected in AO basis
 Number of orthogonalized atomic orbitals = 342
 Maximum deviation from orthogonality = 7.607E-11
 Guess MOs from SCF MO coefficient file
 Reading MOs from coefficient file
 Reading MOs from coefficient file
 An unrestricted hybrid HF-DFT SCF calculation will be
 performed using Pulay DIIS extrapolation
 Exchange:     0.2000 Hartree-Fock + 0.0800 Slater + 0.7200 B88
 Correlation:  0.1900 VWN1RPA + 0.8100 LYP
 Using SG-1 standard quadrature grid
 SCF converges when DIIS error is below 1.0E-08
 Geometry optimization detected.  Setting ReadMinima to 0
 Setting SaveMinima to 0
 ---------------------------------------
  Cycle       Energy         DIIS Error
 ---------------------------------------
    1   -1656.2922701102      2.61E-03
    2   -1656.4068455584      5.23E-04
    3   -1656.3961536261      9.42E-04
    4   -1656.4118093925      1.35E-04
    5   -1656.4120808676      4.36E-05
    6   -1656.4121119070      1.47E-05
    7   -1656.4121154835      7.21E-06
    8   -1656.4121164742      1.73E-06
    9   -1656.4121165990      1.09E-06
   10   -1656.4121166489      3.79E-07
   11   -1656.4121166800      2.48E-07
   12   -1656.4121166960      1.07E-07
   13   -1656.4121167033      5.95E-08
   14   -1656.4121167027      3.22E-08
   15   -1656.4121167041      1.63E-08
   16   -1656.4121167046      7.78E-09 Convergence criterion met
 ---------------------------------------
 <S^2> = 0.7682
 SCF time:  CPU 22.60 s  wall 20.94 s
 SCF   energy in the final basis set = -1656.4121167046
 Total energy in the final basis set = -1656.4121167046
 
 --------------------------------------------------------------
 
                    Orbital Energies (a.u.)
 --------------------------------------------------------------
 
 Alpha MOs
 -- Occupied --
-89.078 -89.068 -89.061 -10.410 -10.408 -10.393 -10.385 -10.382
-10.372 -10.366 -10.364 -10.360 -10.353 -10.348 -10.339  -8.138
 -8.128  -8.120  -6.102  -6.098  -6.094  -6.092  -6.088  -6.085
 -6.085  -6.081  -6.077  -1.066  -1.042  -1.026  -0.944  -0.915
 -0.895  -0.889  -0.884  -0.840  -0.770  -0.747  -0.712  -0.701
 -0.688  -0.679  -0.671  -0.647  -0.605  -0.574  -0.571  -0.569
 -0.557  -0.551  -0.546  -0.544  -0.533  -0.524  -0.519  -0.511
 -0.496  -0.491  -0.450  -0.423  -0.408  -0.401  -0.394  -0.349
 -- Virtual --
 -0.228  -0.176  -0.146  -0.141  -0.127  -0.122  -0.113  -0.102
 -0.097  -0.095  -0.087  -0.085  -0.083  -0.081  -0.075  -0.072
 -0.070  -0.065  -0.061  -0.053  -0.048  -0.045  -0.035  -0.028
 -0.024  -0.022  -0.017  -0.009  -0.005   0.001   0.005   0.007
  0.008   0.009   0.015   0.021   0.024   0.026   0.030   0.033
  0.035   0.036   0.040   0.044   0.048   0.048   0.053   0.054
  0.056   0.060   0.062   0.065   0.072   0.073   0.075   0.080
  0.081   0.090   0.100   0.102   0.104   0.109   0.111   0.114
  0.120   0.122   0.125   0.127   0.133   0.141   0.145   0.151
  0.152   0.154   0.160   0.169   0.174   0.183   0.188   0.198
  0.200   0.209   0.224   0.227   0.229   0.237   0.242   0.249
  0.253   0.262   0.267   0.269   0.319   0.321   0.342   0.369
  0.378   0.381   0.392   0.411   0.428   0.437   0.446   0.457
  0.467   0.479   0.496   0.501   0.503   0.509   0.512   0.515
  0.521   0.531   0.549   0.552   0.570   0.573   0.582   0.589
  0.591   0.597   0.605   0.612   0.629   0.634   0.648   0.651
  0.678   0.680   0.686   0.693   0.699   0.706   0.729   0.750
  0.788   0.796   0.801   0.809   0.815   0.819   0.824   0.830
  0.842   0.846   0.848   0.853   0.870   0.878   0.892   0.901
  0.911   0.917   0.931   0.936   0.947   0.962   0.965   0.976
  0.979   1.025   1.030   1.033   1.045   1.080   1.093   1.113
  1.120   1.134   1.156   1.173   1.191   1.192   1.198   1.211
  1.213   1.222   1.241   1.284   1.308   1.314   1.337   1.351
  1.369   1.399   1.437   1.483   1.519   1.551   1.556   1.583
  1.669   1.690   1.706   1.720   1.739   1.766   1.778   1.788
  1.793   1.800   1.821   1.846   1.869   1.878   1.906   1.913
  1.930   1.955   1.968   2.007   2.021   2.034   2.051   2.058
  2.084   2.090   2.110   2.122   2.153   2.178   2.225   2.235
  2.277   2.288   2.292   2.308   2.315   2.324   2.343   2.366
  2.375   2.382   2.391   2.413   2.438   2.446   2.456   2.473
  2.521   2.537   2.563   2.567   2.589   2.678   2.716   2.720
  2.750   2.768   2.781   2.791   2.985   3.034   3.070   3.137
  3.143   3.172   3.267   3.275   3.529   3.593   3.602   3.823
  3.836   3.844   4.096   4.128   4.162   4.171   4.179   4.187
  4.240   4.325   4.394   4.505   4.552   4.574
 
 Beta MOs
 -- Occupied --
-89.079 -89.069 -89.061 -10.407 -10.406 -10.392 -10.385 -10.378
-10.369 -10.365 -10.364 -10.358 -10.351 -10.348 -10.340  -8.138
 -8.128  -8.120  -6.102  -6.098  -6.095  -6.092  -6.088  -6.085
 -6.085  -6.081  -6.078  -1.062  -1.038  -1.023  -0.938  -0.913
 -0.894  -0.887  -0.880  -0.833  -0.767  -0.744  -0.709  -0.699
 -0.686  -0.677  -0.670  -0.644  -0.604  -0.570  -0.567  -0.563
 -0.555  -0.550  -0.543  -0.539  -0.531  -0.521  -0.510  -0.509
 -0.496  -0.490  -0.432  -0.420  -0.405  -0.398  -0.377
 -- Virtual --
 -0.296  -0.212  -0.166  -0.140  -0.136  -0.124  -0.118  -0.112
 -0.097  -0.095  -0.092  -0.084  -0.081  -0.079  -0.078  -0.074
 -0.070  -0.069  -0.064  -0.060  -0.053  -0.047  -0.044  -0.034
 -0.028  -0.023  -0.021  -0.016  -0.009  -0.004   0.002   0.005
  0.007   0.008   0.010   0.016   0.021   0.025   0.026   0.031
  0.034   0.036   0.037   0.041   0.044   0.048   0.049   0.054
  0.055   0.056   0.061   0.063   0.066   0.072   0.074   0.076
  0.081   0.082   0.091   0.101   0.103   0.105   0.110   0.112
  0.115   0.121   0.123   0.126   0.129   0.134   0.142   0.147
  0.152   0.153   0.155   0.161   0.169   0.174   0.184   0.189
  0.200   0.201   0.210   0.225   0.228   0.231   0.239   0.243
  0.250   0.255   0.262   0.268   0.271   0.320   0.322   0.343
  0.370   0.378   0.383   0.392   0.411   0.429   0.438   0.447
  0.458   0.468   0.480   0.497   0.502   0.509   0.513   0.515
  0.520   0.527   0.533   0.551   0.554   0.570   0.576   0.584
  0.591   0.593   0.598   0.608   0.617   0.633   0.639   0.649
  0.652   0.681   0.684   0.688   0.694   0.703   0.709   0.730
  0.751   0.791   0.797   0.802   0.811   0.816   0.822   0.826
  0.832   0.844   0.847   0.850   0.855   0.871   0.879   0.893
  0.902   0.912   0.918   0.932   0.938   0.947   0.963   0.966
  0.977   0.980   1.027   1.033   1.036   1.049   1.083   1.095
  1.117   1.123   1.140   1.158   1.174   1.193   1.196   1.202
  1.214   1.220   1.226   1.243   1.287   1.312   1.320   1.340
  1.356   1.373   1.402   1.440   1.487   1.526   1.558   1.565
  1.590   1.673   1.693   1.707   1.724   1.742   1.767   1.780
  1.790   1.796   1.805   1.825   1.850   1.873   1.881   1.911
  1.917   1.934   1.957   1.973   2.013   2.028   2.040   2.055
  2.064   2.088   2.095   2.116   2.127   2.159   2.183   2.227
  2.237   2.282   2.292   2.295   2.312   2.318   2.327   2.345
  2.368   2.378   2.386   2.392   2.416   2.441   2.448   2.459
  2.476   2.524   2.539   2.566   2.570   2.592   2.681   2.719
  2.723   2.754   2.770   2.782   2.793   2.985   3.035   3.071
  3.137   3.143   3.172   3.269   3.276   3.530   3.595   3.603
  3.823   3.836   3.844   4.101   4.132   4.165   4.174   4.182
  4.190   4.245   4.329   4.399   4.508   4.555   4.577
 --------------------------------------------------------------
 
          Ground-State Mulliken Net Atomic Charges

     Atom                 Charge (a.u.)    Spin (a.u.)
  --------------------------------------------------------
      1 H                     0.241906      -0.012275
      2 H                     0.164011       0.001676
      3 C                     0.056950       0.238218
      4 C                    -0.266540      -0.042042
      5 S                    -0.040370      -0.028002
      6 C                     0.452529       0.146099
      7 H                     0.140778      -0.009563
      8 C                    -0.133965       0.035508
      9 H                     0.139360      -0.005560
     10 C                    -0.098445       0.169129
     11 C                    -0.186610       0.078891
     12 S                    -0.136514      -0.057000
     13 C                     0.174815       0.047466
     14 H                     0.163740      -0.002911
     15 C                    -0.123555       0.180017
     16 C                    -0.214962       0.029317
     17 H                     0.156257      -0.008016
     18 C                     0.379980       0.114776
     19 S                     0.096882      -0.021459
     20 C                    -0.410615      -0.032662
     21 C                     0.056370       0.186481
     22 H                     0.155515       0.001675
     23 H                     0.232481      -0.009761
  --------------------------------------------------------
  Sum of atomic charges =     1.000000
  Sum of spin   charges =     1.000000

 -----------------------------------------------------------------
                    Cartesian Multipole Moments
 -----------------------------------------------------------------
    Charge (ESU x 10^10)
                 4.8032
    Dipole Moment (Debye)
         X      28.4401      Y      -2.3854      Z      -1.3364
       Tot      28.5712
    Quadrupole Moments (Debye-Ang)
        XX     150.2829     XY     -10.8795     YY     -90.5551
        XZ      -8.5451     YZ       8.0796     ZZ    -105.8813
    Octopole Moments (Debye-Ang^2)
       XXX     653.7190    XXY     -68.4075    XYY    -572.3675
       YYY     108.5415    XXZ     -59.9981    XYZ      56.7154
       YYZ       2.2372    XZZ    -628.4133    YZZ      36.2887
       ZZZ      41.6443
    Hexadecapole Moments (Debye-Ang^3)
      XXXX   -2662.3719   XXXY    -592.1589   XXYY   -4752.2853
      XYYY     632.6755   YYYY    -749.4329   XXXZ    -477.3092
      XXYZ     469.1283   XYYZ      -2.2054   YYYZ     -95.3036
      XXZZ   -4946.6168   XYZZ     164.5904   YYZZ    -178.4036
      XZZZ     188.2942   YZZZ    -128.0807   ZZZZ    -304.8842
 -----------------------------------------------------------------
 Calculating analytic gradient of the SCF energy
 Gradient of SCF Energy
            1           2           3           4           5           6
    1  -0.0000698   0.0001221   0.0021059  -0.0004890   0.0035258   0.0022989
    2   0.0006276  -0.0002508  -0.0011049  -0.0011134  -0.0005002  -0.0026779
    3   0.0000251  -0.0000165  -0.0003603  -0.0000083   0.0001321   0.0006046
            7           8           9          10          11          12
    1   0.0003812  -0.0077420  -0.0008416   0.0117375  -0.0050731  -0.0012683
    2  -0.0001536   0.0168953   0.0008986  -0.0181662   0.0032179   0.0038236
    3  -0.0007078   0.0023522   0.0006125  -0.0025762   0.0000496   0.0019763
           13          14          15          16          17          18
    1   0.0009209  -0.0005575  -0.0076808   0.0051893  -0.0001839  -0.0006797
    2   0.0028918  -0.0000326  -0.0072825   0.0047211  -0.0009970   0.0035273
    3  -0.0064287   0.0010081   0.0013672   0.0086141   0.0007379  -0.0064157
           19          20          21          22          23
    1  -0.0021536   0.0006449  -0.0005714   0.0001549   0.0002291
    2  -0.0031615  -0.0004189  -0.0010998  -0.0002990   0.0006552
    3  -0.0006838  -0.0010536   0.0007738   0.0001468  -0.0001496
 Max gradient component =       1.817E-02
 RMS gradient           =       4.310E-03
 Gradient time:  CPU 4.18 s  wall 4.19 s
 Geometry Optimization Parameters
   NAtoms,    NIC,     NZ,  NCons,   NDum,   NFix, NCnnct, MaxDiis
       23     166       0       1       0       0       0       0

 Cartesian Hessian Update
 Hessian Updated using BFGS Update


** CONSTRAINED OPTIMIZATION IN DELOCALIZED INTERNAL COORDINATES **
   Searching for a Minimum

   Optimization Cycle:   3

                       Coordinates (Angstroms)
     ATOM                X               Y               Z
      1  H        -0.0676879311   -0.3787724220   -0.0905364684
      2  H         0.9119495144   -2.7599239344   -0.6972167741
      3  C         0.9787555595   -0.6440841655   -0.1789046627
      4  C         1.5157760390   -1.8833566129   -0.4963518679
      5  S         2.1721972716    0.5673228327    0.0877947333
      6  C         2.9164006536   -1.8556891894   -0.5292795724
      7  H         3.5353133736   -2.7128458128   -0.7724803705
      8  C         3.4488547899   -0.5843162968   -0.2354801705
      9  H         4.6551784974    1.8943640995    0.2786559027
     10  C         4.8243299065   -0.2603459959   -0.1597434892
     11  C         5.3094724365    1.0419348225    0.1273698116
     12  S         6.1281725191   -1.3934366536   -0.3634969315
     13  C         6.6908783135    1.1031210969    0.1824923073
     14  H         7.2558333867    2.0044957546    0.3875846158
     15  C         7.3099640536   -0.1439108367   -0.0648037087
     16  C         8.7129651137   -0.3958684639   -0.1598762482
     17  H         8.7900085339   -1.8681823020   -1.7808976070
     18  C         9.3408391388   -1.2532208995   -1.0779510095
     19  S         9.8961804815    0.4493562039    0.8088727450
     20  C        10.7443201850   -1.2214284363   -0.9865286428
     21  C        11.1858584243   -0.3535453031   -0.0026475661
     22  H        11.4133072307   -1.8043020115   -1.6080756102
     23  H        12.2080125084   -0.1453616537    0.2887887240
   Point Group: c1    Number of degrees of freedom:    63


   Energy is  -1656.412116705

              Constraints and their Current Values
                                        Value     Constraint
   Dihedral:       13  15  16  18     -140.000     -140.000
 Hessian Updated using BFGS Update

 61 Hessian modes will be used to form the next step
  Hessian Eigenvalues:
     0.043963    0.045000    0.045000    0.045000    0.045001    0.045001
     0.045001    0.045002    0.045003    0.045003    0.045005    0.045009
     0.045012    0.045012    0.045026    0.045055    0.045059    0.045082
     0.155415    0.159945    0.159962    0.159989    0.159993    0.159999
     0.160018    0.160436    0.171157    0.221308    0.223549    0.229855
     0.238396    0.240313    0.249371    0.249672    0.261326    0.279188
     0.322938    0.326567    0.327876    0.338503    0.340056    0.341629
     0.365513    0.365518    0.365832    0.366889    0.367254    0.367843
     0.370099    0.370874    0.399812    0.422889    0.435407    0.435670
     0.442280    0.463116    0.465123    0.481022    0.495464    0.497291
     0.574558

 Minimum Search - Taking Simple RFO Step
 Searching for Lamda that Minimizes Along All modes
 Value Taken    Lamda =  -0.00332518
 Step Taken.  Stepsize is  0.166363

                             Maximum     Tolerance    Cnvgd?
         Gradient           0.011251      0.000300      NO
         Displacement       0.077493      0.001200      NO
         Energy change     -0.012746      0.000001      NO


 New Cartesian Coordinates Obtained by Inverse Iteration

 Displacement from previous Coordinates is:  0.439899
 ----------------------------------------------------------------
             Standard Nuclear Orientation (Angstroms)
    I     Atom           X                Y                Z
 ----------------------------------------------------------------
    1      H      -0.0910465976    -0.4203691335    -0.1450732130
    2      H       0.9340735745    -2.7790841265    -0.7417951754
    3      C       0.9609586642    -0.6689410406    -0.2140989509
    4      C       1.5248635871    -1.8973204545    -0.5260775405
    5      S       2.1407683024     0.5476564542     0.0770632460
    6      C       2.9266276720    -1.8596467310    -0.5315786803
    7      H       3.5526520150    -2.7143385581    -0.7626772463
    8      C       3.4501078080    -0.5897212910    -0.2218421248
    9      H       4.6809616394     1.9444562405     0.3130703889
   10      C       4.8062314897    -0.2057775473    -0.1181334148
   11      C       5.3227633405     1.0822256255     0.1707231863
   12      S       6.1121483520    -1.3557327674    -0.3206608996
   13      C       6.7059790934     1.1262062951     0.2232340445
   14      H       7.2825381967     2.0245675074     0.4104944219
   15      C       7.3207155137    -0.1229571079    -0.0249208721
   16      C       8.7085707154    -0.4139758291    -0.1533332264
   17      H       8.7673935132    -1.9109792549    -1.7485525750
   18      C       9.3257732577    -1.2873359472    -1.0594178748
   19      S       9.9149874511     0.4720908872     0.7662364681
   20      C      10.7300903349    -1.2456702388    -0.9934180550
   21      C      11.1917482089    -0.3496498226    -0.0453890464
   22      H      11.3884505120    -1.8385215826    -1.6166545741
   23      H      12.2195233557    -0.1351777568     0.2200898539
 ----------------------------------------------------------------
 Nuclear Repulsion Energy =  1176.2219980823 hartrees
 There are       64 alpha and       63 beta electrons
 Applying Cartesian multipole field
    Component          Value
    ---------          -----
     (2,0,0)        1.00000E-12
     (0,2,0)        2.00000E-11
     (0,0,2)       -3.00000E-11
 Nucleus-field energy     =     0.0000000289 hartrees
 Requested basis set is 6-31++G(d,p)
 There are 110 shells and 345 basis functions
 A cutoff of  1.0D-12 yielded   4703 shell pairs
 There are     47911 function pairs

 Q-Chem warning in module /project/projectdirs/jcesr/qchem/qc44/cnl_qc441/compile/cori/qc_src/libqints/qchem/aobasis.C, line 68:

 Using reconstructed effective core potential

 Smallest overlap matrix eigenvalue = 7.30E-08
 Linear dependence detected in AO basis
 Number of orthogonalized atomic orbitals = 342
 Maximum deviation from orthogonality = 3.730E-11
 Guess MOs from SCF MO coefficient file
 Reading MOs from coefficient file
 Reading MOs from coefficient file
 An unrestricted hybrid HF-DFT SCF calculation will be
 performed using Pulay DIIS extrapolation
 Exchange:     0.2000 Hartree-Fock + 0.0800 Slater + 0.7200 B88
 Correlation:  0.1900 VWN1RPA + 0.8100 LYP
 Using SG-1 standard quadrature grid
 SCF converges when DIIS error is below 1.0E-08
 Geometry optimization detected.  Setting ReadMinima to 0
 Setting SaveMinima to 0
 ---------------------------------------
  Cycle       Energy         DIIS Error
 ---------------------------------------
    1   -1656.3675006817      1.28E-03
    2   -1656.4124983900      2.63E-04
    3   -1656.4096244684      4.81E-04
    4   -1656.4137926135      8.44E-05
    5   -1656.4139019918      2.27E-05
    6   -1656.4139104601      8.64E-06
    7   -1656.4139116348      4.57E-06
    8   -1656.4139120354      1.11E-06
    9   -1656.4139120894      8.65E-07
   10   -1656.4139121178      2.64E-07
   11   -1656.4139121321      1.74E-07
   12   -1656.4139121400      8.91E-08
   13   -1656.4139121416      3.44E-08
   14   -1656.4139121416      1.40E-08
   15   -1656.4139121423      6.90E-09 Convergence criterion met
 ---------------------------------------
 <S^2> = 0.7677
 SCF time:  CPU 20.78 s  wall 19.39 s
 SCF   energy in the final basis set = -1656.4139121423
 Total energy in the final basis set = -1656.4139121423
 
 --------------------------------------------------------------
 
                    Orbital Energies (a.u.)
 --------------------------------------------------------------
 
 Alpha MOs
 -- Occupied --
-89.075 -89.067 -89.061 -10.411 -10.410 -10.394 -10.387 -10.382
-10.373 -10.368 -10.366 -10.360 -10.354 -10.348 -10.341  -8.134
 -8.126  -8.120  -6.099  -6.095  -6.091  -6.090  -6.087  -6.085
 -6.083  -6.081  -6.078  -1.064  -1.041  -1.026  -0.944  -0.915
 -0.894  -0.889  -0.883  -0.842  -0.771  -0.749  -0.712  -0.703
 -0.687  -0.679  -0.672  -0.646  -0.607  -0.573  -0.571  -0.570
 -0.559  -0.552  -0.547  -0.544  -0.535  -0.522  -0.519  -0.508
 -0.493  -0.490  -0.452  -0.422  -0.407  -0.402  -0.394  -0.349
 -- Virtual --
 -0.229  -0.178  -0.145  -0.140  -0.127  -0.122  -0.112  -0.102
 -0.098  -0.095  -0.086  -0.084  -0.082  -0.081  -0.076  -0.073
 -0.070  -0.065  -0.061  -0.053  -0.047  -0.045  -0.035  -0.028
 -0.024  -0.022  -0.017  -0.009  -0.005   0.001   0.005   0.006
  0.008   0.009   0.014   0.020   0.024   0.026   0.030   0.033
  0.035   0.037   0.039   0.044   0.047   0.048   0.053   0.054
  0.055   0.061   0.062   0.065   0.072   0.073   0.075   0.080
  0.082   0.090   0.100   0.102   0.104   0.109   0.110   0.113
  0.118   0.122   0.125   0.127   0.133   0.141   0.143   0.151
  0.153   0.154   0.160   0.169   0.174   0.183   0.189   0.197
  0.199   0.209   0.223   0.227   0.229   0.238   0.242   0.250
  0.256   0.263   0.268   0.269   0.318   0.321   0.345   0.370
  0.379   0.382   0.393   0.410   0.429   0.440   0.443   0.456
  0.467   0.477   0.495   0.500   0.505   0.509   0.512   0.515
  0.520   0.528   0.547   0.550   0.567   0.572   0.581   0.589
  0.591   0.596   0.605   0.612   0.627   0.632   0.647   0.650
  0.679   0.682   0.688   0.693   0.699   0.706   0.729   0.750
  0.788   0.795   0.799   0.806   0.817   0.819   0.825   0.830
  0.842   0.847   0.848   0.853   0.869   0.877   0.891   0.902
  0.908   0.916   0.929   0.938   0.948   0.960   0.965   0.976
  0.980   1.020   1.028   1.034   1.045   1.080   1.091   1.109
  1.117   1.129   1.154   1.170   1.191   1.192   1.197   1.209
  1.212   1.219   1.240   1.298   1.314   1.324   1.339   1.351
  1.374   1.403   1.443   1.481   1.524   1.548   1.558   1.579
  1.666   1.685   1.705   1.717   1.732   1.765   1.773   1.783
  1.788   1.792   1.816   1.840   1.867   1.879   1.899   1.914
  1.931   1.958   1.963   2.003   2.021   2.033   2.045   2.057
  2.077   2.088   2.107   2.125   2.150   2.184   2.225   2.235
  2.276   2.285   2.295   2.303   2.312   2.325   2.341   2.362
  2.377   2.383   2.394   2.406   2.439   2.448   2.458   2.474
  2.522   2.538   2.563   2.568   2.588   2.672   2.715   2.729
  2.757   2.779   2.786   2.796   2.985   3.036   3.072   3.139
  3.143   3.172   3.268   3.275   3.525   3.592   3.602   3.825
  3.834   3.843   4.096   4.129   4.160   4.173   4.179   4.188
  4.242   4.327   4.393   4.504   4.551   4.575
 
 Beta MOs
 -- Occupied --
-89.075 -89.067 -89.061 -10.408 -10.407 -10.393 -10.386 -10.378
-10.370 -10.367 -10.365 -10.359 -10.353 -10.348 -10.341  -8.134
 -8.126  -8.120  -6.099  -6.095  -6.091  -6.090  -6.087  -6.085
 -6.083  -6.081  -6.078  -1.060  -1.038  -1.022  -0.939  -0.912
 -0.893  -0.887  -0.879  -0.835  -0.768  -0.745  -0.710  -0.700
 -0.685  -0.677  -0.670  -0.644  -0.605  -0.570  -0.569  -0.563
 -0.557  -0.550  -0.544  -0.539  -0.533  -0.519  -0.509  -0.507
 -0.492  -0.489  -0.433  -0.419  -0.404  -0.399  -0.378
 -- Virtual --
 -0.297  -0.214  -0.167  -0.139  -0.136  -0.124  -0.119  -0.112
 -0.097  -0.095  -0.093  -0.083  -0.081  -0.079  -0.077  -0.073
 -0.070  -0.069  -0.064  -0.060  -0.053  -0.047  -0.044  -0.034
 -0.027  -0.023  -0.021  -0.016  -0.008  -0.005   0.002   0.005
  0.007   0.008   0.010   0.015   0.021   0.025   0.026   0.031
  0.034   0.035   0.038   0.040   0.044   0.048   0.049   0.054
  0.055   0.056   0.061   0.063   0.066   0.073   0.074   0.076
  0.081   0.083   0.091   0.101   0.103   0.105   0.110   0.110
  0.114   0.119   0.123   0.126   0.129   0.134   0.142   0.144
  0.152   0.154   0.155   0.161   0.170   0.175   0.184   0.190
  0.199   0.200   0.210   0.223   0.228   0.230   0.239   0.243
  0.251   0.257   0.263   0.270   0.271   0.320   0.322   0.345
  0.371   0.379   0.384   0.393   0.411   0.430   0.441   0.445
  0.457   0.468   0.478   0.497   0.501   0.511   0.512   0.515
  0.520   0.526   0.531   0.550   0.553   0.567   0.576   0.583
  0.591   0.592   0.597   0.608   0.617   0.631   0.638   0.648
  0.652   0.682   0.686   0.689   0.695   0.703   0.710   0.730
  0.752   0.791   0.796   0.800   0.808   0.818   0.822   0.827
  0.832   0.843   0.848   0.849   0.855   0.870   0.878   0.892
  0.903   0.909   0.918   0.930   0.940   0.949   0.961   0.966
  0.977   0.981   1.022   1.031   1.036   1.049   1.083   1.093
  1.113   1.121   1.134   1.157   1.172   1.193   1.196   1.201
  1.212   1.219   1.223   1.243   1.301   1.319   1.329   1.343
  1.356   1.378   1.407   1.446   1.485   1.532   1.554   1.567
  1.586   1.670   1.688   1.706   1.721   1.735   1.766   1.776
  1.786   1.792   1.794   1.820   1.843   1.871   1.883   1.905
  1.917   1.935   1.961   1.968   2.009   2.027   2.038   2.049
  2.062   2.082   2.092   2.112   2.130   2.155   2.189   2.228
  2.236   2.279   2.288   2.300   2.306   2.316   2.328   2.343
  2.364   2.380   2.386   2.396   2.409   2.442   2.450   2.461
  2.478   2.525   2.540   2.566   2.571   2.591   2.675   2.717
  2.732   2.761   2.780   2.788   2.797   2.986   3.037   3.073
  3.139   3.143   3.172   3.269   3.276   3.526   3.593   3.603
  3.825   3.835   3.843   4.100   4.133   4.163   4.176   4.182
  4.192   4.247   4.330   4.397   4.508   4.554   4.578
 --------------------------------------------------------------
 
          Ground-State Mulliken Net Atomic Charges

     Atom                 Charge (a.u.)    Spin (a.u.)
  --------------------------------------------------------
      1 H                     0.242399      -0.011974
      2 H                     0.164357       0.001457
      3 C                     0.067735       0.231987
      4 C                    -0.260968      -0.037525
      5 S                    -0.045326      -0.024403
      6 C                     0.473261       0.139694
      7 H                     0.142136      -0.009201
      8 C                    -0.194635       0.035630
      9 H                     0.145940      -0.005234
     10 C                    -0.107591       0.170547
     11 C                    -0.109931       0.075583
     12 S                    -0.200607      -0.059199
     13 C                     0.198037       0.056801
     14 H                     0.164921      -0.003621
     15 C                    -0.147833       0.173604
     16 C                    -0.221766       0.032475
     17 H                     0.158953      -0.007975
     18 C                     0.419290       0.111911
     19 S                     0.083391      -0.019480
     20 C                    -0.427953      -0.029871
     21 C                     0.067675       0.187145
     22 H                     0.155756       0.001535
     23 H                     0.232762      -0.009884
  --------------------------------------------------------
  Sum of atomic charges =     1.000000
  Sum of spin   charges =     1.000000

 -----------------------------------------------------------------
                    Cartesian Multipole Moments
 -----------------------------------------------------------------
    Charge (ESU x 10^10)
                 4.8032
    Dipole Moment (Debye)
         X      28.5587      Y      -2.3442      Z      -1.4100
       Tot      28.6894
    Quadrupole Moments (Debye-Ang)
        XX     152.4860     XY     -10.3959     YY     -90.4216
        XZ      -9.0290     YZ       8.1763     ZZ    -106.0736
    Octopole Moments (Debye-Ang^2)
       XXX     682.7446    XXY     -65.7803    XYY    -570.1417
       YYY     107.0831    XXZ     -67.9897    XYZ      57.1675
       YYZ       1.7452    XZZ    -629.9777    YZZ      35.6629
       ZZZ      40.7164
    Hexadecapole Moments (Debye-Ang^3)
      XXXX   -2322.9818   XXXY    -584.4131   XXYY   -4732.9088
      XYYY     616.1982   YYYY    -754.3049   XXXZ    -583.3204
      XXYZ     473.0854   XYYZ      -4.5004   YYYZ     -94.8567
      XXZZ   -4964.2016   XYZZ     158.8015   YYZZ    -177.9279
      XZZZ     183.3011   YZZZ    -129.8570   ZZZZ    -299.2467
 -----------------------------------------------------------------
 Calculating analytic gradient of the SCF energy
 Gradient of SCF Energy
            1           2           3           4           5           6
    1  -0.0003109  -0.0002661  -0.0015754  -0.0004164   0.0020174   0.0001487
    2   0.0003244   0.0002219  -0.0010889   0.0004302  -0.0016547  -0.0014617
    3  -0.0000118   0.0001022  -0.0000760   0.0001298  -0.0004079   0.0004545
            7           8           9          10          11          12
    1   0.0002888   0.0014604  -0.0008300  -0.0003998   0.0007354  -0.0015487
    2   0.0002502   0.0037771  -0.0002907  -0.0038666   0.0017169   0.0022145
    3  -0.0003826  -0.0001263  -0.0000113  -0.0000537   0.0002787   0.0012148
           13          14          15          16          17          18
    1  -0.0012706   0.0004027   0.0015734   0.0001260  -0.0002102   0.0001392
    2   0.0016946  -0.0003399  -0.0000160  -0.0038015  -0.0003612   0.0039430
    3  -0.0056650   0.0003243   0.0052201   0.0030378   0.0003593  -0.0047156
           19          20          21          22          23
    1  -0.0015173   0.0001531   0.0009772   0.0001376   0.0001853
    2  -0.0014243   0.0005549  -0.0013487   0.0000586   0.0004682
    3  -0.0002165   0.0003893   0.0001170   0.0001139  -0.0000750
 Max gradient component =       5.665E-03
 RMS gradient           =       1.681E-03
 Gradient time:  CPU 4.20 s  wall 4.20 s
 Geometry Optimization Parameters
   NAtoms,    NIC,     NZ,  NCons,   NDum,   NFix, NCnnct, MaxDiis
       23     166       0       1       0       0       0       0

 Cartesian Hessian Update
 Hessian Updated using BFGS Update


** CONSTRAINED OPTIMIZATION IN DELOCALIZED INTERNAL COORDINATES **
   Searching for a Minimum

   Optimization Cycle:   4

                       Coordinates (Angstroms)
     ATOM                X               Y               Z
      1  H        -0.0910465976   -0.4203691335   -0.1450732130
      2  H         0.9340735745   -2.7790841265   -0.7417951754
      3  C         0.9609586642   -0.6689410406   -0.2140989509
      4  C         1.5248635871   -1.8973204545   -0.5260775405
      5  S         2.1407683024    0.5476564542    0.0770632460
      6  C         2.9266276720   -1.8596467310   -0.5315786803
      7  H         3.5526520150   -2.7143385581   -0.7626772463
      8  C         3.4501078080   -0.5897212910   -0.2218421248
      9  H         4.6809616394    1.9444562405    0.3130703889
     10  C         4.8062314897   -0.2057775473   -0.1181334148
     11  C         5.3227633405    1.0822256255    0.1707231863
     12  S         6.1121483520   -1.3557327674   -0.3206608996
     13  C         6.7059790934    1.1262062951    0.2232340445
     14  H         7.2825381967    2.0245675074    0.4104944219
     15  C         7.3207155137   -0.1229571079   -0.0249208721
     16  C         8.7085707154   -0.4139758291   -0.1533332264
     17  H         8.7673935132   -1.9109792549   -1.7485525750
     18  C         9.3257732577   -1.2873359472   -1.0594178748
     19  S         9.9149874511    0.4720908872    0.7662364681
     20  C        10.7300903349   -1.2456702388   -0.9934180550
     21  C        11.1917482089   -0.3496498226   -0.0453890464
     22  H        11.3884505120   -1.8385215826   -1.6166545741
     23  H        12.2195233557   -0.1351777568    0.2200898539
   Point Group: c1    Number of degrees of freedom:    63


   Energy is  -1656.413912142

              Constraints and their Current Values
                                        Value     Constraint
   Dihedral:       13  15  16  18     -140.000     -140.000
 Hessian Updated using BFGS Update

 61 Hessian modes will be used to form the next step
  Hessian Eigenvalues:
     0.038297    0.045000    0.045000    0.045000    0.045000    0.045001
     0.045001    0.045002    0.045003    0.045004    0.045007    0.045011
     0.045012    0.045024    0.045054    0.045058    0.045060    0.045143
     0.156455    0.159946    0.159975    0.159984    0.159996    0.160001
     0.160357    0.162253    0.173040    0.221333    0.223715    0.229564
     0.238376    0.241500    0.249669    0.250618    0.265668    0.283594
     0.322201    0.326593    0.327686    0.338847    0.340202    0.341260
     0.365513    0.365524    0.365825    0.366889    0.367245    0.367876
     0.370109    0.370695    0.399541    0.419913    0.435473    0.435785
     0.444439    0.463396    0.464284    0.479705    0.495492    0.498319
     0.577907

 Minimum Search - Taking Simple RFO Step
 Searching for Lamda that Minimizes Along All modes
 Value Taken    Lamda =  -0.00027531
 Step Taken.  Stepsize is  0.068245

                             Maximum     Tolerance    Cnvgd?
         Gradient           0.001709      0.000300      NO
         Displacement       0.024063      0.001200      NO
         Energy change     -0.001795      0.000001      NO


 New Cartesian Coordinates Obtained by Inverse Iteration

 Displacement from previous Coordinates is:  0.234639
 ----------------------------------------------------------------
             Standard Nuclear Orientation (Angstroms)
    I     Atom           X                Y                Z
 ----------------------------------------------------------------
    1      H      -0.0885646445    -0.4106973391    -0.1759793691
    2      H       0.9338870763    -2.7717147907    -0.7643188504
    3      C       0.9633244216    -0.6601865348    -0.2340836369
    4      C       1.5244330104    -1.8914637976    -0.5413322720
    5      S       2.1401368840     0.5534731589     0.0720767316
    6      C       2.9245501987    -1.8600323679    -0.5313798054
    7      H       3.5472960590    -2.7192456619    -0.7540087425
[...]
      2 H                     0.164140       0.001400
      3 C                     0.064562       0.227835
      4 C                    -0.259346      -0.035391
      5 S                    -0.036606      -0.021773
      6 C                     0.463155       0.136128
      7 H                     0.141464      -0.009044
      8 C                    -0.180456       0.034522
      9 H                     0.144471      -0.005080
     10 C                    -0.111815       0.172506
     11 C                    -0.102745       0.072426
     12 S                    -0.198543      -0.058891
     13 C                     0.174240       0.059783
     14 H                     0.162144      -0.003842
     15 C                    -0.138323       0.168596
     16 C                    -0.206359       0.036227
     17 H                     0.156818      -0.008260
     18 C                     0.408798       0.111096
     19 S                     0.084968      -0.019181
     20 C                    -0.421830      -0.028902
     21 C                     0.061375       0.190341
     22 H                     0.156071       0.001595
     23 H                     0.232217      -0.010260
  --------------------------------------------------------
  Sum of atomic charges =     1.000000
  Sum of spin   charges =     1.000000

 -----------------------------------------------------------------
                    Cartesian Multipole Moments
 -----------------------------------------------------------------
    Charge (ESU x 10^10)
                 4.8032
    Dipole Moment (Debye)
         X      28.6768      Y      -2.2989      Z      -1.4840
       Tot      28.8070
    Quadrupole Moments (Debye-Ang)
        XX     154.0021     XY      -9.9044     YY     -90.2297
        XZ      -9.6158     YZ       8.2658     ZZ    -106.2900
    Octopole Moments (Debye-Ang^2)
       XXX     699.5950    XXY     -57.0820    XYY    -568.0562
       YYY     106.0921    XXZ     -79.7005    XYZ      57.5618
       YYZ       1.3895    XZZ    -632.5154    YZZ      35.7421
       ZZZ      40.1067
    Hexadecapole Moments (Debye-Ang^3)
      XXXX   -2147.3576   XXXY    -462.3708   XXYY   -4715.2521
      XYYY     600.9917   YYYY    -760.1835   XXXZ    -755.4515
      XXYZ     477.6056   XYYZ      -5.7054   YYYZ     -94.2988
      XXZZ   -4988.4784   XYZZ     157.7134   YYZZ    -177.5343
      XZZZ     179.9140   YZZZ    -131.3865   ZZZZ    -293.2427
 -----------------------------------------------------------------
 Calculating analytic gradient of the SCF energy
 Gradient of SCF Energy
            1           2           3           4           5           6
    1  -0.0000041   0.0000002   0.0000093  -0.0000260   0.0000019   0.0000166
    2   0.0000029   0.0000082  -0.0000019   0.0000079  -0.0000103   0.0000082
    3  -0.0000067  -0.0000002  -0.0000012  -0.0000148   0.0000085  -0.0000020
            7           8           9          10          11          12
    1   0.0000034   0.0000378  -0.0000113  -0.0000078  -0.0000512   0.0000352
    2   0.0000049   0.0000428  -0.0000011   0.0000089  -0.0000422   0.0000210
    3  -0.0000132   0.0000013   0.0000102   0.0000080  -0.0000394   0.0000096
           13          14          15          16          17          18
    1  -0.0003823  -0.0000019   0.0009223  -0.0010072  -0.0000022   0.0004752
    2   0.0008793  -0.0000025   0.0011286  -0.0063092   0.0000242   0.0042306
    3  -0.0056228  -0.0000084   0.0067497   0.0027768  -0.0000243  -0.0038328
           19          20          21          22          23
    1   0.0000139  -0.0000037  -0.0000179  -0.0000012   0.0000008
    2  -0.0000081   0.0000033   0.0000207  -0.0000047  -0.0000116
    3  -0.0000044  -0.0000118  -0.0000059   0.0000101   0.0000135
 Max gradient component =       6.750E-03
 RMS gradient           =       1.530E-03
 Gradient time:  CPU 4.18 s  wall 4.18 s
 Geometry Optimization Parameters
   NAtoms,    NIC,     NZ,  NCons,   NDum,   NFix, NCnnct, MaxDiis
       23     166       0       1       0       0       0       0

 Cartesian Hessian Update
 Hessian Updated using BFGS Update


** CONSTRAINED OPTIMIZATION IN DELOCALIZED INTERNAL COORDINATES **
   Searching for a Minimum

   Optimization Cycle:   9

                       Coordinates (Angstroms)
     ATOM                X               Y               Z
      1  H        -0.0878970338   -0.3889038636   -0.2160852850
      2  H         0.9252282999   -2.7561280441   -0.7914449869
      3  C         0.9632577332   -0.6446396430   -0.2611637628
      4  C         1.5187944530   -1.8802177662   -0.5600982892
      5  S         2.1442934497    0.5595734343    0.0619245073
      6  C         2.9198316750   -1.8589312023   -0.5296564878
      7  H         3.5387677873   -2.7246724484   -0.7375942174
      8  C         3.4494165918   -0.5984638647   -0.2054082692
      9  H         4.7019350057    1.9318126447    0.3390004819
     10  C         4.8080127677   -0.2214782914   -0.0866504278
     11  C         5.3313680266    1.0594397000    0.2053555760
     12  S         6.1119542892   -1.3861627771   -0.2762964304
     13  C         6.7141461853    1.0951321641    0.2695660932
     14  H         7.2894126053    1.9956588266    0.4500955114
     15  C         7.3235576759   -0.1571473301    0.0320132338
     16  C         8.7095281989   -0.4415880209   -0.1134770756
     17  H         8.7575467828   -1.9821881826   -1.6667886723
     18  C         9.3204904450   -1.3247970628   -1.0137002678
     19  S         9.9265419371    0.5225208646    0.7197276170
     20  C        10.7228603657   -1.2369705586   -1.0088862746
     21  C        11.1916504300   -0.2877573817   -0.1167115035
     22  H        11.3734185608   -1.8322539259   -1.6378907561
     23  H        12.2227637676   -0.0398334509    0.1014578258
   Point Group: c1    Number of degrees of freedom:    63


   Energy is  -1656.414161271

              Constraints and their Current Values
                                        Value     Constraint
   Dihedral:       13  15  16  18     -140.000     -140.000
 Hessian Updated using BFGS Update

 62 Hessian modes will be used to form the next step
  Hessian Eigenvalues:
     0.014249    0.028188    0.044983    0.045000    0.045000    0.045001
     0.045001    0.045002    0.045002    0.045003    0.045004    0.045011
     0.045012    0.045017    0.045025    0.045040    0.045057    0.045094
     0.045580    0.156487    0.159652    0.159952    0.159991    0.160060
     0.160182    0.160509    0.161506    0.174102    0.220459    0.222491
     0.227951    0.240776    0.245284    0.247418    0.249691    0.272390
     0.288475    0.298139    0.325530    0.326835    0.334011    0.339780
     0.341582    0.365511    0.365552    0.365941    0.366892    0.367365
     0.367906    0.370132    0.371296    0.401403    0.427323    0.435647
     0.439002    0.461717    0.463408    0.470936    0.480011    0.494657
     0.500555    0.554156

 Minimum Search - Taking Simple RFO Step
 Searching for Lamda that Minimizes Along All modes
 Value Taken    Lamda =   0.00000000
 Step Taken.  Stepsize is  0.001923

                             Maximum     Tolerance    Cnvgd?
         Gradient           0.000041      0.000300     YES
         Displacement       0.000668      0.001200     YES
         Energy change     -0.000000      0.000001     YES

 Final energy is   -1656.41416127135     


 ******************************
 **  OPTIMIZATION CONVERGED  **
 ******************************

                       Coordinates (Angstroms)
     ATOM                X               Y               Z
      1  H        -0.0878970338   -0.3889038636   -0.2160852850
      2  H         0.9252282999   -2.7561280441   -0.7914449869
      3  C         0.9632577332   -0.6446396430   -0.2611637628
      4  C         1.5187944530   -1.8802177662   -0.5600982892
      5  S         2.1442934497    0.5595734343    0.0619245073
      6  C         2.9198316750   -1.8589312023   -0.5296564878
      7  H         3.5387677873   -2.7246724484   -0.7375942174
      8  C         3.4494165918   -0.5984638647   -0.2054082692
      9  H         4.7019350057    1.9318126447    0.3390004819
     10  C         4.8080127677   -0.2214782914   -0.0866504278
     11  C         5.3313680266    1.0594397000    0.2053555760
     12  S         6.1119542892   -1.3861627771   -0.2762964304
     13  C         6.7141461853    1.0951321641    0.2695660932
     14  H         7.2894126053    1.9956588266    0.4500955114
     15  C         7.3235576759   -0.1571473301    0.0320132338
     16  C         8.7095281989   -0.4415880209   -0.1134770756
     17  H         8.7575467828   -1.9821881826   -1.6667886723
     18  C         9.3204904450   -1.3247970628   -1.0137002678
     19  S         9.9265419371    0.5225208646    0.7197276170
     20  C        10.7228603657   -1.2369705586   -1.0088862746
     21  C        11.1916504300   -0.2877573817   -0.1167115035
     22  H        11.3734185608   -1.8322539259   -1.6378907561
     23  H        12.2227637676   -0.0398334509    0.1014578258

Z-matrix Print:
$molecule
1 2
S 
C  1 1.753145
C  2 1.412805 1 110.661452
H  3 1.083730 2 122.383095 1 -178.016388 0
C  3 1.384728 2 113.584257 1 0.031728 0
H  5 1.084012 3 123.598755 2 -178.545535 0
C  5 1.414185 3 113.733050 2 -0.085613 0
C  7 1.414922 5 127.879421 3 179.169902 0
C  8 1.405125 7 128.335567 5 178.145636 0
H  9 1.084356 8 123.046673 7 -0.187331 0
C  9 1.401530 8 113.290903 7 179.987191 0
H  11 1.083079 9 124.386018 8 179.876966 0
C  11 1.387313 9 112.463392 8 -0.015696 0
H  13 1.082755 11 127.450943 9 180.000000 0
C  2 1.422318 1 121.014638 3 -173.396509 0
C  15 1.401333 2 128.068236 1 32.158701 0
H  16 1.084248 15 122.868866 2 -5.930229 0
C  16 1.405126 15 113.174714 2 172.185247 0
H  18 1.083160 16 124.269963 15 -179.614763 0
C  18 1.384466 16 112.519941 15 -0.325292 0
H  20 1.082709 18 127.540298 16 178.221385 0
S  13 1.717370 11 112.933253 9 -0.030178 0
S  20 1.719500 18 112.794543 16 -0.529410 0
$end

 
 --------------------------------------------------------------
 
                    Orbital Energies (a.u.)
 --------------------------------------------------------------
 
 Alpha MOs
 -- Occupied --
-89.075 -89.067 -89.062 -10.410 -10.410 -10.393 -10.388 -10.381
-10.374 -10.367 -10.366 -10.360 -10.355 -10.347 -10.341  -8.134
 -8.126  -8.121  -6.098  -6.094  -6.090  -6.090  -6.086  -6.085
 -6.083  -6.081  -6.078  -1.064  -1.041  -1.026  -0.944  -0.914
 -0.894  -0.889  -0.883  -0.842  -0.771  -0.749  -0.712  -0.703
 -0.688  -0.679  -0.672  -0.646  -0.606  -0.572  -0.571  -0.570
 -0.559  -0.552  -0.547  -0.545  -0.535  -0.522  -0.519  -0.509
 -0.493  -0.490  -0.452  -0.422  -0.407  -0.403  -0.394  -0.349
 -- Virtual --
 -0.229  -0.178  -0.143  -0.141  -0.128  -0.123  -0.113  -0.102
 -0.098  -0.095  -0.086  -0.083  -0.081  -0.081  -0.076  -0.074
 -0.070  -0.065  -0.061  -0.053  -0.047  -0.045  -0.035  -0.028
 -0.024  -0.022  -0.017  -0.009  -0.006   0.001   0.005   0.006
  0.008   0.010   0.014   0.021   0.024   0.026   0.030   0.033
  0.035   0.037   0.039   0.043   0.048   0.049   0.053   0.054
  0.056   0.061   0.063   0.065   0.071   0.073   0.076   0.079
  0.083   0.090   0.099   0.101   0.104   0.108   0.110   0.114
  0.119   0.122   0.125   0.127   0.133   0.140   0.143   0.151
  0.153   0.154   0.160   0.170   0.175   0.183   0.190   0.198
  0.200   0.209   0.220   0.227   0.230   0.239   0.243   0.249
  0.256   0.263   0.268   0.270   0.319   0.323   0.344   0.370
  0.379   0.382   0.395   0.409   0.430   0.440   0.444   0.456
  0.467   0.474   0.496   0.499   0.505   0.509   0.512   0.515
  0.521   0.526   0.546   0.548   0.565   0.572   0.583   0.588
  0.591   0.595   0.605   0.613   0.627   0.632   0.648   0.651
  0.678   0.683   0.689   0.695   0.699   0.708   0.729   0.749
  0.789   0.795   0.799   0.806   0.816   0.820   0.824   0.830
  0.841   0.847   0.848   0.853   0.869   0.877   0.890   0.902
  0.905   0.916   0.929   0.938   0.949   0.959   0.964   0.974
  0.980   1.019   1.026   1.034   1.045   1.083   1.093   1.109
  1.117   1.127   1.151   1.170   1.192   1.193   1.198   1.207
  1.213   1.216   1.243   1.298   1.308   1.325   1.337   1.348
  1.372   1.403   1.448   1.485   1.522   1.543   1.558   1.576
  1.667   1.686   1.705   1.715   1.732   1.766   1.772   1.784
  1.789   1.793   1.817   1.839   1.868   1.879   1.900   1.915
  1.929   1.959   1.962   2.005   2.022   2.029   2.046   2.062
  2.073   2.087   2.108   2.123   2.150   2.184   2.227   2.234
  2.274   2.286   2.297   2.304   2.313   2.325   2.341   2.360
  2.377   2.384   2.395   2.408   2.439   2.447   2.458   2.474
  2.523   2.538   2.564   2.569   2.589   2.669   2.715   2.731
  2.757   2.780   2.788   2.798   2.987   3.037   3.073   3.139
  3.142   3.174   3.269   3.274   3.524   3.592   3.602   3.824
  3.833   3.842   4.096   4.129   4.161   4.173   4.177   4.188
  4.241   4.325   4.393   4.506   4.552   4.575
 
 Beta MOs
 -- Occupied --
-89.075 -89.067 -89.062 -10.408 -10.407 -10.393 -10.387 -10.378
-10.371 -10.366 -10.365 -10.358 -10.353 -10.347 -10.342  -8.134
 -8.126  -8.121  -6.098  -6.095  -6.091  -6.090  -6.086  -6.085
 -6.083  -6.081  -6.078  -1.059  -1.037  -1.022  -0.939  -0.912
 -0.892  -0.888  -0.880  -0.835  -0.768  -0.745  -0.710  -0.700
 -0.686  -0.677  -0.671  -0.644  -0.605  -0.569  -0.569  -0.562
 -0.557  -0.550  -0.545  -0.538  -0.533  -0.519  -0.508  -0.507
 -0.492  -0.489  -0.434  -0.419  -0.403  -0.399  -0.378
 -- Virtual --
 -0.296  -0.214  -0.167  -0.139  -0.136  -0.124  -0.119  -0.112
 -0.097  -0.095  -0.093  -0.084  -0.081  -0.078  -0.076  -0.072
 -0.071  -0.069  -0.064  -0.060  -0.053  -0.046  -0.044  -0.035
 -0.027  -0.022  -0.021  -0.016  -0.008  -0.005   0.002   0.005
  0.006   0.008   0.010   0.015   0.021   0.025   0.027   0.031
  0.034   0.036   0.038   0.040   0.044   0.048   0.049   0.054
  0.055   0.056   0.061   0.063   0.066   0.072   0.074   0.077
  0.080   0.083   0.091   0.100   0.102   0.105   0.109   0.111
  0.114   0.119   0.123   0.127   0.129   0.133   0.141   0.144
  0.152   0.154   0.155   0.161   0.170   0.175   0.183   0.191
  0.199   0.201   0.210   0.221   0.228   0.232   0.240   0.244
  0.250   0.257   0.264   0.269   0.272   0.320   0.324   0.345
  0.370   0.380   0.384   0.395   0.410   0.431   0.441   0.445
  0.457   0.468   0.475   0.498   0.501   0.512   0.512   0.515
  0.520   0.526   0.529   0.549   0.551   0.566   0.576   0.584
  0.590   0.592   0.596   0.609   0.617   0.631   0.637   0.649
  0.653   0.682   0.687   0.691   0.697   0.702   0.711   0.730
  0.751   0.792   0.796   0.800   0.808   0.817   0.823   0.826
  0.833   0.842   0.849   0.849   0.855   0.870   0.878   0.891
  0.903   0.906   0.918   0.930   0.940   0.950   0.961   0.965
  0.975   0.981   1.021   1.028   1.037   1.048   1.087   1.096
  1.113   1.121   1.132   1.154   1.172   1.193   1.197   1.201
  1.210   1.220   1.221   1.245   1.300   1.312   1.331   1.341
  1.353   1.376   1.406   1.451   1.489   1.530   1.550   1.567
  1.583   1.671   1.689   1.706   1.719   1.735   1.767   1.776
  1.787   1.792   1.794   1.820   1.843   1.872   1.882   1.906
  1.918   1.933   1.962   1.967   2.011   2.028   2.034   2.050
  2.066   2.079   2.091   2.114   2.128   2.156   2.189   2.229
  2.236   2.277   2.290   2.302   2.306   2.318   2.328   2.343
  2.363   2.381   2.386   2.397   2.411   2.442   2.449   2.461
  2.478   2.526   2.540   2.567   2.572   2.592   2.672   2.717
  2.734   2.760   2.782   2.790   2.800   2.988   3.038   3.074
  3.139   3.142   3.175   3.271   3.275   3.525   3.593   3.603
  3.824   3.834   3.843   4.100   4.133   4.164   4.176   4.180
  4.191   4.246   4.328   4.397   4.509   4.554   4.578
 --------------------------------------------------------------
 
          Ground-State Mulliken Net Atomic Charges

     Atom                 Charge (a.u.)    Spin (a.u.)
  --------------------------------------------------------
      1 H                     0.241602      -0.011830
      2 H                     0.164140       0.001400
      3 C                     0.064562       0.227835
      4 C                    -0.259346      -0.035391
      5 S                    -0.036606      -0.021773
      6 C                     0.463155       0.136128
      7 H                     0.141464      -0.009044
      8 C                    -0.180456       0.034522
      9 H                     0.144471      -0.005080
     10 C                    -0.111815       0.172506
     11 C                    -0.102745       0.072426
     12 S                    -0.198543      -0.058891
     13 C                     0.174240       0.059783
     14 H                     0.162144      -0.003842
     15 C                    -0.138323       0.168596
     16 C                    -0.206359       0.036227
     17 H                     0.156818      -0.008260
     18 C                     0.408798       0.111096
     19 S                     0.084968      -0.019181
     20 C                    -0.421830      -0.028902
     21 C                     0.061375       0.190341
     22 H                     0.156071       0.001595
     23 H                     0.232217      -0.010260
  --------------------------------------------------------
  Sum of atomic charges =     1.000000
  Sum of spin   charges =     1.000000

 -----------------------------------------------------------------
                    Cartesian Multipole Moments
 -----------------------------------------------------------------
    Charge (ESU x 10^10)
                 4.8032
    Dipole Moment (Debye)
         X      28.6768      Y      -2.2989      Z      -1.4840
       Tot      28.8070
    Quadrupole Moments (Debye-Ang)
        XX     154.0021     XY      -9.9044     YY     -90.2297
        XZ      -9.6158     YZ       8.2658     ZZ    -106.2900
    Octopole Moments (Debye-Ang^2)
       XXX     699.5950    XXY     -57.0820    XYY    -568.0562
       YYY     106.0921    XXZ     -79.7005    XYZ      57.5618
       YYZ       1.3895    XZZ    -632.5154    YZZ      35.7421
       ZZZ      40.1067
    Hexadecapole Moments (Debye-Ang^3)
      XXXX   -2147.3576   XXXY    -462.3708   XXYY   -4715.2521
      XYYY     600.9917   YYYY    -760.1835   XXXZ    -755.4515
      XXYZ     477.6056   XYYZ      -5.7054   YYYZ     -94.2988
      XXZZ   -4988.4784   XYZZ     157.7134   YYZZ    -177.5343
      XZZZ     179.9140   YZZZ    -131.3865   ZZZZ    -293.2427
 -----------------------------------------------------------------
Archival summary:
1\1\nid00538\OPT\ProcedureUnspecified\BasisUnspecified\3128(1+,2)\bwood\TueMay3011:02:102017TueMay3011:02:102017\0\\#,OPT,ProcedureUnspecified,BasisUnspecified,\\1,2\S\C,1,1.75314\C,2,1.4128,1,110.661\H,3,1.08373,2,122.383,1,-178.016,0\C,3,1.38473,2,113.584,1,0.0317278,0\H,5,1.08401,3,123.599,2,-178.546,0\C,5,1.41418,3,113.733,2,-0.0856128,0\C,7,1.41492,5,127.879,3,179.17,0\C,8,1.40512,7,128.336,5,178.146,0\H,9,1.08436,8,123.047,7,-0.187331,0\C,9,1.40153,8,113.291,7,179.987,0\H,11,1.08308,9,124.386,8,179.877,0\C,11,1.38731,9,112.463,8,-0.0156964,0\H,13,1.08276,11,127.451,9,180,0\C,2,1.42232,1,121.015,3,-173.397,0\C,15,1.40133,2,128.068,1,32.1587,0\H,16,1.08425,15,122.869,2,-5.93023,0\C,16,1.40513,15,113.175,2,172.185,0\H,18,1.08316,16,124.27,15,-179.615,0\C,18,1.38447,16,112.52,15,-0.325292,0\H,20,1.08271,18,127.54,16,178.221,0\S,13,1.71737,11,112.933,9,-0.0301784,0\S,20,1.7195,18,112.795,16,-0.52941,0\\\@

 Total job time:  202.13s(wall), 213.80s(cpu) 
 Tue May 30 11:02:10 2017

        *************************************************************
        *                                                           *
        *  Thank you very much for using Q-Chem.  Have a nice day.  *
        *                                                           *
        *************************************************************


0 sent ACK to 0 
now end server 0 ... 
