srun -N 1 --ntasks-per-node 22 --cpus-per-task 2 --cpu_bind=cores --nodelist nid00490 /global/project/projectdirs/jcesr/qchem/qc44/cnl_qc441/dist/exe/qcprog.cori.haswell.exe .pt_nn_cation_170.0.in.33352.qcin.1 /dev/shm/eg_qchem/qchem33352/
Process 1 of 22 is on nid00490 - thread support 0
Process 2 of 22 is on nid00490 - thread support 0
Process 3 of 22 is on nid00490 - thread support 0
Process 4 of 22 is on nid00490 - thread support 0
Process 5 of 22 is on nid00490 - thread support 0
Process 6 of 22 is on nid00490 - thread support 0
Process 21 of 22 is on nid00490 - thread support 0
Process 0 of 22 is on nid00490 - thread support 0
initial socket setup ...start
initial socket setup ...done 
now start server 0 ... 
nid00490 10.128.1
Q-Chem Developer Version! Running on 10.128.1.*
                  Welcome to Q-Chem
     A Quantum Leap Into The Future Of Chemistry


 Q-Chem 4.4, Q-Chem, Inc., Pleasanton, CA (2016)

 Y. Shao,  Z. Gan,  E. Epifanovsky,  A. T. B. Gilbert,  M. Wormit,  
 J. Kussmann,  A. W. Lange,  A. Behn,  J. Deng,  X. Feng,  D. Ghosh,  
 M. Goldey,  P. R. Horn,  L. D. Jacobson,  I. Kaliman,  F. Rob,  
 R. Z. Khaliullin,  T. Kus,  A. Landau,  J. Liu,  E. I. Proynov,  Y. M. Rhee,  
 R. M. Richard,  M. A. Rohrdanz,  R. P. Steele,  E. J. Sundstrom,  
 H. L. Woodcock III,  P. M. Zimmerman,  D. Zuev,  B. Albrecht,  E. Alguire,  
 B. Austin,  S. A. Baeppler,  G. J. O. Beran,  Y. A. Bernard,  
 E. J. Berquist,  K. Brandhorst,  K. B. Bravaya,  S. T. Brown,  D. Casanova,  
 C.-M. Chang,  Y. Chen,  S. H. Chien,  K. D. Closser,  M. P. Coons,  
 D. L. Crittenden,  S. Dasgupta,  M. Diedenhofen,  R. A. DiStasio Jr.,  
 H. Do,  A. D. Dutoi,  R. G. Edgar,  P.-T. Fang,  S. Fatehi,  Q. Feng,  
 L. Fusti-Molnar,  A. Ghysels,  A. Golubeva-Zadorozhnaya,  J. Gomes,  
 A. Gunina,  M. W. D. Hanson-Heine,  P. H. P. Harbach,  A. W. Hauser,  
 J. E. Herr,  E. G. Hohenstein,  Z. C. Holden,  K. Hui,  T.-C. Jagau,  H. Ji,  
 B. Kaduk,  K. Khistyaev,  Jaehoon Kim,  Jihan Kim,  R. A. King,  
 P. Klunzinger,  K. Koh,  D. Kosenkov,  T. Kowalczyk,  C. M. Krauter,  
 A. Kunitsa,  K. U. Lao,  A. Laurent,  K. V. Lawler,  J. Lee,  D. Lefrancois,  
 S. Lehtola,  S. V. Levchenko,  C. Y. Lin,  Y.-S. Lin,  F. Liu,  E. Livshits,  
 R. C. Lochan,  A. Luenser,  P. Manohar,  S. F. Manzer,  S.-P. Mao,  Y. Mao,  
 N. Mardirossian,  A. V. Marenich,  L. A. Martinez-Martinez,  S. A. Maurer,  
 N. J. Mayhall,  J.-M. Mewes,  A. F. Morrison,  K. Nanda,  T. S. Nguyen-Beck,  
 C. M. Oana,  R. Olivares-Amaya,  D. P. O'Neill,  J. A. Parkhill,  
 T. M. Perrine,  R. Peverati,  P. A. Pieniazek,  F. Plasser,  A. Prociuk,  
 D. R. Rehn,  E. Rosta,  N. J. Russ,  N. Sergueev,  S. M. Sharada,  
 S. Sharma,  D. W. Small,  A. Sodt,  T. Stauch,  T. Stein,  D. Stuck,  
 Y.-C. Su,  A. J. W. Thom,  T. Tsuchimochi,  L. Vogt,  O. Vydrov,  T. Wang,  
 M. A. Watson,  J. Wenzel,  A. White,  C. F. Williams,  V. Vanovschi,  
 K. Yao,  S. Yeganeh,  S. R. Yost,  Z.-Q. You,  I. Y. Zhang,  X. Zhang,  
 Y. Zhao,  B. R. Brooks,  G. K. L. Chan,  D. M. Chipman,  C. J. Cramer,  
 W. A. Goddard III,  M. S. Gordon,  W. J. Hehre,  A. Klamt,  
 H. F. Schaefer III,  M. W. Schmidt,  C. D. Sherrill,  D. G. Truhlar,  
 A. Warshel,  X. Xu,  A. Aspuru-Guzik,  R. Baer,  A. T. Bell,  N. A. Besley,  
 J.-D. Chai,  A. Dreuw,  B. D. Dunietz,  T. R. Furlani,  S. R. Gwaltney,  
 C.-P. Hsu,  Y. Jung,  J. Kong,  D. S. Lambrecht,  W. Liang,  C. Ochsenfeld,  
 V. A. Rassolov,  L. V. Slipchenko,  J. E. Subotnik,  T. Van Voorhis,  
 J. M. Herbert,  A. I. Krylov,  P. M. W. Gill,  M. Head-Gordon

 Contributors to earlier versions of Q-Chem not listed above: 
 R. D. Adamson,  J. Baker,  E. F. C. Byrd,  A. K. Chakraborty,  C.-L. Cheng,  
 H. Dachsel,  R. J. Doerksen,  G. Hawkins,  A. Heyden,  S. Hirata,  
 G. Kedziora,  F. J. Keil,  C. Kelley,  P. P. Korambath,  W. Kurlancheek,  
 A. M. Lee,  M. S. Lee,  D. Liotard,  I. Lotan,  P. E. Maslen,  N. Nair,  
 D. Neuhauser,  R. Olson,  B. Peters,  J. Ritchie,  N. E. Schultz,  
 N. Shenvi,  A. C. Simmonett,  K. S. Thanthiriwatte,  Q. Wu,  W. Zhang

 Please cite Q-Chem as follows:
 Y. Shao et al., Mol. Phys. 113, 184-215 (2015)
 DOI: 10.1080/00268976.2014.952696

 Q-Chem 4.4.2 for Intel X86 EM64T Linux

 Parts of Q-Chem use Armadillo 5.200.1 (Boston Tea Smuggler).
 http://arma.sourceforge.net/

 Q-Chem begins on Tue May 30 10:58:48 2017  

Host: nid00444
0

     Scratch files written to /dev/shm/eg_qchem/qchem33352.0//
 Parallel job on  22  processors

Checking the input file for inconsistencies... 	...done.

--------------------------------------------------------------
User input:
--------------------------------------------------------------
$molecule
 1  2
 H           0.00000000        0.00000000        0.00000000
 H           0.66366000       -2.46828000       -0.59127000
 C           0.99103000       -0.39106000       -0.11652000
 C           1.36812000       -1.67442000       -0.42485000
 S           2.34669000        0.62586000        0.08638000
 C           2.76167000       -1.82175000       -0.50822000
 H           3.26291000       -2.73877000       -0.76199000
 C           3.44671000       -0.65043000       -0.26057000
 H           4.55645000        1.43902671        0.15704385
 C           4.88382000       -0.65043000       -0.26057000
 C           5.26091000        0.64090194        0.01245390
 S           6.23948000       -1.67253113       -0.43550939
 C           6.65446000        0.79046248        0.09175311
 H           7.15570000        1.71409653        0.32028213
 C           7.33950000       -0.38720773       -0.12368600
 C           8.77661000       -0.38720773       -0.12368600
 H           8.96041000       -2.53443234       -0.07884340
 C           9.46165000       -1.58439742       -0.13135181
 S           9.87663000        0.93370229       -0.19066828
 C          10.85520000       -1.42268442       -0.18140788
 C          11.23229000       -0.10309742       -0.20915119
 H          11.55966000       -2.23377351       -0.18799546
 H          12.22332000        0.30381165       -0.23965357
$end


$rem
         jobtype = opt
        exchange = b3lyp
           basis = 6-31++g**
  max_scf_cycles = 150
      mem_static = 281
       mem_total = 2818
      sym_ignore = true
        symmetry = false
          thresh = 12
$end


$opt
CONSTRAINT
tors 13 15 16 18 170.0
ENDCONSTRAINT
$end

--------------------------------------------------------------
 ----------------------------------------------------------------
             Standard Nuclear Orientation (Angstroms)
    I     Atom           X                Y                Z
 ----------------------------------------------------------------
    1      H       0.0000000000     0.0000000000     0.0000000000
    2      H       0.6636600000    -2.4682800000    -0.5912700000
    3      C       0.9910300000    -0.3910600000    -0.1165200000
    4      C       1.3681200000    -1.6744200000    -0.4248500000
    5      S       2.3466900000     0.6258600000     0.0863800000
    6      C       2.7616700000    -1.8217500000    -0.5082200000
    7      H       3.2629100000    -2.7387700000    -0.7619900000
    8      C       3.4467100000    -0.6504300000    -0.2605700000
    9      H       4.5564500000     1.4390267100     0.1570438500
   10      C       4.8838200000    -0.6504300000    -0.2605700000
   11      C       5.2609100000     0.6409019400     0.0124539000
   12      S       6.2394800000    -1.6725311300    -0.4355093900
   13      C       6.6544600000     0.7904624800     0.0917531100
   14      H       7.1557000000     1.7140965300     0.3202821300
   15      C       7.3395000000    -0.3872077300    -0.1236860000
   16      C       8.7766100000    -0.3872077300    -0.1236860000
   17      H       8.9604100000    -2.5344323400    -0.0788434000
   18      C       9.4616500000    -1.5843974200    -0.1313518100
   19      S       9.8766300000     0.9337022900    -0.1906682800
   20      C      10.8552000000    -1.4226844200    -0.1814078800
   21      C      11.2322900000    -0.1030974200    -0.2091511900
   22      H      11.5596600000    -2.2337735100    -0.1879954600
   23      H      12.2233200000     0.3038116500    -0.2396535700
 ----------------------------------------------------------------
 Nuclear Repulsion Energy =  1186.4321281666 hartrees
 There are       64 alpha and       63 beta electrons
 Requested basis set is 6-31++G(d,p)
 There are 110 shells and 345 basis functions

 Total QAlloc Memory Limit   2818 MB
 Mega-Array Size       275 MB
 MEM_STATIC part       281 MB
 A cutoff of  1.0D-12 yielded   4724 shell pairs
 There are     48196 function pairs

 Q-Chem warning in module /project/projectdirs/jcesr/qchem/qc44/cnl_qc441/compile/cori/qc_src/libqints/qchem/aobasis.C, line 68:

 Using reconstructed effective core potential

 
 -------------------------------------------------------
 OpenMP Integral Computing Module                       
 Release: version 1.0, May 2013, Q-Chem Inc. Pittsburgh 
 -------------------------------------------------------
 Integral Job Info:
 Integral job number is                      11
 Integral operator is                         1
 short-range coefficients                     0
 long-range coefficients              100000000
 Omega coefficients                           0
 if combine SR and LR in K                    0
 Integral screening is                        0
 Integral computing path is                   2
 max size of driver memory is            800000
 size of driver memory is                593474
 size of scratch memory is             15166112
 max col of scratch BK array               1296
 max len of scratch array in speh3          155
 max len of scratch index in speh4           18
 max int batch size is                      520
 min int batch size is                       52
 fixed nKL is                                52
 max L of basis functions is                  2
 order of int derivative is                   0
 number of shells is                        110
 number of basis is                         345
 number of cartesian basis is               345
 number of contracted shell pairs          4724
 number of primitive shell pairs          14816
 maxK2 (contraction) of shell pair           36
 max number of K2 of shell pair               1
 max number of CS2 of shell pair            511
 max number of PS2 of shell pair           3054
 mem total for path MDJ                  101288
 -------------------------------------------------------
 Smallest overlap matrix eigenvalue = 1.11E-07
 Linear dependence detected in AO basis
 Number of orthogonalized atomic orbitals = 342
 Maximum deviation from orthogonality = 1.729E-10

 Scale SEOQF with 1.000000e-02/1.000000e-01/1.000000e-01

 Standard Electronic Orientation quadrupole field applied
 Nucleus-field energy     =     0.0000000336 hartrees
 Guess from superposition of atomic densities
 Warning:  Energy on first SCF cycle will be non-variational
 An unrestricted hybrid HF-DFT SCF calculation will be
 performed using Pulay DIIS extrapolation
 Exchange:     0.2000 Hartree-Fock + 0.0800 Slater + 0.7200 B88
 Correlation:  0.1900 VWN1RPA + 0.8100 LYP
 Using SG-1 standard quadrature grid
 SCF converges when DIIS error is below 1.0E-08
 Inaccurate integrated density:
   Number of electrons =   127
   Numerical integral  =   127.999591925276
   Relative error      =     0.7870802561 %
 ---------------------------------------
  Cycle       Energy         DIIS Error
 ---------------------------------------
    1   -1660.7327313459      3.84E-02
    2   -1656.1481202367      3.65E-03
    3   -1655.7926761139      5.75E-03
    4   -1656.3472200380      1.15E-03
    5   -1656.3647166696      5.86E-04
    6   -1656.3704921773      1.83E-04
    7   -1656.3710500798      7.77E-05
    8   -1656.3711861859      2.12E-05
    9   -1656.3712072265      6.42E-06
   10   -1656.3712212572      3.70E-06
   11   -1656.3712283187      2.66E-06
   12   -1656.3712328483      1.04E-06
   13   -1656.3712340597      6.37E-07
   14   -1656.3712341356      2.73E-07
   15   -1656.3712341588      6.30E-08
   16   -1656.3712341589      4.99E-08
   17   -1656.3712341586      1.55E-08
   18   -1656.3712341581      1.01E-08
   19   -1656.3712341577      4.06E-09 Convergence criterion met
 ---------------------------------------
 <S^2> = 0.7662
 SCF time:  CPU 26.16 s  wall 24.51 s
 SCF   energy in the final basis set = -1656.3712341577
 Total energy in the final basis set = -1656.3712341577
 
 --------------------------------------------------------------
 
                    Orbital Energies (a.u.)
 --------------------------------------------------------------
 
 Alpha MOs
 -- Occupied --
-89.087 -89.067 -89.064 -10.406 -10.404 -10.390 -10.386 -10.376
-10.373 -10.358 -10.356 -10.349 -10.349 -10.341 -10.339  -8.146
 -8.127  -8.124  -6.110  -6.106  -6.102  -6.091  -6.088  -6.087
 -6.084  -6.084  -6.081  -1.080  -1.052  -1.039  -0.956  -0.916
 -0.900  -0.895  -0.887  -0.850  -0.774  -0.750  -0.715  -0.699
 -0.690  -0.683  -0.676  -0.657  -0.606  -0.582  -0.581  -0.571
 -0.565  -0.552  -0.550  -0.547  -0.532  -0.526  -0.522  -0.506
 -0.492  -0.490  -0.460  -0.423  -0.407  -0.404  -0.398  -0.353
 -- Virtual --
 -0.222  -0.171  -0.141  -0.135  -0.127  -0.113  -0.110  -0.107
 -0.095  -0.095  -0.093  -0.085  -0.082  -0.080  -0.077  -0.074
 -0.068  -0.066  -0.064  -0.051  -0.047  -0.042  -0.039  -0.033
 -0.027  -0.024  -0.019  -0.010  -0.004   0.000   0.004   0.006
  0.009   0.014   0.016   0.019   0.023   0.030   0.030   0.034
  0.038   0.039   0.042   0.044   0.048   0.048   0.051   0.055
  0.056   0.059   0.066   0.070   0.072   0.076   0.078   0.081
  0.088   0.092   0.096   0.098   0.107   0.116   0.117   0.119
  0.121   0.124   0.130   0.133   0.142   0.149   0.153   0.156
  0.162   0.169   0.170   0.172   0.178   0.185   0.194   0.202
  0.209   0.219   0.234   0.238   0.240   0.242   0.248   0.259
  0.261   0.267   0.278   0.296   0.306   0.332   0.348   0.362
  0.371   0.378   0.387   0.400   0.422   0.440   0.455   0.469
  0.484   0.490   0.496   0.503   0.509   0.512   0.515   0.518
  0.522   0.523   0.546   0.563   0.574   0.575   0.588   0.594
  0.598   0.600   0.603   0.617   0.626   0.648   0.652   0.656
  0.667   0.668   0.674   0.688   0.691   0.714   0.743   0.752
  0.795   0.802   0.806   0.809   0.812   0.823   0.827   0.837
  0.843   0.851   0.857   0.865   0.879   0.891   0.895   0.907
  0.919   0.936   0.946   0.951   0.972   0.976   0.979   0.992
  1.018   1.029   1.042   1.047   1.060   1.096   1.109   1.121
  1.134   1.153   1.164   1.182   1.192   1.198   1.201   1.214
  1.221   1.222   1.235   1.249   1.274   1.291   1.311   1.344
  1.356   1.436   1.466   1.490   1.511   1.560   1.561   1.584
  1.675   1.696   1.715   1.736   1.764   1.777   1.785   1.793
  1.813   1.839   1.849   1.857   1.880   1.907   1.916   1.944
  1.951   1.959   1.992   2.020   2.047   2.052   2.060   2.092
  2.098   2.106   2.131   2.155   2.188   2.193   2.235   2.239
  2.277   2.310   2.315   2.323   2.334   2.340   2.365   2.392
  2.393   2.401   2.418   2.447   2.456   2.457   2.494   2.520
  2.531   2.552   2.579   2.583   2.595   2.689   2.713   2.726
  2.765   2.784   2.819   2.839   3.025   3.060   3.100   3.162
  3.165   3.203   3.296   3.299   3.563   3.625   3.630   3.822
  3.851   3.855   4.109   4.118   4.162   4.176   4.182   4.194
  4.229   4.325   4.411   4.513   4.565   4.584
 
 Beta MOs
 -- Occupied --
-89.087 -89.067 -89.064 -10.403 -10.401 -10.389 -10.385 -10.373
-10.370 -10.357 -10.355 -10.348 -10.347 -10.341 -10.339  -8.146
 -8.127  -8.124  -6.111  -6.107  -6.103  -6.091  -6.088  -6.087
 -6.084  -6.084  -6.081  -1.076  -1.049  -1.035  -0.950  -0.914
 -0.896  -0.893  -0.886  -0.843  -0.771  -0.747  -0.713  -0.696
 -0.688  -0.680  -0.675  -0.656  -0.604  -0.579  -0.571  -0.570
 -0.563  -0.549  -0.545  -0.542  -0.531  -0.521  -0.516  -0.504
 -0.491  -0.489  -0.441  -0.421  -0.402  -0.400  -0.380
 -- Virtual --
 -0.300  -0.207  -0.160  -0.140  -0.133  -0.117  -0.112  -0.109
 -0.105  -0.094  -0.087  -0.086  -0.083  -0.081  -0.077  -0.075
 -0.072  -0.067  -0.065  -0.063  -0.050  -0.045  -0.041  -0.038
 -0.033  -0.027  -0.022  -0.018  -0.010  -0.004   0.002   0.004
  0.006   0.009   0.015   0.016   0.020   0.024   0.030   0.031
  0.035   0.039   0.039   0.043   0.044   0.049   0.049   0.052
  0.056   0.056   0.061   0.068   0.070   0.072   0.077   0.080
  0.082   0.089   0.093   0.098   0.098   0.108   0.117   0.118
  0.120   0.122   0.124   0.132   0.134   0.143   0.150   0.155
  0.157   0.163   0.169   0.170   0.172   0.179   0.187   0.196
  0.204   0.210   0.220   0.235   0.238   0.241   0.243   0.250
  0.259   0.262   0.268   0.279   0.298   0.306   0.333   0.350
  0.363   0.371   0.378   0.387   0.401   0.423   0.441   0.457
  0.470   0.486   0.493   0.500   0.506   0.514   0.514   0.518
  0.524   0.524   0.530   0.548   0.564   0.575   0.580   0.591
  0.595   0.600   0.602   0.605   0.623   0.631   0.650   0.654
  0.658   0.669   0.671   0.678   0.689   0.696   0.719   0.744
  0.753   0.796   0.804   0.806   0.812   0.814   0.825   0.831
  0.839   0.844   0.853   0.858   0.867   0.879   0.893   0.897
  0.907   0.920   0.937   0.948   0.952   0.973   0.977   0.980
  0.993   1.020   1.031   1.045   1.050   1.062   1.099   1.113
  1.123   1.138   1.159   1.165   1.186   1.196   1.202   1.205
  1.218   1.224   1.227   1.239   1.250   1.279   1.295   1.316
  1.348   1.360   1.439   1.469   1.497   1.517   1.568   1.570
  1.589   1.677   1.698   1.719   1.739   1.765   1.779   1.786
  1.795   1.818   1.843   1.853   1.860   1.884   1.911   1.920
  1.946   1.956   1.962   1.998   2.025   2.053   2.058   2.068
  2.098   2.104   2.111   2.133   2.161   2.193   2.198   2.237
  2.241   2.282   2.312   2.318   2.326   2.336   2.345   2.367
  2.393   2.398   2.405   2.419   2.449   2.458   2.460   2.497
  2.522   2.535   2.554   2.582   2.586   2.596   2.692   2.716
  2.729   2.766   2.785   2.820   2.842   3.026   3.061   3.101
  3.162   3.166   3.203   3.298   3.300   3.564   3.626   3.631
  3.822   3.851   3.856   4.113   4.122   4.167   4.179   4.185
  4.196   4.234   4.329   4.415   4.516   4.568   4.587
 --------------------------------------------------------------
 
          Ground-State Mulliken Net Atomic Charges

     Atom                 Charge (a.u.)    Spin (a.u.)
  --------------------------------------------------------
      1 H                     0.249681      -0.011264
      2 H                     0.154207       0.001416
      3 C                     0.078145       0.229926
      4 C                    -0.346061      -0.041988
      5 S                    -0.093900      -0.028737
      6 C                     0.581317       0.145596
      7 H                     0.143625      -0.008788
      8 C                     0.167320       0.037613
      9 H                     0.064791      -0.005938
     10 C                    -0.132017       0.169758
     11 C                    -0.490875       0.062026
     12 S                    -0.001152      -0.046280
     13 C                    -0.104202       0.026736
     14 H                     0.137802      -0.003157
     15 C                    -0.032432       0.185666
     16 C                    -0.149974       0.032997
     17 H                     0.133751      -0.008339
     18 C                     0.441755       0.126655
     19 S                     0.007853      -0.025004
     20 C                    -0.283673      -0.036432
     21 C                     0.074792       0.206614
     22 H                     0.156237       0.001541
     23 H                     0.243010      -0.010614
  --------------------------------------------------------
  Sum of atomic charges =     1.000000
  Sum of spin   charges =     1.000000

 -----------------------------------------------------------------
                    Cartesian Multipole Moments
 -----------------------------------------------------------------
    Charge (ESU x 10^10)
                 4.8032
    Dipole Moment (Debye)
         X      29.0151      Y      -2.7597      Z      -0.8521
       Tot      29.1585
    Quadrupole Moments (Debye-Ang)
        XX     159.6076     XY     -14.5593     YY     -88.5705
        XZ      -4.9138     YZ       3.3800     ZZ    -109.6797
    Octopole Moments (Debye-Ang^2)
       XXX     767.6897    XXY     -80.5336    XYY    -543.4803
       YYY     106.4386    XXZ     -26.6667    XYZ      12.2513
       YYZ      13.0165    XZZ    -672.0253    YZZ      46.9032
       ZZZ      60.3287
    Hexadecapole Moments (Debye-Ang^3)
      XXXX   -1402.8103   XXXY    -512.2167   XXYY   -4439.2744
      XYYY     558.8643   YYYY    -839.9722   XXXZ    -160.8833
      XXYZ      40.7034   XYYZ      97.0904   YYYZ     -49.8341
      XXZZ   -5403.6228   XYZZ     254.5634   YYZZ    -192.0429
      XZZZ     364.4552   YZZZ     -77.2016   ZZZZ    -178.9159
 -----------------------------------------------------------------
 Calculating analytic gradient of the SCF energy
 Gradient of SCF Energy
            1           2           3           4           5           6
    1   0.0068526   0.0045556  -0.0047164  -0.0001598   0.0028405   0.0237234
    2  -0.0034367   0.0048407   0.0018131   0.0121735  -0.0266536   0.0108168
    3  -0.0011732   0.0009826  -0.0000586   0.0038929  -0.0056414   0.0035533
            7           8           9          10          11          12
    1  -0.0015299  -0.0213454  -0.0021262   0.0452575  -0.0646072   0.0020340
    2   0.0061604   0.0628333  -0.0058004  -0.0468681  -0.0338980   0.0415358
    3   0.0005591   0.0117084  -0.0011073  -0.0094925  -0.0085241   0.0078890
           13          14          15          16          17          18
    1   0.0334008  -0.0022097  -0.0279432   0.0274649   0.0008505  -0.0206983
    2  -0.0209335  -0.0055996  -0.0337375   0.0331646   0.0065603   0.0114775
    3  -0.0032224  -0.0006729  -0.0024643   0.0046416   0.0003989   0.0006272
           19          20          21          22          23
    1   0.0036423   0.0007954   0.0050451  -0.0043107  -0.0068158
    2  -0.0286130   0.0114722   0.0012432   0.0050521  -0.0036031
    3  -0.0010439  -0.0013420   0.0000445  -0.0001832   0.0006285
 Max gradient component =       6.461E-02
 RMS gradient           =       1.903E-02
 Gradient time:  CPU 4.32 s  wall 4.29 s
 Geometry Optimization Parameters
   NAtoms,    NIC,     NZ,  NCons,   NDum,   NFix, NCnnct, MaxDiis
       23     166       0       1       0       0       0       0


** CONSTRAINED OPTIMIZATION IN DELOCALIZED INTERNAL COORDINATES **
   Searching for a Minimum

   Optimization Cycle:   1

                       Coordinates (Angstroms)
     ATOM                X               Y               Z
      1  H         0.0000000000    0.0000000000    0.0000000000
      2  H         0.6636600000   -2.4682800000   -0.5912700000
      3  C         0.9910300000   -0.3910600000   -0.1165200000
      4  C         1.3681200000   -1.6744200000   -0.4248500000
      5  S         2.3466900000    0.6258600000    0.0863800000
      6  C         2.7616700000   -1.8217500000   -0.5082200000
      7  H         3.2629100000   -2.7387700000   -0.7619900000
      8  C         3.4467100000   -0.6504300000   -0.2605700000
      9  H         4.5564500000    1.4390267100    0.1570438500
     10  C         4.8838200000   -0.6504300000   -0.2605700000
     11  C         5.2609100000    0.6409019400    0.0124539000
     12  S         6.2394800000   -1.6725311300   -0.4355093900
     13  C         6.6544600000    0.7904624800    0.0917531100
     14  H         7.1557000000    1.7140965300    0.3202821300
     15  C         7.3395000000   -0.3872077300   -0.1236860000
     16  C         8.7766100000   -0.3872077300   -0.1236860000
     17  H         8.9604100000   -2.5344323400   -0.0788434000
     18  C         9.4616500000   -1.5843974200   -0.1313518100
     19  S         9.8766300000    0.9337022900   -0.1906682800
     20  C        10.8552000000   -1.4226844200   -0.1814078800
     21  C        11.2322900000   -0.1030974200   -0.2091511900
     22  H        11.5596600000   -2.2337735100   -0.1879954600
     23  H        12.2233200000    0.3038116500   -0.2396535700
   Point Group: c1    Number of degrees of freedom:    63


   Energy is  -1656.371234158

              Constraints and their Current Values
                                        Value     Constraint
   Dihedral:       13  15  16  18      170.000      170.000

 Attempting to Generate Delocalized Internal Coordinates

 62 Hessian modes will be used to form the next step
  Hessian Eigenvalues:
     0.045000    0.045000    0.045000    0.045000    0.045000    0.045000
     0.045001    0.045001    0.045001    0.045002    0.045003    0.045003
     0.045011    0.045012    0.045012    0.045025    0.045032    0.045058
     0.045059    0.159944    0.159945    0.159945    0.159992    0.159993
     0.159993    0.160000    0.160000    0.221307    0.221308    0.227041
     0.237995    0.238010    0.245411    0.249662    0.249670    0.249670
     0.249825    0.326317    0.326319    0.326962    0.340043    0.340044
     0.340629    0.365512    0.365512    0.365513    0.366888    0.366889
     0.366889    0.370099    0.370100    0.399845    0.399845    0.435419
     0.435419    0.435422    0.463117    0.463122    0.464282    0.495500
     0.495500    0.495533

 Minimum Search - Taking Simple RFO Step
 Searching for Lamda that Minimizes Along All modes
 Value Taken    Lamda =  -0.06811158
 Calculated Step too Large.  Step scaled by  0.675950
 Step Taken.  Stepsize is  0.300000

                             Maximum     Tolerance    Cnvgd?
         Gradient           0.080973      0.000300      NO
         Displacement       0.143650      0.001200      NO
         Energy change     *********      0.000001      NO


 New Cartesian Coordinates Obtained by Inverse Iteration

 Displacement from previous Coordinates is:  1.649136
 ----------------------------------------------------------------
             Standard Nuclear Orientation (Angstroms)
    I     Atom           X                Y                Z
 ----------------------------------------------------------------
    1      H      -0.0965919429    -0.2660874163    -0.0518799618
    2      H       0.7957861708    -2.6768468568    -0.6341941468
    3      C       0.9340515749    -0.5665993991    -0.1501433714
    4      C       1.4263995033    -1.8189920109    -0.4539673114
    5      S       2.1808835610     0.5894006658     0.0818461359
    6      C       2.8293371875    -1.8330968719    -0.5077946364
    7      H       3.4155181368    -2.7075425514    -0.7509962941
    8      C       3.4135905175    -0.5894367073    -0.2433503359
    9      H       4.6648544330     1.7323643091     0.2134591301
   10      C       4.8476018362    -0.4155954430    -0.2088137574
   11      C       5.3148249754     0.8873222879     0.0616861753
   12      S       6.1747943297    -1.4949490948    -0.3928316957
   13      C       6.7060700226     0.9797134718     0.1253487380
   14      H       7.2508165680     1.8865782123     0.3445566681
   15      C       7.3392711752    -0.2454664217    -0.0949148447
   16      C       8.7645212570    -0.3876056992    -0.1202101761
   17      H       8.8528431568    -2.5657006002    -0.0761442487
   18      C       9.3965202254    -1.6338678841    -0.1365321059
   19      S       9.9318550781     0.8901217088    -0.2041835004
   20      C      10.7957277510    -1.5424569110    -0.2057165903
   21      C      11.2289705039    -0.2324020781    -0.2424789051
   22      H      11.4653394715    -2.3894022262    -0.2211653681
   23      H      12.2438945072     0.1279374162    -0.2896095873
 ----------------------------------------------------------------
 Nuclear Repulsion Energy =  1177.2878035548 hartrees
 There are       64 alpha and       63 beta electrons
 Applying Cartesian multipole field
    Component          Value
    ---------          -----
     (2,0,0)        1.00000E-12
     (0,2,0)        2.00000E-11
     (0,0,2)       -3.00000E-11
 Nucleus-field energy     =     0.0000000336 hartrees
 Requested basis set is 6-31++G(d,p)
 There are 110 shells and 345 basis functions
 A cutoff of  1.0D-12 yielded   4714 shell pairs
 There are     48058 function pairs

 Q-Chem warning in module /project/projectdirs/jcesr/qchem/qc44/cnl_qc441/compile/cori/qc_src/libqints/qchem/aobasis.C, line 68:

 Using reconstructed effective core potential

 Smallest overlap matrix eigenvalue = 8.94E-08
 Linear dependence detected in AO basis
 Number of orthogonalized atomic orbitals = 342
 Maximum deviation from orthogonality = 1.556E-10
 Guess MOs from SCF MO coefficient file
 Reading MOs from coefficient file
 Reading MOs from coefficient file
 An unrestricted hybrid HF-DFT SCF calculation will be
 performed using Pulay DIIS extrapolation
 Exchange:     0.2000 Hartree-Fock + 0.0800 Slater + 0.7200 B88
 Correlation:  0.1900 VWN1RPA + 0.8100 LYP
 Using SG-1 standard quadrature grid
 SCF converges when DIIS error is below 1.0E-08
 Geometry optimization detected.  Setting ReadMinima to 0
 Setting SaveMinima to 0
 Inaccurate integrated density:
   Number of electrons =   127
   Numerical integral  =   126.865823830506
   Relative error      =    -0.1056505272 %
 ---------------------------------------
  Cycle       Energy         DIIS Error
 ---------------------------------------
    1   -1656.1546248363      5.27E-03
    2   -1656.3794388597      1.16E-03
    3   -1656.3304126203      2.05E-03
    4   -1656.4020792383      2.63E-04
    5   -1656.4031181281      8.75E-05
    6   -1656.4032349576      3.05E-05
    7   -1656.4032495948      1.46E-05
    8   -1656.4032534017      3.01E-06
    9   -1656.4032536813      9.20E-07
   10   -1656.4032537553      5.52E-07
   11   -1656.4032538052      2.92E-07
   12   -1656.4032538279      1.51E-07
   13   -1656.4032538417      8.12E-08
   14   -1656.4032538453      6.36E-08
   15   -1656.4032538457      2.76E-08
   16   -1656.4032538468      1.21E-08
   17   -1656.4032538468      5.66E-09 Convergence criterion met
 ---------------------------------------
 <S^2> = 0.7681
 SCF time:  CPU 23.97 s  wall 22.29 s
 SCF   energy in the final basis set = -1656.4032538468
 Total energy in the final basis set = -1656.4032538468
 
 --------------------------------------------------------------
 
                    Orbital Energies (a.u.)
 --------------------------------------------------------------
 
 Alpha MOs
 -- Occupied --
-89.082 -89.067 -89.065 -10.410 -10.408 -10.391 -10.388 -10.377
-10.376 -10.362 -10.360 -10.354 -10.353 -10.342 -10.342  -8.141
 -8.126  -8.125  -6.106  -6.102  -6.098  -6.090  -6.089  -6.086
 -6.085  -6.083  -6.082  -1.070  -1.045  -1.032  -0.946  -0.913
 -0.893  -0.893  -0.888  -0.845  -0.771  -0.746  -0.713  -0.700
 -0.687  -0.680  -0.674  -0.653  -0.606  -0.576  -0.573  -0.569
 -0.561  -0.550  -0.547  -0.546  -0.530  -0.528  -0.522  -0.510
 -0.494  -0.491  -0.456  -0.422  -0.405  -0.404  -0.397  -0.350
 -- Virtual --
 -0.226  -0.174  -0.139  -0.133  -0.129  -0.116  -0.112  -0.106
 -0.098  -0.095  -0.089  -0.086  -0.082  -0.081  -0.077  -0.075
 -0.068  -0.065  -0.063  -0.052  -0.046  -0.042  -0.036  -0.031
 -0.027  -0.024  -0.019  -0.010  -0.005   0.000   0.004   0.005
  0.007   0.014   0.016   0.020   0.022   0.030   0.032   0.033
  0.036   0.038   0.041   0.044   0.047   0.049   0.053   0.054
  0.056   0.059   0.067   0.068   0.071   0.073   0.078   0.080
  0.085   0.087   0.097   0.099   0.104   0.109   0.116   0.119
  0.121   0.122   0.128   0.130   0.138   0.147   0.149   0.154
  0.156   0.161   0.170   0.175   0.178   0.183   0.191   0.201
  0.206   0.212   0.229   0.232   0.240   0.241   0.246   0.254
  0.259   0.262   0.274   0.278   0.312   0.329   0.335   0.363
  0.371   0.381   0.384   0.393   0.426   0.435   0.454   0.467
  0.473   0.475   0.496   0.501   0.507   0.512   0.515   0.517
  0.520   0.522   0.544   0.559   0.572   0.573   0.586   0.589
  0.591   0.597   0.599   0.617   0.621   0.635   0.648   0.654
  0.667   0.673   0.677   0.690   0.692   0.713   0.732   0.744
  0.795   0.801   0.804   0.810   0.814   0.819   0.825   0.828
  0.841   0.845   0.852   0.857   0.869   0.880   0.894   0.900
  0.922   0.932   0.946   0.948   0.967   0.971   0.976   0.978
  1.025   1.030   1.034   1.045   1.051   1.090   1.105   1.117
  1.127   1.147   1.154   1.181   1.188   1.194   1.202   1.206
  1.215   1.220   1.231   1.260   1.284   1.302   1.315   1.343
  1.357   1.420   1.443   1.503   1.510   1.552   1.558   1.575
  1.674   1.696   1.706   1.723   1.756   1.769   1.781   1.785
  1.800   1.821   1.832   1.840   1.875   1.879   1.906   1.921
  1.930   1.949   1.979   2.010   2.035   2.042   2.048   2.077
  2.083   2.098   2.109   2.131   2.162   2.177   2.229   2.233
  2.272   2.300   2.302   2.316   2.321   2.328   2.350   2.375
  2.382   2.392   2.403   2.424   2.435   2.440   2.484   2.491
  2.524   2.546   2.569   2.573   2.588   2.694   2.713   2.721
  2.767   2.769   2.790   2.817   2.999   3.044   3.085   3.148
  3.151   3.193   3.281   3.283   3.542   3.605   3.610   3.821
  3.844   3.847   4.108   4.119   4.163   4.164   4.178   4.184
  4.228   4.320   4.399   4.508   4.555   4.579
 
 Beta MOs
 -- Occupied --
-89.082 -89.067 -89.066 -10.407 -10.405 -10.391 -10.388 -10.374
-10.373 -10.361 -10.360 -10.352 -10.352 -10.343 -10.342  -8.141
 -8.126  -8.125  -6.106  -6.102  -6.098  -6.090  -6.089  -6.086
 -6.085  -6.083  -6.082  -1.066  -1.042  -1.029  -0.940  -0.912
 -0.891  -0.890  -0.885  -0.838  -0.768  -0.743  -0.711  -0.698
 -0.685  -0.678  -0.673  -0.652  -0.604  -0.572  -0.568  -0.565
 -0.559  -0.548  -0.545  -0.538  -0.529  -0.527  -0.512  -0.509
 -0.493  -0.490  -0.437  -0.419  -0.402  -0.400  -0.379
 -- Virtual --
 -0.297  -0.211  -0.163  -0.137  -0.131  -0.120  -0.114  -0.112
 -0.104  -0.095  -0.089  -0.084  -0.082  -0.081  -0.077  -0.077
 -0.072  -0.068  -0.065  -0.063  -0.052  -0.045  -0.041  -0.036
 -0.031  -0.026  -0.022  -0.018  -0.009  -0.004   0.002   0.004
  0.006   0.007   0.014   0.016   0.020   0.023   0.031   0.032
  0.034   0.036   0.039   0.042   0.045   0.048   0.050   0.053
  0.055   0.056   0.061   0.067   0.068   0.071   0.073   0.079
  0.081   0.086   0.088   0.098   0.100   0.105   0.110   0.117
  0.120   0.122   0.122   0.130   0.132   0.139   0.148   0.150
  0.155   0.157   0.161   0.170   0.176   0.178   0.184   0.192
  0.202   0.207   0.214   0.230   0.233   0.241   0.243   0.246
  0.256   0.260   0.263   0.275   0.280   0.313   0.330   0.336
  0.363   0.371   0.381   0.385   0.394   0.427   0.436   0.455
  0.468   0.474   0.477   0.500   0.505   0.509   0.516   0.519
  0.520   0.524   0.529   0.545   0.561   0.572   0.577   0.588
  0.591   0.593   0.597   0.603   0.623   0.626   0.638   0.650
  0.655   0.670   0.675   0.681   0.691   0.697   0.717   0.733
  0.745   0.797   0.803   0.806   0.811   0.816   0.821   0.829
  0.830   0.842   0.846   0.854   0.858   0.870   0.881   0.895
  0.901   0.923   0.933   0.947   0.949   0.968   0.972   0.977
  0.980   1.027   1.033   1.036   1.048   1.055   1.093   1.109
  1.119   1.132   1.152   1.156   1.184   1.190   1.197   1.206
  1.210   1.220   1.226   1.233   1.262   1.288   1.308   1.319
  1.346   1.361   1.423   1.445   1.509   1.516   1.559   1.567
  1.581   1.677   1.698   1.711   1.725   1.757   1.770   1.783
  1.787   1.805   1.826   1.835   1.844   1.878   1.882   1.910
  1.927   1.934   1.951   1.985   2.016   2.041   2.049   2.054
  2.082   2.088   2.101   2.113   2.136   2.169   2.182   2.232
  2.235   2.278   2.303   2.304   2.320   2.326   2.331   2.351
  2.376   2.386   2.396   2.405   2.426   2.437   2.443   2.486
  2.494   2.528   2.548   2.572   2.577   2.590   2.698   2.715
  2.724   2.769   2.770   2.791   2.820   2.999   3.045   3.086
  3.149   3.151   3.193   3.282   3.284   3.543   3.606   3.611
  3.821   3.844   3.847   4.112   4.123   4.167   4.168   4.180
  4.186   4.233   4.324   4.404   4.511   4.557   4.582
 --------------------------------------------------------------
 
          Ground-State Mulliken Net Atomic Charges

     Atom                 Charge (a.u.)    Spin (a.u.)
  --------------------------------------------------------
      1 H                     0.245887      -0.011198
      2 H                     0.159131       0.001679
      3 C                     0.068731       0.221283
      4 C                    -0.293057      -0.042121
      5 S                    -0.021111      -0.027740
      6 C                     0.522332       0.141367
      7 H                     0.144478      -0.009073
      8 C                    -0.047055       0.030817
      9 H                     0.118621      -0.005759
     10 C                    -0.089960       0.179038
     11 C                    -0.285283       0.063180
     12 S                    -0.177798      -0.054328
     13 C                    -0.049045       0.032063
     14 H                     0.145568      -0.003587
     15 C                    -0.088926       0.187795
     16 C                    -0.205819       0.028689
     17 H                     0.145883      -0.008781
     18 C                     0.491874       0.136108
     19 S                     0.010126      -0.025425
     20 C                    -0.254496      -0.039741
     21 C                     0.058974       0.215184
     22 H                     0.159241       0.001690
     23 H                     0.241701      -0.011141
  --------------------------------------------------------
  Sum of atomic charges =     1.000000
  Sum of spin   charges =     1.000000

 -----------------------------------------------------------------
                    Cartesian Multipole Moments
 -----------------------------------------------------------------
    Charge (ESU x 10^10)
                 4.8032
    Dipole Moment (Debye)
         X      29.1440      Y      -2.7110      Z      -0.8412
       Tot      29.2819
    Quadrupole Moments (Debye-Ang)
        XX     161.3754     XY     -14.0345     YY     -87.3895
        XZ      -4.9639     YZ       3.5807     ZZ    -110.1335
    Octopole Moments (Debye-Ang^2)
       XXX     788.6031    XXY     -90.7871    XYY    -533.9793
       YYY      99.6177    XXZ     -31.4575    XYZ      13.5299
       YYZ      12.6082    XZZ    -671.9916    YZZ      45.0007
       ZZZ      58.9773
    Hexadecapole Moments (Debye-Ang^3)
      XXXX   -1222.4517   XXXY    -739.1937   XXYY   -4368.4122
      XYYY     514.6339   YYYY    -834.4496   XXXZ    -243.6121
      XXYZ      53.1995   XYYZ      96.7915   YYYZ     -46.3133
      XXZZ   -5401.5051   XYZZ     242.1188   YYZZ    -194.7112
      XZZZ     358.6866   YZZZ     -76.8863   ZZZZ    -179.5727
 -----------------------------------------------------------------
 Calculating analytic gradient of the SCF energy
 Gradient of SCF Energy
            1           2           3           4           5           6
    1   0.0029428   0.0013442  -0.0021952  -0.0026611  -0.0001653   0.0088876
    2  -0.0014046   0.0018313   0.0001550   0.0035927  -0.0148856   0.0032353
    3  -0.0006507   0.0004070  -0.0002802   0.0017590  -0.0026035   0.0019362
            7           8           9          10          11          12
    1  -0.0008763  -0.0265784   0.0036256   0.0329258  -0.0271818   0.0011908
    2   0.0028904   0.0390207  -0.0026836  -0.0442011  -0.0059150   0.0269003
    3  -0.0001796   0.0066426  -0.0005924  -0.0096211  -0.0021341   0.0046282
           13          14          15          16          17          18
    1   0.0214411  -0.0004825  -0.0213780   0.0204036   0.0006624  -0.0095790
    2  -0.0064748  -0.0023582  -0.0220445   0.0269165   0.0026004   0.0028214
    3  -0.0005180   0.0000694  -0.0009584   0.0030282   0.0003873   0.0005104
           19          20          21          22          23
    1  -0.0008546   0.0021442   0.0009270  -0.0015532  -0.0029898
    2  -0.0139479   0.0036382  -0.0000590   0.0017732  -0.0014011
    3  -0.0012667  -0.0009181  -0.0000439  -0.0001587   0.0005571
 Max gradient component =       4.420E-02
 RMS gradient           =       1.220E-02
 Gradient time:  CPU 4.28 s  wall 4.28 s
 Geometry Optimization Parameters
   NAtoms,    NIC,     NZ,  NCons,   NDum,   NFix, NCnnct, MaxDiis
       23     166       0       1       0       0       0       0

 Cartesian Hessian Update
 Hessian Updated using BFGS Update


** CONSTRAINED OPTIMIZATION IN DELOCALIZED INTERNAL COORDINATES **
   Searching for a Minimum

   Optimization Cycle:   2

                       Coordinates (Angstroms)
     ATOM                X               Y               Z
      1  H        -0.0965919429   -0.2660874163   -0.0518799618
      2  H         0.7957861708   -2.6768468568   -0.6341941468
      3  C         0.9340515749   -0.5665993991   -0.1501433714
      4  C         1.4263995033   -1.8189920109   -0.4539673114
      5  S         2.1808835610    0.5894006658    0.0818461359
      6  C         2.8293371875   -1.8330968719   -0.5077946364
      7  H         3.4155181368   -2.7075425514   -0.7509962941
      8  C         3.4135905175   -0.5894367073   -0.2433503359
      9  H         4.6648544330    1.7323643091    0.2134591301
     10  C         4.8476018362   -0.4155954430   -0.2088137574
     11  C         5.3148249754    0.8873222879    0.0616861753
     12  S         6.1747943297   -1.4949490948   -0.3928316957
     13  C         6.7060700226    0.9797134718    0.1253487380
     14  H         7.2508165680    1.8865782123    0.3445566681
     15  C         7.3392711752   -0.2454664217   -0.0949148447
     16  C         8.7645212570   -0.3876056992   -0.1202101761
     17  H         8.8528431568   -2.5657006002   -0.0761442487
     18  C         9.3965202254   -1.6338678841   -0.1365321059
     19  S         9.9318550781    0.8901217088   -0.2041835004
     20  C        10.7957277510   -1.5424569110   -0.2057165903
     21  C        11.2289705039   -0.2324020781   -0.2424789051
     22  H        11.4653394715   -2.3894022262   -0.2211653681
     23  H        12.2438945072    0.1279374162   -0.2896095873
   Point Group: c1    Number of degrees of freedom:    63


   Energy is  -1656.403253847

              Constraints and their Current Values
                                        Value     Constraint
   Dihedral:       13  15  16  18      170.000      170.000
 Hessian Updated using BFGS Update

 62 Hessian modes will be used to form the next step
  Hessian Eigenvalues:
     0.044911    0.045000    0.045000    0.045000    0.045000    0.045001
     0.045001    0.045001    0.045002    0.045003    0.045003    0.045006
     0.045009    0.045012    0.045012    0.045013    0.045029    0.045055
     0.045059    0.159061    0.159945    0.159948    0.159989    0.159993
     0.159993    0.160000    0.160320    0.190345    0.221308    0.222026
     0.229810    0.238053    0.239041    0.246415    0.249670    0.249674
     0.283028    0.323820    0.326550    0.327695    0.339185    0.340050
     0.340434    0.365177    0.365513    0.365520    0.366564    0.366889
     0.367356    0.369909    0.370100    0.399451    0.414485    0.434919
     0.435420    0.436729    0.462120    0.463141    0.470263    0.495192
     0.495500    0.574023

 Minimum Search - Taking Simple RFO Step
 Searching for Lamda that Minimizes Along All modes
 Value Taken    Lamda =  -0.02338111
 Calculated Step too Large.  Step scaled by  0.903355
 Step Taken.  Stepsize is  0.300000

                             Maximum     Tolerance    Cnvgd?
         Gradient           0.038886      0.000300      NO
         Displacement       0.141732      0.001200      NO
         Energy change     -0.032020      0.000001      NO


 New Cartesian Coordinates Obtained by Inverse Iteration

 Displacement from previous Coordinates is:  0.992406
 ----------------------------------------------------------------
             Standard Nuclear Orientation (Angstroms)
    I     Atom           X                Y                Z
 ----------------------------------------------------------------
    1      H      -0.0634568802    -0.3766992853    -0.0830201762
    2      H       0.9118403345    -2.7687813388    -0.6510982409
    3      C       0.9823099574    -0.6448159380    -0.1704433614
    4      C       1.5169735422    -1.8893093452    -0.4675158240
    5      S       2.1781025938     0.5694569559     0.0712605739
    6      C       2.9183069280    -1.8640462360    -0.5037323198
    7      H       3.5354262560    -2.7263869881    -0.7330860371
    8      C       3.4525061171    -0.5894685067    -0.2332792847
    9      H       4.6640748473     1.8945718035     0.2482134792
   10      C       4.8283017464    -0.2645824844    -0.1676836563
   11      C       5.3171459445     1.0415661968     0.0950237096
   12      S       6.1277191305    -1.4021049354    -0.3654002877
   13      C       6.6969024526     1.1015991246     0.1408233289
   14      H       7.2581317154     2.0047465306     0.3499378487
   15      C       7.3172132627    -0.1521274302    -0.0835874087
   16      C       8.7129930089    -0.4135708127    -0.1260570453
   17      H       8.7671692170    -2.6081231214    -0.0994821758
   18      C       9.3263017893    -1.6804066358    -0.1530593667
   19      S       9.9171207567     0.8540951231    -0.1987499932
   20      C      10.7265584995    -1.6129267513    -0.2231863948
   21      C      11.1874683370    -0.3058382654    -0.2535838954
   22      H      11.3832449043    -2.4741150717    -0.2463607821
   23      H      12.2145255391     0.0346573118    -0.3039626802
 ----------------------------------------------------------------
 Nuclear Repulsion Energy =  1178.4964619123 hartrees
 There are       64 alpha and       63 beta electrons
 Applying Cartesian multipole field
    Component          Value
    ---------          -----
     (2,0,0)        1.00000E-12
     (0,2,0)        2.00000E-11
     (0,0,2)       -3.00000E-11
 Nucleus-field energy     =     0.0000000338 hartrees
 Requested basis set is 6-31++G(d,p)
 There are 110 shells and 345 basis functions
 A cutoff of  1.0D-12 yielded   4706 shell pairs
 There are     47937 function pairs

 Q-Chem warning in module /project/projectdirs/jcesr/qchem/qc44/cnl_qc441/compile/cori/qc_src/libqints/qchem/aobasis.C, line 68:

 Using reconstructed effective core potential

 Smallest overlap matrix eigenvalue = 5.64E-08
 Linear dependence detected in AO basis
 Number of orthogonalized atomic orbitals = 342
 Maximum deviation from orthogonality = 5.956E-11
 Guess MOs from SCF MO coefficient file
 Reading MOs from coefficient file
 Reading MOs from coefficient file
 An unrestricted hybrid HF-DFT SCF calculation will be
 performed using Pulay DIIS extrapolation
 Exchange:     0.2000 Hartree-Fock + 0.0800 Slater + 0.7200 B88
 Correlation:  0.1900 VWN1RPA + 0.8100 LYP
 Using SG-1 standard quadrature grid
 SCF converges when DIIS error is below 1.0E-08
 Geometry optimization detected.  Setting ReadMinima to 0
 Setting SaveMinima to 0
 ---------------------------------------
  Cycle       Energy         DIIS Error
 ---------------------------------------
    1   -1656.2902709728      2.92E-03
    2   -1656.4099609893      5.65E-04
    3   -1656.3968909457      1.03E-03
    4   -1656.4156786259      1.47E-04
    5   -1656.4160018736      5.13E-05
    6   -1656.4160439159      1.68E-05
    7   -1656.4160482719      8.30E-06
    8   -1656.4160495418      1.79E-06
    9   -1656.4160496702      1.17E-06
   10   -1656.4160497269      4.03E-07
   11   -1656.4160497593      2.19E-07
   12   -1656.4160497759      1.00E-07
   13   -1656.4160497829      5.57E-08
   14   -1656.4160497832      2.84E-08
   15   -1656.4160497838      1.52E-08
   16   -1656.4160497844      8.38E-09 Convergence criterion met
 ---------------------------------------
 <S^2> = 0.7701
 SCF time:  CPU 22.64 s  wall 21.06 s
 SCF   energy in the final basis set = -1656.4160497844
 Total energy in the final basis set = -1656.4160497844
 
 --------------------------------------------------------------
 
                    Orbital Energies (a.u.)
 --------------------------------------------------------------
 
 Alpha MOs
 -- Occupied --
-89.077 -89.066 -89.064 -10.409 -10.408 -10.389 -10.389 -10.378
-10.377 -10.366 -10.365 -10.357 -10.356 -10.345 -10.343  -8.136
 -8.125  -8.124  -6.101  -6.097  -6.093  -6.090  -6.088  -6.086
 -6.084  -6.083  -6.081  -1.066  -1.042  -1.027  -0.944  -0.916
 -0.894  -0.892  -0.884  -0.840  -0.771  -0.748  -0.713  -0.702
 -0.687  -0.678  -0.673  -0.647  -0.605  -0.573  -0.572  -0.569
 -0.557  -0.551  -0.547  -0.545  -0.534  -0.525  -0.519  -0.511
 -0.495  -0.492  -0.455  -0.423  -0.407  -0.404  -0.395  -0.345
 -- Virtual --
 -0.231  -0.177  -0.141  -0.135  -0.130  -0.121  -0.113  -0.101
 -0.099  -0.095  -0.087  -0.083  -0.081  -0.080  -0.076  -0.074
 -0.069  -0.065  -0.063  -0.053  -0.046  -0.041  -0.035  -0.029
 -0.024  -0.023  -0.017  -0.010  -0.006   0.001   0.004   0.004
  0.006   0.013   0.017   0.020   0.022   0.029   0.030   0.033
  0.035   0.038   0.042   0.044   0.047   0.050   0.054   0.055
  0.056   0.060   0.065   0.068   0.070   0.074   0.078   0.079
  0.085   0.088   0.097   0.101   0.103   0.106   0.116   0.120
  0.120   0.123   0.126   0.130   0.133   0.142   0.150   0.152
  0.156   0.158   0.169   0.173   0.178   0.184   0.192   0.198
  0.207   0.209   0.229   0.231   0.236   0.239   0.247   0.255
  0.258   0.261   0.269   0.276   0.315   0.332   0.339   0.372
  0.372   0.381   0.385   0.393   0.436   0.444   0.452   0.455
  0.467   0.472   0.498   0.500   0.507   0.512   0.513   0.515
  0.520   0.524   0.543   0.560   0.569   0.572   0.586   0.587
  0.590   0.594   0.601   0.617   0.620   0.629   0.646   0.651
  0.674   0.681   0.691   0.694   0.697   0.713   0.733   0.746
  0.791   0.796   0.801   0.810   0.817   0.818   0.821   0.827
  0.841   0.843   0.850   0.853   0.869   0.877   0.891   0.899
  0.925   0.930   0.936   0.947   0.963   0.967   0.969   0.982
  1.019   1.029   1.037   1.049   1.063   1.085   1.104   1.114
  1.126   1.140   1.146   1.174   1.188   1.194   1.200   1.207
  1.215   1.219   1.226   1.298   1.308   1.323   1.331   1.353
  1.366   1.417   1.449   1.510   1.517   1.548   1.556   1.573
  1.670   1.693   1.709   1.715   1.740   1.767   1.779   1.785
  1.793   1.799   1.816   1.835   1.873   1.878   1.904   1.915
  1.924   1.952   1.969   2.017   2.030   2.036   2.048   2.058
  2.082   2.090   2.112   2.125   2.150   2.179   2.226   2.229
  2.279   2.286   2.292   2.313   2.317   2.317   2.343   2.366
  2.377   2.389   2.397   2.398   2.426   2.442   2.473   2.483
  2.522   2.549   2.564   2.571   2.583   2.700   2.723   2.732
  2.771   2.776   2.792   2.802   2.985   3.036   3.079   3.139
  3.142   3.175   3.271   3.272   3.533   3.594   3.602   3.825
  3.838   3.845   4.115   4.122   4.163   4.169   4.175   4.182
  4.235   4.324   4.397   4.510   4.554   4.580
 
 Beta MOs
 -- Occupied --
-89.077 -89.066 -89.064 -10.407 -10.405 -10.389 -10.389 -10.375
-10.374 -10.365 -10.364 -10.355 -10.354 -10.345 -10.344  -8.137
 -8.125  -8.124  -6.101  -6.097  -6.093  -6.090  -6.088  -6.086
 -6.084  -6.083  -6.081  -1.062  -1.038  -1.024  -0.939  -0.914
 -0.892  -0.890  -0.880  -0.833  -0.768  -0.745  -0.710  -0.699
 -0.686  -0.676  -0.672  -0.645  -0.603  -0.570  -0.568  -0.563
 -0.555  -0.549  -0.545  -0.537  -0.533  -0.524  -0.510  -0.508
 -0.494  -0.491  -0.436  -0.421  -0.403  -0.400  -0.378
 -- Virtual --
 -0.293  -0.215  -0.166  -0.139  -0.130  -0.123  -0.119  -0.112
 -0.098  -0.095  -0.091  -0.086  -0.081  -0.077  -0.075  -0.073
 -0.070  -0.069  -0.065  -0.063  -0.052  -0.045  -0.040  -0.035
 -0.028  -0.023  -0.022  -0.016  -0.009  -0.006   0.002   0.004
  0.005   0.007   0.013   0.017   0.020   0.023   0.029   0.031
  0.034   0.035   0.038   0.043   0.045   0.048   0.051   0.055
  0.055   0.056   0.062   0.065   0.069   0.071   0.075   0.079
  0.081   0.086   0.089   0.098   0.102   0.104   0.107   0.116
  0.121   0.121   0.123   0.128   0.132   0.135   0.144   0.151
  0.153   0.157   0.158   0.170   0.174   0.178   0.185   0.193
  0.199   0.208   0.211   0.230   0.232   0.239   0.240   0.247
  0.256   0.260   0.262   0.271   0.277   0.317   0.333   0.340
  0.371   0.373   0.382   0.386   0.395   0.437   0.445   0.453
  0.457   0.468   0.473   0.500   0.504   0.511   0.514   0.518
  0.520   0.524   0.530   0.544   0.561   0.570   0.575   0.587
  0.589   0.592   0.594   0.605   0.620   0.626   0.634   0.648
  0.652   0.677   0.685   0.694   0.696   0.699   0.717   0.734
  0.747   0.794   0.798   0.802   0.812   0.818   0.820   0.825
  0.829   0.842   0.844   0.851   0.854   0.871   0.878   0.892
  0.900   0.926   0.931   0.937   0.948   0.964   0.968   0.970
  0.984   1.020   1.032   1.039   1.052   1.067   1.089   1.108
  1.116   1.131   1.145   1.149   1.176   1.191   1.196   1.204
  1.210   1.222   1.225   1.227   1.300   1.313   1.328   1.334
  1.357   1.370   1.420   1.452   1.516   1.524   1.555   1.565
  1.580   1.676   1.695   1.710   1.717   1.742   1.768   1.782
  1.789   1.794   1.803   1.821   1.837   1.876   1.881   1.910
  1.918   1.927   1.955   1.974   2.023   2.036   2.042   2.053
  2.061   2.087   2.094   2.116   2.129   2.158   2.184   2.229
  2.231   2.285   2.289   2.293   2.317   2.319   2.322   2.345
  2.368   2.382   2.392   2.398   2.401   2.429   2.444   2.475
  2.487   2.526   2.550   2.568   2.574   2.585   2.702   2.727
  2.735   2.773   2.779   2.793   2.805   2.985   3.037   3.080
  3.139   3.142   3.175   3.272   3.273   3.534   3.595   3.603
  3.825   3.838   3.845   4.118   4.126   4.166   4.174   4.178
  4.184   4.240   4.328   4.401   4.514   4.557   4.583
 --------------------------------------------------------------
 
          Ground-State Mulliken Net Atomic Charges

     Atom                 Charge (a.u.)    Spin (a.u.)
  --------------------------------------------------------
      1 H                     0.241774      -0.011496
      2 H                     0.162022       0.001698
      3 C                     0.048179       0.225023
      4 C                    -0.226195      -0.041410
      5 S                    -0.033088      -0.023620
      6 C                     0.552342       0.144812
      7 H                     0.150453      -0.009242
      8 C                    -0.160918       0.022208
      9 H                     0.140091      -0.005450
     10 C                    -0.128584       0.177671
     11 C                    -0.106823       0.057668
     12 S                    -0.362183      -0.061634
     13 C                     0.044874       0.042404
     14 H                     0.153406      -0.004170
     15 C                    -0.142621       0.189585
     16 C                    -0.268214       0.019249
     17 H                     0.153817      -0.008911
     18 C                     0.575586       0.139867
     19 S                    -0.004127      -0.021113
     20 C                    -0.244575      -0.039382
     21 C                     0.054054       0.215813
     22 H                     0.160550       0.001662
     23 H                     0.240179      -0.011232
  --------------------------------------------------------
  Sum of atomic charges =     1.000000
  Sum of spin   charges =     1.000000

 -----------------------------------------------------------------
                    Cartesian Multipole Moments
 -----------------------------------------------------------------
    Charge (ESU x 10^10)
                 4.8032
    Dipole Moment (Debye)
         X      29.0584      Y      -2.6886      Z      -0.8328
       Tot      29.1944
    Quadrupole Moments (Debye-Ang)
        XX     158.3232     XY     -14.0715     YY     -86.0849
        XZ      -4.9149     YZ       3.8213     ZZ    -110.3411
    Octopole Moments (Debye-Ang^2)
       XXX     745.6696    XXY     -97.9128    XYY    -526.1601
       YYY      95.6206    XXZ     -32.7097    XYZ      15.3421
       YYZ      12.0471    XZZ    -672.5616    YZZ      44.1728
       ZZZ      57.9422
    Hexadecapole Moments (Debye-Ang^3)
      XXXX   -1638.1957   XXXY    -858.8500   XXYY   -4294.9941
      XYYY     495.8392   YYYY    -841.6081   XXXZ    -268.0725
      XXYZ      68.6799   XYYZ      93.5120   YYYZ     -44.7862
      XXZZ   -5376.7012   XYZZ     239.0353   YYZZ    -199.0499
      XZZZ     352.9433   YZZZ     -78.7356   ZZZZ    -179.1772
 -----------------------------------------------------------------
 Calculating analytic gradient of the SCF energy
 Gradient of SCF Energy
            1           2           3           4           5           6
    1  -0.0000895   0.0001087   0.0021315  -0.0003345   0.0034967   0.0021713
    2   0.0006418  -0.0002591  -0.0010360  -0.0012182  -0.0005014  -0.0027460
    3  -0.0000757  -0.0000186  -0.0002531   0.0001011   0.0004464   0.0003663
            7           8           9          10          11          12
    1   0.0004196  -0.0074053  -0.0008885   0.0112569  -0.0048424  -0.0004710
    2  -0.0001660   0.0168073   0.0010356  -0.0174124   0.0030320   0.0042962
    3  -0.0007470   0.0023890   0.0000119  -0.0039315   0.0003258   0.0001655
           13          14          15          16          17          18
    1   0.0006390  -0.0004756  -0.0083562   0.0061660  -0.0002239  -0.0014749
    2   0.0015892   0.0000654  -0.0088636   0.0110667  -0.0001080  -0.0024373
    3   0.0005033   0.0005373   0.0000058   0.0011022   0.0003728   0.0002118
           19          20          21          22          23
    1  -0.0028513   0.0009324  -0.0003063   0.0001332   0.0002642
    2  -0.0025576  -0.0007730  -0.0007198  -0.0001071   0.0003711
    3  -0.0011169  -0.0002886  -0.0003162  -0.0001425   0.0003511
 Max gradient component =       1.741E-02
 RMS gradient           =       4.198E-03
 Gradient time:  CPU 4.38 s  wall 4.25 s
 Geometry Optimization Parameters
   NAtoms,    NIC,     NZ,  NCons,   NDum,   NFix, NCnnct, MaxDiis
       23     166       0       1       0       0       0       0

 Cartesian Hessian Update
 Hessian Updated using BFGS Update


** CONSTRAINED OPTIMIZATION IN DELOCALIZED INTERNAL COORDINATES **
   Searching for a Minimum

   Optimization Cycle:   3

                       Coordinates (Angstroms)
     ATOM                X               Y               Z
      1  H        -0.0634568802   -0.3766992853   -0.0830201762
      2  H         0.9118403345   -2.7687813388   -0.6510982409
      3  C         0.9823099574   -0.6448159380   -0.1704433614
      4  C         1.5169735422   -1.8893093452   -0.4675158240
      5  S         2.1781025938    0.5694569559    0.0712605739
      6  C         2.9183069280   -1.8640462360   -0.5037323198
      7  H         3.5354262560   -2.7263869881   -0.7330860371
      8  C         3.4525061171   -0.5894685067   -0.2332792847
      9  H         4.6640748473    1.8945718035    0.2482134792
     10  C         4.8283017464   -0.2645824844   -0.1676836563
     11  C         5.3171459445    1.0415661968    0.0950237096
     12  S         6.1277191305   -1.4021049354   -0.3654002877
     13  C         6.6969024526    1.1015991246    0.1408233289
     14  H         7.2581317154    2.0047465306    0.3499378487
     15  C         7.3172132627   -0.1521274302   -0.0835874087
     16  C         8.7129930089   -0.4135708127   -0.1260570453
     17  H         8.7671692170   -2.6081231214   -0.0994821758
     18  C         9.3263017893   -1.6804066358   -0.1530593667
     19  S         9.9171207567    0.8540951231   -0.1987499932
     20  C        10.7265584995   -1.6129267513   -0.2231863948
     21  C        11.1874683370   -0.3058382654   -0.2535838954
     22  H        11.3832449043   -2.4741150717   -0.2463607821
     23  H        12.2145255391    0.0346573118   -0.3039626802
   Point Group: c1    Number of degrees of freedom:    63


   Energy is  -1656.416049784

              Constraints and their Current Values
                                        Value     Constraint
   Dihedral:       13  15  16  18      170.000      170.000
 Hessian Updated using BFGS Update

 61 Hessian modes will be used to form the next step
  Hessian Eigenvalues:
     0.044282    0.045000    0.045000    0.045000    0.045001    0.045001
     0.045001    0.045002    0.045003    0.045004    0.045007    0.045009
     0.045012    0.045012    0.045015    0.045029    0.045056    0.045059
     0.155746    0.159945    0.159963    0.159992    0.159993    0.160000
     0.160048    0.160423    0.171369    0.221310    0.223596    0.229850
     0.238484    0.240284    0.249241    0.249672    0.261441    0.278281
     0.322470    0.326554    0.327910    0.338799    0.340059    0.341708
     0.365513    0.365516    0.365843    0.366889    0.367266    0.367814
     0.370099    0.370882    0.399291    0.422793    0.435388    0.435692
     0.442323    0.463127    0.465272    0.481141    0.495500    0.497178
     0.572749

 Minimum Search - Taking Simple RFO Step
 Searching for Lamda that Minimizes Along All modes
 Value Taken    Lamda =  -0.00308192
 Step Taken.  Stepsize is  0.152694

                             Maximum     Tolerance    Cnvgd?
         Gradient           0.010945      0.000300      NO
         Displacement       0.072292      0.001200      NO
         Energy change     -0.012796      0.000001      NO


 New Cartesian Coordinates Obtained by Inverse Iteration

 Displacement from previous Coordinates is:  0.334960
 ----------------------------------------------------------------
             Standard Nuclear Orientation (Angstroms)
    I     Atom           X                Y                Z
 ----------------------------------------------------------------
    1      H      -0.0899137179    -0.4177248149    -0.1098683507
    2      H       0.9253203281    -2.7940394321    -0.6499420180
    3      C       0.9606995074    -0.6700616055    -0.1847020351
    4      C       1.5192029441    -1.9070275727    -0.4667390582
    5      S       2.1457181364     0.5522848443     0.0571565756
    6      C       2.9218280060    -1.8721668723    -0.4862076213
    7      H       3.5437658180    -2.7348609934    -0.6979068344
    8      C       3.4498926269    -0.5959791023    -0.2190096259
    9      H       4.6889079915     1.9438278037     0.2655114863
   10      C       4.8081974328    -0.2110267874    -0.1430964170
   11      C       5.3293140757     1.0834943951     0.1071739673
   12      S       6.1084839414    -1.3629127791    -0.3533758025
   13      C       6.7113574730     1.1296721302     0.1323978098
   14      H       7.2834963816     2.0292356546     0.3286965333
   15      C       7.3272522748    -0.1254974886    -0.0967804671
   16      C       8.7097589321    -0.4278372353    -0.1432661014
   17      H       8.7640647400    -2.6204977469    -0.1468804218
   18      C       9.3230923705    -1.6918868760    -0.1791377343
   19      S       9.9286313218     0.8416103760    -0.1755380376
   20      C      10.7233149532    -1.6247264294    -0.2299627306
   21      C      11.1940578915    -0.3208272208    -0.2362874689
   22      H      11.3766130480    -2.4881566290    -0.2573743892
   23      H      12.2238235232     0.0124942819    -0.2728912484
 ----------------------------------------------------------------
 Nuclear Repulsion Energy =  1176.6342959240 hartrees
 There are       64 alpha and       63 beta electrons
 Applying Cartesian multipole field
    Component          Value
    ---------          -----
     (2,0,0)        1.00000E-12
     (0,2,0)        2.00000E-11
     (0,0,2)       -3.00000E-11
 Nucleus-field energy     =     0.0000000339 hartrees
 Requested basis set is 6-31++G(d,p)
 There are 110 shells and 345 basis functions
 A cutoff of  1.0D-12 yielded   4700 shell pairs
 There are     47890 function pairs

 Q-Chem warning in module /project/projectdirs/jcesr/qchem/qc44/cnl_qc441/compile/cori/qc_src/libqints/qchem/aobasis.C, line 68:

 Using reconstructed effective core potential

 Smallest overlap matrix eigenvalue = 4.39E-08
 Linear dependence detected in AO basis
 Number of orthogonalized atomic orbitals = 342
 Maximum deviation from orthogonality = 1.338E-10
 Guess MOs from SCF MO coefficient file
 Reading MOs from coefficient file
 Reading MOs from coefficient file
 An unrestricted hybrid HF-DFT SCF calculation will be
 performed using Pulay DIIS extrapolation
 Exchange:     0.2000 Hartree-Fock + 0.0800 Slater + 0.7200 B88
 Correlation:  0.1900 VWN1RPA + 0.8100 LYP
 Using SG-1 standard quadrature grid
 SCF converges when DIIS error is below 1.0E-08
 Geometry optimization detected.  Setting ReadMinima to 0
 Setting SaveMinima to 0
 ---------------------------------------
  Cycle       Energy         DIIS Error
 ---------------------------------------
    1   -1656.3624034897      1.17E-03
    2   -1656.4160783245      2.78E-04
    3   -1656.4127234668      5.12E-04
    4   -1656.4175638905      8.94E-05
    5   -1656.4176891308      2.31E-05
    6   -1656.4176979117      8.31E-06
    7   -1656.4176989673      4.38E-06
    8   -1656.4176993354      9.79E-07
    9   -1656.4176993872      7.99E-07
   10   -1656.4176994166      2.49E-07
   11   -1656.4176994329      1.41E-07
   12   -1656.4176994408      7.39E-08
   13   -1656.4176994431      3.39E-08
   14   -1656.4176994436      1.10E-08
   15   -1656.4176994439      6.13E-09 Convergence criterion met
 ---------------------------------------
 <S^2> = 0.7695
 SCF time:  CPU 20.68 s  wall 19.29 s
 SCF   energy in the final basis set = -1656.4176994439
 Total energy in the final basis set = -1656.4176994439
 
 --------------------------------------------------------------
 
                    Orbital Energies (a.u.)
 --------------------------------------------------------------
 
 Alpha MOs
 -- Occupied --
-89.074 -89.065 -89.064 -10.410 -10.410 -10.391 -10.390 -10.378
-10.378 -10.367 -10.366 -10.358 -10.357 -10.345 -10.344  -8.133
 -8.124  -8.124  -6.098  -6.094  -6.090  -6.088  -6.088  -6.084
 -6.084  -6.081  -6.081  -1.064  -1.041  -1.027  -0.945  -0.915
 -0.893  -0.892  -0.883  -0.842  -0.772  -0.750  -0.713  -0.703
 -0.687  -0.678  -0.673  -0.647  -0.606  -0.573  -0.571  -0.571
 -0.560  -0.551  -0.548  -0.545  -0.536  -0.523  -0.519  -0.508
 -0.492  -0.490  -0.456  -0.422  -0.406  -0.404  -0.396  -0.346
 -- Virtual --
 -0.232  -0.179  -0.140  -0.135  -0.130  -0.121  -0.112  -0.102
 -0.100  -0.095  -0.087  -0.082  -0.080  -0.079  -0.077  -0.075
 -0.069  -0.065  -0.063  -0.053  -0.046  -0.041  -0.035  -0.029
 -0.024  -0.023  -0.017  -0.009  -0.007   0.001   0.003   0.004
  0.006   0.012   0.017   0.020   0.022   0.028   0.029   0.033
  0.034   0.037   0.043   0.045   0.047   0.049   0.054   0.055
  0.056   0.060   0.064   0.068   0.070   0.072   0.080   0.081
  0.086   0.088   0.096   0.101   0.103   0.106   0.113   0.119
  0.120   0.123   0.127   0.129   0.131   0.141   0.151   0.152
  0.155   0.158   0.171   0.172   0.178   0.185   0.193   0.198
  0.207   0.208   0.228   0.231   0.236   0.240   0.249   0.257
  0.261   0.264   0.269   0.279   0.318   0.333   0.346   0.372
  0.373   0.382   0.386   0.392   0.437   0.446   0.452   0.453
  0.467   0.475   0.498   0.501   0.507   0.511   0.512   0.514
  0.519   0.524   0.543   0.560   0.568   0.571   0.585   0.586
  0.589   0.593   0.601   0.617   0.619   0.627   0.647   0.651
  0.674   0.682   0.691   0.694   0.696   0.713   0.732   0.746
  0.790   0.795   0.799   0.811   0.818   0.818   0.821   0.827
  0.843   0.844   0.851   0.852   0.868   0.878   0.892   0.901
  0.920   0.931   0.939   0.947   0.964   0.967   0.970   0.984
  1.014   1.027   1.038   1.048   1.063   1.085   1.101   1.112
  1.124   1.137   1.145   1.174   1.188   1.194   1.199   1.204
  1.214   1.218   1.223   1.311   1.320   1.331   1.342   1.353
  1.368   1.419   1.454   1.512   1.523   1.544   1.558   1.571
  1.667   1.690   1.709   1.713   1.734   1.767   1.770   1.782
  1.789   1.794   1.802   1.833   1.871   1.881   1.898   1.918
  1.923   1.955   1.963   2.019   2.027   2.033   2.045   2.049
  2.078   2.090   2.110   2.125   2.147   2.186   2.227   2.229
  2.283   2.285   2.289   2.308   2.313   2.322   2.342   2.362
  2.378   2.386   2.396   2.399   2.425   2.445   2.469   2.487
  2.522   2.552   2.564   2.572   2.583   2.691   2.725   2.741
  2.785   2.789   2.793   2.804   2.985   3.039   3.081   3.141
  3.142   3.175   3.272   3.273   3.529   3.592   3.602   3.826
  3.837   3.844   4.115   4.126   4.161   4.174   4.177   4.180
  4.237   4.328   4.395   4.510   4.554   4.581
 
 Beta MOs
 -- Occupied --
-89.074 -89.065 -89.064 -10.407 -10.407 -10.390 -10.390 -10.376
-10.375 -10.366 -10.365 -10.356 -10.355 -10.345 -10.345  -8.133
 -8.124  -8.124  -6.098  -6.094  -6.090  -6.088  -6.088  -6.084
 -6.084  -6.081  -6.081  -1.060  -1.038  -1.023  -0.939  -0.913
 -0.891  -0.890  -0.880  -0.835  -0.769  -0.746  -0.710  -0.701
 -0.685  -0.676  -0.672  -0.644  -0.605  -0.570  -0.569  -0.562
 -0.558  -0.550  -0.546  -0.537  -0.534  -0.522  -0.508  -0.507
 -0.491  -0.489  -0.437  -0.419  -0.402  -0.400  -0.379
 -- Virtual --
 -0.294  -0.216  -0.167  -0.138  -0.131  -0.123  -0.119  -0.112
 -0.099  -0.095  -0.092  -0.086  -0.081  -0.077  -0.075  -0.071
 -0.069  -0.069  -0.064  -0.063  -0.052  -0.044  -0.041  -0.035
 -0.028  -0.023  -0.022  -0.016  -0.008  -0.006   0.003   0.004
  0.004   0.007   0.013   0.018   0.020   0.023   0.029   0.030
  0.034   0.035   0.038   0.044   0.045   0.048   0.050   0.055
  0.055   0.056   0.062   0.065   0.069   0.071   0.074   0.081
  0.082   0.087   0.089   0.097   0.103   0.103   0.107   0.114
  0.120   0.121   0.123   0.128   0.131   0.133   0.143   0.151
  0.152   0.157   0.158   0.171   0.173   0.179   0.185   0.195
  0.200   0.209   0.209   0.230   0.233   0.238   0.241   0.250
  0.257   0.262   0.265   0.271   0.280   0.319   0.334   0.346
  0.372   0.373   0.383   0.387   0.393   0.438   0.447   0.453
  0.454   0.468   0.477   0.500   0.504   0.512   0.513   0.517
  0.519   0.523   0.531   0.544   0.561   0.569   0.574   0.587
  0.588   0.591   0.593   0.605   0.620   0.625   0.632   0.648
  0.652   0.677   0.686   0.695   0.696   0.698   0.717   0.733
  0.746   0.794   0.796   0.800   0.813   0.819   0.821   0.824
  0.829   0.844   0.845   0.851   0.854   0.870   0.878   0.893
  0.902   0.921   0.933   0.940   0.948   0.965   0.968   0.970
  0.985   1.016   1.030   1.040   1.051   1.067   1.088   1.105
  1.114   1.129   1.144   1.148   1.176   1.192   1.196   1.203
  1.207   1.220   1.223   1.225   1.315   1.325   1.335   1.346
  1.356   1.371   1.421   1.456   1.517   1.530   1.551   1.567
  1.578   1.672   1.692   1.710   1.717   1.737   1.768   1.775
  1.784   1.793   1.796   1.806   1.835   1.875   1.885   1.904
  1.921   1.926   1.958   1.968   2.025   2.033   2.040   2.048
  2.053   2.084   2.094   2.114   2.130   2.155   2.190   2.229
  2.231   2.286   2.288   2.295   2.309   2.318   2.327   2.343
  2.364   2.383   2.387   2.399   2.402   2.428   2.448   2.472
  2.491   2.525   2.553   2.568   2.576   2.584   2.693   2.728
  2.744   2.787   2.793   2.794   2.806   2.986   3.040   3.082
  3.141   3.143   3.175   3.273   3.274   3.530   3.593   3.604
  3.826   3.837   3.845   4.119   4.130   4.164   4.176   4.182
  4.182   4.242   4.331   4.399   4.514   4.556   4.584
 --------------------------------------------------------------
 
          Ground-State Mulliken Net Atomic Charges

     Atom                 Charge (a.u.)    Spin (a.u.)
  --------------------------------------------------------
      1 H                     0.242327      -0.011244
      2 H                     0.162346       0.001485
      3 C                     0.062439       0.219349
      4 C                    -0.230467      -0.037191
      5 S                    -0.034040      -0.020246
      6 C                     0.604228       0.138736
      7 H                     0.152675      -0.008904
      8 C                    -0.238183       0.023542
      9 H                     0.146699      -0.005241
     10 C                    -0.136788       0.179979
     11 C                    -0.027755       0.054707
     12 S                    -0.434563      -0.063609
     13 C                     0.056200       0.049886
     14 H                     0.153899      -0.004704
     15 C                    -0.171323       0.183940
     16 C                    -0.284656       0.022534
     17 H                     0.157631      -0.008638
     18 C                     0.625512       0.135515
     19 S                    -0.011551      -0.018491
     20 C                    -0.256061      -0.035957
     21 C                     0.060232       0.214270
     22 H                     0.160741       0.001445
     23 H                     0.240457      -0.011164
  --------------------------------------------------------
  Sum of atomic charges =     1.000000
  Sum of spin   charges =     1.000000

 -----------------------------------------------------------------
                    Cartesian Multipole Moments
 -----------------------------------------------------------------
    Charge (ESU x 10^10)
                 4.8032
    Dipole Moment (Debye)
         X      29.1461      Y      -2.6804      Z      -0.8202
       Tot      29.2806
    Quadrupole Moments (Debye-Ang)
        XX     160.2381     XY     -13.9250     YY     -86.0299
        XZ      -4.6501     YZ       3.8387     ZZ    -110.4661
    Octopole Moments (Debye-Ang^2)
       XXX     772.3880    XXY     -99.4422    XYY    -525.1309
       YYY      94.7821    XXZ     -30.2824    XYZ      16.1387
       YYZ      11.7964    XZZ    -672.6500    YZZ      43.9869
       ZZZ      57.2812
    Hexadecapole Moments (Debye-Ang^3)
      XXXX   -1323.8228   XXXY    -899.6011   XXYY   -4289.3508
      XYYY     488.1509   YYYY    -841.4194   XXXZ    -241.7025
      XXYZ      79.0818   XYYZ      89.8383   YYYZ     -44.6240
      XXZZ   -5379.2966   XYZZ     236.4239   YYZZ    -199.7561
      XZZZ     345.5823   YZZZ     -79.3947   ZZZZ    -177.1651
 -----------------------------------------------------------------
 Calculating analytic gradient of the SCF energy
 Gradient of SCF Energy
            1           2           3           4           5           6
    1  -0.0002933  -0.0002559  -0.0015390  -0.0004561   0.0019780   0.0002478
    2   0.0003089   0.0002294  -0.0011008   0.0004602  -0.0018029  -0.0013078
    3  -0.0000434   0.0001002   0.0000325   0.0001161  -0.0002150   0.0003155
            7           8           9          10          11          12
    1   0.0002902   0.0012606  -0.0008254  -0.0003611   0.0008348  -0.0016231
    2   0.0002631   0.0037241  -0.0002585  -0.0037775   0.0016701   0.0026105
    3  -0.0004289   0.0001206  -0.0002693  -0.0008711   0.0002141  -0.0000040
           13          14          15          16          17          18
    1  -0.0012347   0.0003638   0.0016624   0.0002214  -0.0001493   0.0001738
    2   0.0008062  -0.0002967  -0.0012532   0.0019083  -0.0000092  -0.0011576
    3   0.0005215   0.0004164   0.0001283   0.0000398   0.0003912   0.0003221
           19          20          21          22          23
    1  -0.0015633  -0.0001991   0.0011808   0.0001226   0.0001641
    2  -0.0011813   0.0004871  -0.0007542   0.0001414   0.0002903
    3  -0.0005224  -0.0000050  -0.0004980  -0.0000683   0.0002074
 Max gradient component =       3.777E-03
 RMS gradient           =       1.060E-03
 Gradient time:  CPU 4.32 s  wall 4.24 s
 Geometry Optimization Parameters
   NAtoms,    NIC,     NZ,  NCons,   NDum,   NFix, NCnnct, MaxDiis
       23     166       0       1       0       0       0       0

 Cartesian Hessian Update
 Hessian Updated using BFGS Update


** CONSTRAINED OPTIMIZATION IN DELOCALIZED INTERNAL COORDINATES **
   Searching for a Minimum

   Optimization Cycle:   4

                       Coordinates (Angstroms)
     ATOM                X               Y               Z
      1  H        -0.0899137179   -0.4177248149   -0.1098683507
      2  H         0.9253203281   -2.7940394321   -0.6499420180
      3  C         0.9606995074   -0.6700616055   -0.1847020351
      4  C         1.5192029441   -1.9070275727   -0.4667390582
      5  S         2.1457181364    0.5522848443    0.0571565756
      6  C         2.9218280060   -1.8721668723   -0.4862076213
      7  H         3.5437658180   -2.7348609934   -0.6979068344
      8  C         3.4498926269   -0.5959791023   -0.2190096259
      9  H         4.6889079915    1.9438278037    0.2655114863
     10  C         4.8081974328   -0.2110267874   -0.1430964170
     11  C         5.3293140757    1.0834943951    0.1071739673
     12  S         6.1084839414   -1.3629127791   -0.3533758025
     13  C         6.7113574730    1.1296721302    0.1323978098
     14  H         7.2834963816    2.0292356546    0.3286965333
     15  C         7.3272522748   -0.1254974886   -0.0967804671
     16  C         8.7097589321   -0.4278372353   -0.1432661014
     17  H         8.7640647400   -2.6204977469   -0.1468804218
     18  C         9.3230923705   -1.6918868760   -0.1791377343
     19  S         9.9286313218    0.8416103760   -0.1755380376
     20  C        10.7233149532   -1.6247264294   -0.2299627306
     21  C        11.1940578915   -0.3208272208   -0.2362874689
     22  H        11.3766130480   -2.4881566290   -0.2573743892
     23  H        12.2238235232    0.0124942819   -0.2728912484
   Point Group: c1    Number of degrees of freedom:    63


   Energy is  -1656.417699444

              Constraints and their Current Values
                                        Value     Constraint
   Dihedral:       13  15  16  18      170.000      170.000
 Hessian Updated using BFGS Update

 62 Hessian modes will be used to form the next step
  Hessian Eigenvalues:
     0.039134    0.045000    0.045000    0.045000    0.045000    0.045001
     0.045001    0.045002    0.045002    0.045003    0.045007    0.045008
     0.045011    0.045012    0.045013    0.045024    0.045044    0.045058
     0.045093    0.155630    0.159948    0.159972    0.159991    0.159998
     0.160004    0.160349    0.162184    0.172143    0.221329    0.223767
     0.229523    0.238442    0.241441    0.249671    0.250575    0.266403
     0.284182    0.321504    0.326580    0.327596    0.339383    0.340195
     0.341323    0.365512    0.365528    0.365832    0.366889    0.367256
     0.367879    0.370111    0.370675    0.399319    0.419410    0.435482
     0.435698    0.445110    0.463306    0.464236    0.478888    0.495502
     0.497821    0.576742

 Minimum Search - Taking Simple RFO Step
 Searching for Lamda that Minimizes Along All modes
 Value Taken    Lamda =  -0.00025675
 Step Taken.  Stepsize is  0.063595

                             Maximum     Tolerance    Cnvgd?
         Gradient           0.001954      0.000300      NO
         Displacement       0.033910      0.001200      NO
         Energy change     -0.001650      0.000001      NO


 New Cartesian Coordinates Obtained by Inverse Iteration

 Displacement from previous Coordinates is:  0.157681
 ----------------------------------------------------------------
             Standard Nuclear Orientation (Angstroms)
    I     Atom           X                Y                Z
 ----------------------------------------------------------------
    1      H      -0.0889196114    -0.4140547340    -0.1195995592
    2      H       0.9242471240    -2.7944048983    -0.6417944682
    3      C       0.9616984282    -0.6657948999    -0.1886219167
    4      C       1.5177289391    -1.9065048611    -0.4608986312
    5      S       2.1436521654     0.5575189324     0.0531822654
    6      C       2.9187607175    -1.8753812689    -0.4733791894
    7      H       3.5374952132    -2.7428720265    -0.6742105674
[...]
      2 H                     0.162282       0.001435
      3 C                     0.061365       0.217717
      4 C                    -0.232021      -0.035474
      5 S                    -0.022949      -0.018513
      6 C                     0.598514       0.136125
      7 H                     0.152452      -0.008784
      8 C                    -0.226057       0.024335
      9 H                     0.145448      -0.005160
     10 C                    -0.129582       0.181105
     11 C                    -0.047567       0.052242
     12 S                    -0.433728      -0.063257
     13 C                     0.018554       0.051516
     14 H                     0.149749      -0.004981
     15 C                    -0.144504       0.181397
     16 C                    -0.261662       0.024564
     17 H                     0.155826      -0.008673
     18 C                     0.616509       0.133832
     19 S                    -0.004656      -0.017754
     20 C                    -0.252600      -0.034728
     21 C                     0.051843       0.214102
     22 H                     0.161159       0.001425
     23 H                     0.239833      -0.011235
  --------------------------------------------------------
  Sum of atomic charges =     1.000000
  Sum of spin   charges =     1.000000

 -----------------------------------------------------------------
                    Cartesian Multipole Moments
 -----------------------------------------------------------------
    Charge (ESU x 10^10)
                 4.8032
    Dipole Moment (Debye)
         X      29.1685      Y      -2.6736      Z      -0.7811
       Tot      29.3012
    Quadrupole Moments (Debye-Ang)
        XX     160.6020     XY     -13.9054     YY     -85.9108
        XZ      -4.0043     YZ       3.9431     ZZ    -110.5884
    Octopole Moments (Debye-Ang^2)
       XXX     777.3762    XXY     -99.3208    XYY    -524.7477
       YYY      94.2437    XXZ     -19.7398    XYZ      18.5220
       YYZ      11.6954    XZZ    -673.2183    YZZ      44.0464
       ZZZ      57.8195
    Hexadecapole Moments (Debye-Ang^3)
      XXXX   -1268.9986   XXXY    -900.8841   XXYY   -4288.9291
      XYYY     486.2575   YYYY    -841.4164   XXXZ     -88.3767
      XXYZ     104.7785   XYYZ      82.5953   YYYZ     -46.2000
      XXZZ   -5385.5289   XYZZ     234.9592   YYZZ    -200.3633
      XZZZ     340.8145   YZZZ     -81.8865   ZZZZ    -175.0938
 -----------------------------------------------------------------
 Calculating analytic gradient of the SCF energy
 Gradient of SCF Energy
            1           2           3           4           5           6
    1   0.0000021  -0.0000020  -0.0000384   0.0000278   0.0000626  -0.0000210
    2  -0.0000014  -0.0000025  -0.0000425   0.0000096  -0.0000427  -0.0000485
    3   0.0000112  -0.0000185  -0.0000173   0.0000073   0.0000266  -0.0000722
            7           8           9          10          11          12
    1   0.0000101  -0.0000216  -0.0000283   0.0000283   0.0000603  -0.0000485
    2   0.0000026   0.0000917  -0.0000209  -0.0001179   0.0000652   0.0000657
    3  -0.0000001   0.0000604   0.0000192  -0.0000233  -0.0000255   0.0000550
           13          14          15          16          17          18
    1  -0.0000950   0.0000076   0.0000847  -0.0000363   0.0000022   0.0000445
    2  -0.0002278  -0.0000022   0.0003553  -0.0000144   0.0000084  -0.0000821
    3   0.0013060  -0.0000195  -0.0012645  -0.0013319  -0.0000250   0.0013054
           19          20          21          22          23
    1  -0.0000568  -0.0000243   0.0000383   0.0000069  -0.0000034
    2  -0.0000350   0.0000197  -0.0000095   0.0000113   0.0000181
    3   0.0000158   0.0000010  -0.0000035  -0.0000112   0.0000048
 Max gradient component =       1.332E-03
 RMS gradient           =       3.199E-04
 Gradient time:  CPU 4.34 s  wall 4.23 s
 Geometry Optimization Parameters
   NAtoms,    NIC,     NZ,  NCons,   NDum,   NFix, NCnnct, MaxDiis
       23     166       0       1       0       0       0       0

 Cartesian Hessian Update
 Hessian Updated using BFGS Update


** CONSTRAINED OPTIMIZATION IN DELOCALIZED INTERNAL COORDINATES **
   Searching for a Minimum

   Optimization Cycle:  10

                       Coordinates (Angstroms)
     ATOM                X               Y               Z
      1  H        -0.0903350875   -0.4049398934   -0.1310721520
      2  H         0.9181847101   -2.7963327130   -0.6056615301
      3  C         0.9602251291   -0.6596842011   -0.1913925077
      4  C         1.5132610981   -1.9069177058   -0.4384262304
      5  S         2.1443183138    0.5638549848    0.0342163590
      6  C         2.9151483993   -1.8795946609   -0.4455730005
      7  H         3.5319766381   -2.7542257544   -0.6200565693
      8  C         3.4470343086   -0.6027380697   -0.2031098360
      9  H         4.7018790586    1.9385743511    0.2830693363
     10  C         4.8068341063   -0.2151450977   -0.1415954457
     11  C         5.3322564885    1.0755774572    0.1022472434
     12  S         6.1077427730   -1.3706105645   -0.3828339344
     13  C         6.7145808129    1.1240633042    0.0965288551
     14  H         7.2849534556    2.0284262343    0.2746998056
     15  C         7.3264241378   -0.1266968974   -0.1527022153
     16  C         8.7096113937   -0.4266503124   -0.1917088063
     17  H         8.7691780067   -2.6159213635   -0.2888691531
     18  C         9.3262243259   -1.6865702885   -0.2474613636
     19  S         9.9300804185    0.8455145212   -0.1120654496
     20  C        10.7268614007   -1.6193271056   -0.2308091948
     21  C        11.1944051906   -0.3159262797   -0.1606356016
     22  H        11.3807920402   -2.4820437599   -0.2640645103
     23  H        12.2252428811    0.0147037147   -0.1407540886
   Point Group: c1    Number of degrees of freedom:    63


   Energy is  -1656.417967083

              Constraints and their Current Values
                                        Value     Constraint
   Dihedral:       13  15  16  18      170.000      170.000
 Hessian Updated using BFGS Update

 62 Hessian modes will be used to form the next step
  Hessian Eigenvalues:
     0.007984    0.015662    0.044935    0.045000    0.045000    0.045000
     0.045001    0.045002    0.045002    0.045003    0.045004    0.045010
     0.045011    0.045013    0.045022    0.045032    0.045048    0.045061
     0.046348    0.155823    0.159946    0.159998    0.160001    0.160129
     0.160322    0.160669    0.162804    0.172083    0.221621    0.224646
     0.230053    0.242415    0.245847    0.249821    0.250832    0.273687
     0.289893    0.324442    0.326879    0.329787    0.340070    0.341776
     0.343012    0.365532    0.365548    0.366065    0.366894    0.367421
     0.367907    0.370137    0.371440    0.401980    0.425561    0.435830
     0.439169    0.463342    0.464238    0.472774    0.483553    0.495979
     0.501061    0.605537

 Minimum Search - Taking Simple RFO Step
 Searching for Lamda that Minimizes Along All modes
 Value Taken    Lamda =   0.00000000
 Step Taken.  Stepsize is  0.008367

                             Maximum     Tolerance    Cnvgd?
         Gradient           0.000074      0.000300     YES
         Displacement       0.005551      0.001200      NO
         Energy change     -0.000001      0.000001     YES

 Final energy is   -1656.41796708273     


 ******************************
 **  OPTIMIZATION CONVERGED  **
 ******************************

                       Coordinates (Angstroms)
     ATOM                X               Y               Z
      1  H        -0.0903350875   -0.4049398934   -0.1310721520
      2  H         0.9181847101   -2.7963327130   -0.6056615301
      3  C         0.9602251291   -0.6596842011   -0.1913925077
      4  C         1.5132610981   -1.9069177058   -0.4384262304
      5  S         2.1443183138    0.5638549848    0.0342163590
      6  C         2.9151483993   -1.8795946609   -0.4455730005
      7  H         3.5319766381   -2.7542257544   -0.6200565693
      8  C         3.4470343086   -0.6027380697   -0.2031098360
      9  H         4.7018790586    1.9385743511    0.2830693363
     10  C         4.8068341063   -0.2151450977   -0.1415954457
     11  C         5.3322564885    1.0755774572    0.1022472434
     12  S         6.1077427730   -1.3706105645   -0.3828339344
     13  C         6.7145808129    1.1240633042    0.0965288551
     14  H         7.2849534556    2.0284262343    0.2746998056
     15  C         7.3264241378   -0.1266968974   -0.1527022153
     16  C         8.7096113937   -0.4266503124   -0.1917088063
     17  H         8.7691780067   -2.6159213635   -0.2888691531
     18  C         9.3262243259   -1.6865702885   -0.2474613636
     19  S         9.9300804185    0.8455145212   -0.1120654496
     20  C        10.7268614007   -1.6193271056   -0.2308091948
     21  C        11.1944051906   -0.3159262797   -0.1606356016
     22  H        11.3807920402   -2.4820437599   -0.2640645103
     23  H        12.2252428811    0.0147037147   -0.1407540886

Z-matrix Print:
$molecule
1 2
S 
C  1 1.756549
C  2 1.414521 1 110.435998
H  3 1.083947 2 122.621696 1 179.519845 0
C  3 1.383186 2 113.703764 1 0.076928 0
H  5 1.083899 3 123.641938 2 179.589825 0
C  5 1.414741 3 113.730055 2 0.030301 0
C  7 1.415298 5 127.891771 3 -179.928709 0
C  8 1.404298 7 128.346408 5 179.930636 0
H  9 1.084390 8 123.072802 7 0.092610 0
C  9 1.402172 8 113.298198 7 -179.926246 0
H  11 1.083117 9 124.368541 8 179.978863 0
C  11 1.386530 9 112.467661 8 -0.029889 0
H  13 1.082686 11 127.488718 9 -179.899375 0
C  2 1.415874 1 121.610568 3 178.471662 0
C  15 1.403823 2 128.339960 1 -8.184152 0
H  16 1.084301 15 123.031575 2 1.344317 0
C  16 1.402349 15 113.278169 2 -178.065796 0
H  18 1.083056 16 124.366580 15 179.826532 0
C  18 1.386497 16 112.487263 15 0.087135 0
H  20 1.082745 18 127.519877 16 -179.563190 0
S  20 1.717504 18 112.886346 16 0.070645 0
S  13 1.717563 11 112.906408 9 0.049654 0
$end

 
 --------------------------------------------------------------
 
                    Orbital Energies (a.u.)
 --------------------------------------------------------------
 
 Alpha MOs
 -- Occupied --
-89.074 -89.065 -89.065 -10.410 -10.410 -10.391 -10.390 -10.378
-10.378 -10.366 -10.366 -10.358 -10.357 -10.345 -10.344  -8.133
 -8.124  -8.124  -6.097  -6.094  -6.089  -6.088  -6.088  -6.084
 -6.084  -6.081  -6.081  -1.064  -1.041  -1.026  -0.944  -0.915
 -0.893  -0.892  -0.883  -0.842  -0.772  -0.749  -0.713  -0.703
 -0.687  -0.678  -0.674  -0.646  -0.606  -0.572  -0.571  -0.571
 -0.560  -0.551  -0.548  -0.545  -0.536  -0.523  -0.519  -0.509
 -0.492  -0.490  -0.456  -0.422  -0.406  -0.404  -0.395  -0.346
 -- Virtual --
 -0.232  -0.179  -0.140  -0.135  -0.131  -0.122  -0.113  -0.102
 -0.100  -0.095  -0.087  -0.082  -0.079  -0.078  -0.077  -0.076
 -0.069  -0.064  -0.063  -0.053  -0.045  -0.041  -0.034  -0.030
 -0.024  -0.023  -0.017  -0.008  -0.008   0.001   0.003   0.003
  0.006   0.012   0.018   0.020   0.024   0.028   0.029   0.033
  0.034   0.037   0.044   0.045   0.047   0.048   0.054   0.055
  0.056   0.061   0.064   0.068   0.071   0.073   0.081   0.082
  0.086   0.088   0.094   0.101   0.102   0.106   0.113   0.119
  0.120   0.124   0.127   0.129   0.131   0.140   0.151   0.151
  0.156   0.158   0.172   0.173   0.178   0.186   0.194   0.203
  0.208   0.208   0.229   0.231   0.236   0.241   0.250   0.258
  0.262   0.264   0.270   0.284   0.322   0.336   0.347   0.372
  0.374   0.382   0.385   0.392   0.438   0.447   0.454   0.454
  0.468   0.482   0.501   0.504   0.506   0.511   0.511   0.513
  0.518   0.524   0.543   0.564   0.570   0.571   0.585   0.587
  0.589   0.592   0.600   0.616   0.620   0.625   0.649   0.650
  0.672   0.682   0.690   0.695   0.695   0.714   0.732   0.746
  0.790   0.795   0.799   0.812   0.817   0.819   0.820   0.828
  0.843   0.845   0.851   0.853   0.868   0.879   0.891   0.904
  0.920   0.932   0.943   0.948   0.964   0.967   0.970   0.985
  1.014   1.026   1.039   1.048   1.061   1.091   1.103   1.112
  1.127   1.139   1.150   1.176   1.187   1.196   1.198   1.201
  1.214   1.216   1.227   1.320   1.324   1.328   1.336   1.351
  1.367   1.418   1.457   1.516   1.523   1.540   1.558   1.567
  1.667   1.691   1.709   1.711   1.736   1.768   1.770   1.784
  1.792   1.795   1.799   1.835   1.872   1.883   1.900   1.919
  1.924   1.957   1.962   2.022   2.027   2.032   2.047   2.051
  2.078   2.089   2.112   2.121   2.148   2.186   2.228   2.229
  2.284   2.285   2.291   2.308   2.315   2.322   2.342   2.362
  2.378   2.386   2.397   2.399   2.427   2.444   2.469   2.488
  2.522   2.554   2.565   2.573   2.585   2.692   2.726   2.743
  2.785   2.792   2.795   2.805   2.987   3.040   3.083   3.141
  3.142   3.177   3.273   3.273   3.528   3.592   3.604   3.826
  3.836   3.844   4.116   4.128   4.162   4.174   4.180   4.180
  4.237   4.327   4.395   4.512   4.554   4.582
 
 Beta MOs
 -- Occupied --
-89.074 -89.065 -89.065 -10.407 -10.407 -10.390 -10.390 -10.375
-10.375 -10.366 -10.365 -10.356 -10.355 -10.345 -10.345  -8.133
 -8.124  -8.124  -6.098  -6.094  -6.090  -6.088  -6.088  -6.084
 -6.084  -6.081  -6.081  -1.059  -1.038  -1.023  -0.939  -0.913
 -0.891  -0.890  -0.880  -0.835  -0.769  -0.746  -0.710  -0.700
 -0.685  -0.676  -0.672  -0.644  -0.604  -0.570  -0.569  -0.562
 -0.558  -0.549  -0.546  -0.536  -0.534  -0.522  -0.508  -0.508
 -0.491  -0.489  -0.438  -0.419  -0.402  -0.400  -0.379
 -- Virtual --
 -0.293  -0.216  -0.167  -0.139  -0.131  -0.123  -0.120  -0.112
 -0.099  -0.095  -0.092  -0.086  -0.081  -0.077  -0.075  -0.070
 -0.069  -0.069  -0.064  -0.063  -0.052  -0.044  -0.041  -0.034
 -0.029  -0.023  -0.022  -0.016  -0.008  -0.007   0.003   0.004
  0.004   0.006   0.013   0.018   0.021   0.025   0.029   0.029
  0.034   0.035   0.038   0.045   0.046   0.048   0.049   0.054
  0.055   0.057   0.063   0.064   0.069   0.071   0.074   0.082
  0.083   0.087   0.089   0.095   0.103   0.103   0.107   0.114
  0.120   0.121   0.124   0.128   0.131   0.133   0.142   0.152
  0.152   0.157   0.159   0.172   0.174   0.179   0.187   0.196
  0.205   0.209   0.210   0.231   0.233   0.238   0.242   0.250
  0.259   0.263   0.265   0.271   0.285   0.323   0.337   0.348
  0.372   0.374   0.383   0.386   0.394   0.439   0.448   0.455
  0.455   0.469   0.483   0.504   0.506   0.511   0.513   0.516
  0.518   0.523   0.531   0.543   0.565   0.571   0.574   0.587
  0.589   0.590   0.593   0.603   0.622   0.624   0.630   0.650
  0.652   0.675   0.686   0.695   0.696   0.697   0.718   0.733
  0.746   0.794   0.796   0.800   0.814   0.819   0.821   0.824
  0.830   0.844   0.845   0.852   0.854   0.870   0.880   0.892
  0.905   0.921   0.933   0.943   0.949   0.964   0.967   0.971
  0.986   1.015   1.029   1.041   1.052   1.065   1.093   1.108
  1.115   1.131   1.145   1.152   1.177   1.191   1.198   1.202
  1.204   1.220   1.221   1.230   1.324   1.329   1.333   1.340
  1.353   1.370   1.421   1.460   1.523   1.530   1.545   1.567
  1.575   1.673   1.693   1.710   1.715   1.739   1.769   1.775
  1.786   1.796   1.797   1.803   1.837   1.876   1.887   1.905
  1.922   1.927   1.959   1.968   2.028   2.033   2.038   2.051
  2.055   2.083   2.094   2.116   2.126   2.155   2.191   2.230
  2.231   2.287   2.288   2.296   2.310   2.320   2.327   2.343
  2.364   2.382   2.387   2.400   2.402   2.430   2.447   2.472
  2.491   2.526   2.555   2.568   2.577   2.586   2.694   2.729
  2.746   2.788   2.795   2.797   2.807   2.988   3.041   3.084
  3.142   3.142   3.177   3.274   3.274   3.530   3.594   3.605
  3.826   3.836   3.845   4.120   4.132   4.166   4.176   4.182
  4.185   4.241   4.331   4.400   4.515   4.557   4.585
 --------------------------------------------------------------
 
          Ground-State Mulliken Net Atomic Charges

     Atom                 Charge (a.u.)    Spin (a.u.)
  --------------------------------------------------------
      1 H                     0.241794      -0.011235
      2 H                     0.162282       0.001435
      3 C                     0.061365       0.217717
      4 C                    -0.232021      -0.035474
      5 S                    -0.022949      -0.018513
      6 C                     0.598514       0.136125
      7 H                     0.152452      -0.008784
      8 C                    -0.226057       0.024335
      9 H                     0.145448      -0.005160
     10 C                    -0.129582       0.181105
     11 C                    -0.047567       0.052242
     12 S                    -0.433728      -0.063257
     13 C                     0.018554       0.051516
     14 H                     0.149749      -0.004981
     15 C                    -0.144504       0.181397
     16 C                    -0.261662       0.024564
     17 H                     0.155826      -0.008673
     18 C                     0.616509       0.133832
     19 S                    -0.004656      -0.017754
     20 C                    -0.252600      -0.034728
     21 C                     0.051843       0.214102
     22 H                     0.161159       0.001425
     23 H                     0.239833      -0.011235
  --------------------------------------------------------
  Sum of atomic charges =     1.000000
  Sum of spin   charges =     1.000000

 -----------------------------------------------------------------
                    Cartesian Multipole Moments
 -----------------------------------------------------------------
    Charge (ESU x 10^10)
                 4.8032
    Dipole Moment (Debye)
         X      29.1685      Y      -2.6736      Z      -0.7811
       Tot      29.3012
    Quadrupole Moments (Debye-Ang)
        XX     160.6020     XY     -13.9054     YY     -85.9108
        XZ      -4.0043     YZ       3.9431     ZZ    -110.5884
    Octopole Moments (Debye-Ang^2)
       XXX     777.3762    XXY     -99.3208    XYY    -524.7477
       YYY      94.2437    XXZ     -19.7398    XYZ      18.5220
       YYZ      11.6954    XZZ    -673.2183    YZZ      44.0464
       ZZZ      57.8195
    Hexadecapole Moments (Debye-Ang^3)
      XXXX   -1268.9986   XXXY    -900.8841   XXYY   -4288.9291
      XYYY     486.2575   YYYY    -841.4164   XXXZ     -88.3767
      XXYZ     104.7785   XYYZ      82.5953   YYYZ     -46.2000
      XXZZ   -5385.5289   XYZZ     234.9592   YYZZ    -200.3633
      XZZZ     340.8145   YZZZ     -81.8865   ZZZZ    -175.0938
 -----------------------------------------------------------------
Archival summary:
1\1\nid00490\OPT\ProcedureUnspecified\BasisUnspecified\3128(1+,2)\bwood\TueMay3011:02:282017TueMay3011:02:282017\0\\#,OPT,ProcedureUnspecified,BasisUnspecified,\\1,2\S\C,1,1.75655\C,2,1.41452,1,110.436\H,3,1.08395,2,122.622,1,179.52,0\C,3,1.38319,2,113.704,1,0.0769281,0\H,5,1.0839,3,123.642,2,179.59,0\C,5,1.41474,3,113.73,2,0.0303009,0\C,7,1.4153,5,127.892,3,-179.929,0\C,8,1.4043,7,128.346,5,179.931,0\H,9,1.08439,8,123.073,7,0.0926098,0\C,9,1.40217,8,113.298,7,-179.926,0\H,11,1.08312,9,124.369,8,179.979,0\C,11,1.38653,9,112.468,8,-0.0298894,0\H,13,1.08269,11,127.489,9,-179.899,0\C,2,1.41587,1,121.611,3,178.472,0\C,15,1.40382,2,128.34,1,-8.18415,0\H,16,1.0843,15,123.032,2,1.34432,0\C,16,1.40235,15,113.278,2,-178.066,0\H,18,1.08306,16,124.367,15,179.827,0\C,18,1.3865,16,112.487,15,0.0871351,0\H,20,1.08275,18,127.52,16,-179.563,0\S,20,1.7175,18,112.886,16,0.0706449,0\S,13,1.71756,11,112.906,9,0.0496544,0\\\@

 Total job time:  219.57s(wall), 232.59s(cpu) 
 Tue May 30 11:02:28 2017

        *************************************************************
        *                                                           *
        *  Thank you very much for using Q-Chem.  Have a nice day.  *
        *                                                           *
        *************************************************************


0 sent ACK to 0 
now end server 0 ... 
