srun -N 1 --ntasks-per-node 22 --cpus-per-task 2 --cpu_bind=cores --nodelist nid00473 /global/project/projectdirs/jcesr/qchem/qc44/cnl_qc441/dist/exe/qcprog.cori.haswell.exe .pt_nn_cation_130.0.in.32772.qcin.1 /dev/shm/eg_qchem/qchem32772/
Process 1 of 22 is on nid00473 - thread support 0
Process 2 of 22 is on nid00473 - thread support 0
Process 3 of 22 is on nid00473 - thread support 0
Process 4 of 22 is on nid00473 - thread support 0
Process 5 of 22 is on nid00473 - thread support 0
Process 6 of 22 is on nid00473 - thread support 0
Process 21 of 22 is on nid00473 - thread support 0
Process 0 of 22 is on nid00473 - thread support 0
initial socket setup ...start
initial socket setup ...done 
now start server 0 ... 
nid00473 10.128.1
Q-Chem Developer Version! Running on 10.128.1.*
                  Welcome to Q-Chem
     A Quantum Leap Into The Future Of Chemistry


 Q-Chem 4.4, Q-Chem, Inc., Pleasanton, CA (2016)

 Y. Shao,  Z. Gan,  E. Epifanovsky,  A. T. B. Gilbert,  M. Wormit,  
 J. Kussmann,  A. W. Lange,  A. Behn,  J. Deng,  X. Feng,  D. Ghosh,  
 M. Goldey,  P. R. Horn,  L. D. Jacobson,  I. Kaliman,  F. Rob,  
 R. Z. Khaliullin,  T. Kus,  A. Landau,  J. Liu,  E. I. Proynov,  Y. M. Rhee,  
 R. M. Richard,  M. A. Rohrdanz,  R. P. Steele,  E. J. Sundstrom,  
 H. L. Woodcock III,  P. M. Zimmerman,  D. Zuev,  B. Albrecht,  E. Alguire,  
 B. Austin,  S. A. Baeppler,  G. J. O. Beran,  Y. A. Bernard,  
 E. J. Berquist,  K. Brandhorst,  K. B. Bravaya,  S. T. Brown,  D. Casanova,  
 C.-M. Chang,  Y. Chen,  S. H. Chien,  K. D. Closser,  M. P. Coons,  
 D. L. Crittenden,  S. Dasgupta,  M. Diedenhofen,  R. A. DiStasio Jr.,  
 H. Do,  A. D. Dutoi,  R. G. Edgar,  P.-T. Fang,  S. Fatehi,  Q. Feng,  
 L. Fusti-Molnar,  A. Ghysels,  A. Golubeva-Zadorozhnaya,  J. Gomes,  
 A. Gunina,  M. W. D. Hanson-Heine,  P. H. P. Harbach,  A. W. Hauser,  
 J. E. Herr,  E. G. Hohenstein,  Z. C. Holden,  K. Hui,  T.-C. Jagau,  H. Ji,  
 B. Kaduk,  K. Khistyaev,  Jaehoon Kim,  Jihan Kim,  R. A. King,  
 P. Klunzinger,  K. Koh,  D. Kosenkov,  T. Kowalczyk,  C. M. Krauter,  
 A. Kunitsa,  K. U. Lao,  A. Laurent,  K. V. Lawler,  J. Lee,  D. Lefrancois,  
 S. Lehtola,  S. V. Levchenko,  C. Y. Lin,  Y.-S. Lin,  F. Liu,  E. Livshits,  
 R. C. Lochan,  A. Luenser,  P. Manohar,  S. F. Manzer,  S.-P. Mao,  Y. Mao,  
 N. Mardirossian,  A. V. Marenich,  L. A. Martinez-Martinez,  S. A. Maurer,  
 N. J. Mayhall,  J.-M. Mewes,  A. F. Morrison,  K. Nanda,  T. S. Nguyen-Beck,  
 C. M. Oana,  R. Olivares-Amaya,  D. P. O'Neill,  J. A. Parkhill,  
 T. M. Perrine,  R. Peverati,  P. A. Pieniazek,  F. Plasser,  A. Prociuk,  
 D. R. Rehn,  E. Rosta,  N. J. Russ,  N. Sergueev,  S. M. Sharada,  
 S. Sharma,  D. W. Small,  A. Sodt,  T. Stauch,  T. Stein,  D. Stuck,  
 Y.-C. Su,  A. J. W. Thom,  T. Tsuchimochi,  L. Vogt,  O. Vydrov,  T. Wang,  
 M. A. Watson,  J. Wenzel,  A. White,  C. F. Williams,  V. Vanovschi,  
 K. Yao,  S. Yeganeh,  S. R. Yost,  Z.-Q. You,  I. Y. Zhang,  X. Zhang,  
 Y. Zhao,  B. R. Brooks,  G. K. L. Chan,  D. M. Chipman,  C. J. Cramer,  
 W. A. Goddard III,  M. S. Gordon,  W. J. Hehre,  A. Klamt,  
 H. F. Schaefer III,  M. W. Schmidt,  C. D. Sherrill,  D. G. Truhlar,  
 A. Warshel,  X. Xu,  A. Aspuru-Guzik,  R. Baer,  A. T. Bell,  N. A. Besley,  
 J.-D. Chai,  A. Dreuw,  B. D. Dunietz,  T. R. Furlani,  S. R. Gwaltney,  
 C.-P. Hsu,  Y. Jung,  J. Kong,  D. S. Lambrecht,  W. Liang,  C. Ochsenfeld,  
 V. A. Rassolov,  L. V. Slipchenko,  J. E. Subotnik,  T. Van Voorhis,  
 J. M. Herbert,  A. I. Krylov,  P. M. W. Gill,  M. Head-Gordon

 Contributors to earlier versions of Q-Chem not listed above: 
 R. D. Adamson,  J. Baker,  E. F. C. Byrd,  A. K. Chakraborty,  C.-L. Cheng,  
 H. Dachsel,  R. J. Doerksen,  G. Hawkins,  A. Heyden,  S. Hirata,  
 G. Kedziora,  F. J. Keil,  C. Kelley,  P. P. Korambath,  W. Kurlancheek,  
 A. M. Lee,  M. S. Lee,  D. Liotard,  I. Lotan,  P. E. Maslen,  N. Nair,  
 D. Neuhauser,  R. Olson,  B. Peters,  J. Ritchie,  N. E. Schultz,  
 N. Shenvi,  A. C. Simmonett,  K. S. Thanthiriwatte,  Q. Wu,  W. Zhang

 Please cite Q-Chem as follows:
 Y. Shao et al., Mol. Phys. 113, 184-215 (2015)
 DOI: 10.1080/00268976.2014.952696

 Q-Chem 4.4.2 for Intel X86 EM64T Linux

 Parts of Q-Chem use Armadillo 5.200.1 (Boston Tea Smuggler).
 http://arma.sourceforge.net/

 Q-Chem begins on Tue May 30 10:58:44 2017  

Host: nid00444
0

     Scratch files written to /dev/shm/eg_qchem/qchem32772.0//
 Parallel job on  22  processors

Checking the input file for inconsistencies... 	...done.

--------------------------------------------------------------
User input:
--------------------------------------------------------------
$molecule
 1  2
 H           0.00000000        0.00000000        0.00000000
 H           0.66366000       -2.46828000       -0.59127000
 C           0.99103000       -0.39106000       -0.11652000
 C           1.36812000       -1.67442000       -0.42485000
 S           2.34669000        0.62586000        0.08638000
 C           2.76167000       -1.82175000       -0.50822000
 H           3.26291000       -2.73877000       -0.76199000
 C           3.44671000       -0.65043000       -0.26057000
 H           4.55645000        1.43902671        0.15704385
 C           4.88382000       -0.65043000       -0.26057000
 C           5.26091000        0.64090194        0.01245390
 S           6.23948000       -1.67253113       -0.43550939
 C           6.65446000        0.79046248        0.09175311
 H           7.15570000        1.71409653        0.32028213
 C           7.33950000       -0.38720773       -0.12368600
 C           8.77661000       -0.38720773       -0.12368600
 H           8.96041000       -2.00325295        1.29087480
 C           9.46165000       -1.30923573        0.63998035
 S           9.87663000        0.58161267       -1.02406199
 C          10.85520000       -1.21753180        0.49768806
 C          11.23229000       -0.22450257       -0.37177871
 H          11.55966000       -1.84309651        1.01399970
 H          12.22332000        0.06760131       -0.65670101
$end


$rem
         jobtype = opt
        exchange = b3lyp
           basis = 6-31++g**
  max_scf_cycles = 150
      mem_static = 281
       mem_total = 2818
      sym_ignore = true
        symmetry = false
          thresh = 12
$end


$opt
CONSTRAINT
tors 13 15 16 18 130.0
ENDCONSTRAINT
$end

--------------------------------------------------------------
 ----------------------------------------------------------------
             Standard Nuclear Orientation (Angstroms)
    I     Atom           X                Y                Z
 ----------------------------------------------------------------
    1      H       0.0000000000     0.0000000000     0.0000000000
    2      H       0.6636600000    -2.4682800000    -0.5912700000
    3      C       0.9910300000    -0.3910600000    -0.1165200000
    4      C       1.3681200000    -1.6744200000    -0.4248500000
    5      S       2.3466900000     0.6258600000     0.0863800000
    6      C       2.7616700000    -1.8217500000    -0.5082200000
    7      H       3.2629100000    -2.7387700000    -0.7619900000
    8      C       3.4467100000    -0.6504300000    -0.2605700000
    9      H       4.5564500000     1.4390267100     0.1570438500
   10      C       4.8838200000    -0.6504300000    -0.2605700000
   11      C       5.2609100000     0.6409019400     0.0124539000
   12      S       6.2394800000    -1.6725311300    -0.4355093900
   13      C       6.6544600000     0.7904624800     0.0917531100
   14      H       7.1557000000     1.7140965300     0.3202821300
   15      C       7.3395000000    -0.3872077300    -0.1236860000
   16      C       8.7766100000    -0.3872077300    -0.1236860000
   17      H       8.9604100000    -2.0032529500     1.2908748000
   18      C       9.4616500000    -1.3092357300     0.6399803500
   19      S       9.8766300000     0.5816126700    -1.0240619900
   20      C      10.8552000000    -1.2175318000     0.4976880600
   21      C      11.2322900000    -0.2245025700    -0.3717787100
   22      H      11.5596600000    -1.8430965100     1.0139997000
   23      H      12.2233200000     0.0676013100    -0.6567010100
 ----------------------------------------------------------------
 Nuclear Repulsion Energy =  1185.2764372997 hartrees
 There are       64 alpha and       63 beta electrons
 Requested basis set is 6-31++G(d,p)
 There are 110 shells and 345 basis functions

 Total QAlloc Memory Limit   2818 MB
 Mega-Array Size       275 MB
 MEM_STATIC part       281 MB
 A cutoff of  1.0D-12 yielded   4721 shell pairs
 There are     48100 function pairs

 Q-Chem warning in module /project/projectdirs/jcesr/qchem/qc44/cnl_qc441/compile/cori/qc_src/libqints/qchem/aobasis.C, line 68:

 Using reconstructed effective core potential

 
 -------------------------------------------------------
 OpenMP Integral Computing Module                       
 Release: version 1.0, May 2013, Q-Chem Inc. Pittsburgh 
 -------------------------------------------------------
 Integral Job Info:
 Integral job number is                      11
 Integral operator is                         1
 short-range coefficients                     0
 long-range coefficients              100000000
 Omega coefficients                           0
 if combine SR and LR in K                    0
 Integral screening is                        0
 Integral computing path is                   2
 max size of driver memory is            800000
 size of driver memory is                593474
 size of scratch memory is             15166112
 max col of scratch BK array               1296
 max len of scratch array in speh3          155
 max len of scratch index in speh4           18
 max int batch size is                      520
 min int batch size is                       52
 fixed nKL is                                52
 max L of basis functions is                  2
 order of int derivative is                   0
 number of shells is                        110
 number of basis is                         345
 number of cartesian basis is               345
 number of contracted shell pairs          4721
 number of primitive shell pairs          14793
 maxK2 (contraction) of shell pair           36
 max number of K2 of shell pair               1
 max number of CS2 of shell pair            510
 max number of PS2 of shell pair           3054
 mem total for path MDJ                  100872
 -------------------------------------------------------
 Smallest overlap matrix eigenvalue = 1.04E-07
 Linear dependence detected in AO basis
 Number of orthogonalized atomic orbitals = 342
 Maximum deviation from orthogonality = 3.718E-11

 Scale SEOQF with 1.000000e-02/1.000000e-01/1.000000e-01

 Standard Electronic Orientation quadrupole field applied
 Nucleus-field energy     =     0.0000000296 hartrees
 Guess from superposition of atomic densities
 Warning:  Energy on first SCF cycle will be non-variational
 An unrestricted hybrid HF-DFT SCF calculation will be
 performed using Pulay DIIS extrapolation
 Exchange:     0.2000 Hartree-Fock + 0.0800 Slater + 0.7200 B88
 Correlation:  0.1900 VWN1RPA + 0.8100 LYP
 Using SG-1 standard quadrature grid
 SCF converges when DIIS error is below 1.0E-08
 Inaccurate integrated density:
   Number of electrons =   127
   Numerical integral  =   127.999781673447
   Relative error      =     0.7872296641 %
 ---------------------------------------
  Cycle       Energy         DIIS Error
 ---------------------------------------
    1   -1660.7218693473      3.84E-02
    2   -1656.1403902211      3.65E-03
    3   -1655.7568388554      5.84E-03
    4   -1656.3375719055      1.18E-03
    5   -1656.3563927519      5.65E-04
    6   -1656.3614772843      2.00E-04
    7   -1656.3621150858      9.01E-05
    8   -1656.3622871237      2.56E-05
    9   -1656.3623121942      7.85E-06
   10   -1656.3623250705      4.08E-06
   11   -1656.3623323852      3.41E-06
   12   -1656.3623361380      1.39E-06
   13   -1656.3623375638      8.82E-07
   14   -1656.3623377035      3.21E-07
   15   -1656.3623377599      7.86E-08
   16   -1656.3623377642      6.74E-08
   17   -1656.3623377654      3.22E-08
   18   -1656.3623377651      2.20E-08
   19   -1656.3623377655      1.21E-08
   20   -1656.3623377641      5.97E-09 Convergence criterion met
 ---------------------------------------
 <S^2> = 0.7632
 SCF time:  CPU 27.20 s  wall 25.53 s
 SCF   energy in the final basis set = -1656.3623377641
 Total energy in the final basis set = -1656.3623377641
 
 --------------------------------------------------------------
 
                    Orbital Energies (a.u.)
 --------------------------------------------------------------
 
 Alpha MOs
 -- Occupied --
-89.088 -89.073 -89.057 -10.406 -10.406 -10.398 -10.384 -10.375
-10.361 -10.361 -10.356 -10.355 -10.348 -10.339 -10.329  -8.147
 -8.133  -8.117  -6.111  -6.107  -6.103  -6.097  -6.093  -6.090
 -6.081  -6.077  -6.074  -1.082  -1.054  -1.034  -0.957  -0.916
 -0.901  -0.896  -0.882  -0.849  -0.774  -0.749  -0.712  -0.698
 -0.691  -0.686  -0.676  -0.654  -0.608  -0.583  -0.582  -0.573
 -0.563  -0.554  -0.551  -0.539  -0.527  -0.525  -0.522  -0.508
 -0.496  -0.485  -0.452  -0.424  -0.411  -0.396  -0.392  -0.362
 -- Virtual --
 -0.219  -0.171  -0.149  -0.142  -0.123  -0.115  -0.113  -0.105
 -0.097  -0.096  -0.094  -0.086  -0.083  -0.078  -0.076  -0.072
 -0.069  -0.063  -0.058  -0.055  -0.049  -0.044  -0.038  -0.035
 -0.025  -0.021  -0.017  -0.013  -0.004  -0.001   0.002   0.006
  0.008   0.011   0.016   0.019   0.023   0.026   0.029   0.031
  0.036   0.038   0.042   0.042   0.045   0.049   0.052   0.054
  0.055   0.058   0.062   0.065   0.068   0.070   0.078   0.081
  0.086   0.095   0.099   0.102   0.106   0.110   0.114   0.119
  0.120   0.124   0.128   0.133   0.134   0.140   0.151   0.158
  0.160   0.163   0.168   0.171   0.173   0.178   0.188   0.197
  0.204   0.210   0.222   0.229   0.234   0.237   0.249   0.252
  0.257   0.263   0.273   0.285   0.304   0.334   0.348   0.358
  0.371   0.379   0.382   0.407   0.418   0.431   0.462   0.465
  0.485   0.490   0.496   0.503   0.508   0.510   0.513   0.516
  0.529   0.546   0.554   0.571   0.577   0.578   0.591   0.597
  0.600   0.605   0.613   0.624   0.644   0.651   0.654   0.655
  0.664   0.667   0.673   0.675   0.700   0.701   0.743   0.753
  0.792   0.798   0.802   0.808   0.814   0.824   0.831   0.838
  0.844   0.852   0.856   0.869   0.881   0.884   0.900   0.904
  0.913   0.918   0.933   0.944   0.948   0.966   0.971   0.981
  0.993   1.019   1.039   1.047   1.048   1.072   1.093   1.108
  1.138   1.152   1.161   1.183   1.185   1.202   1.211   1.213
  1.221   1.225   1.247   1.270   1.272   1.293   1.317   1.330
  1.378   1.394   1.451   1.483   1.498   1.554   1.570   1.632
  1.669   1.700   1.718   1.741   1.760   1.775   1.787   1.793
  1.813   1.843   1.848   1.863   1.879   1.886   1.911   1.943
  1.948   1.969   1.983   2.027   2.040   2.050   2.061   2.082
  2.092   2.134   2.142   2.154   2.186   2.192   2.230   2.250
  2.278   2.306   2.316   2.328   2.331   2.337   2.366   2.385
  2.389   2.393   2.413   2.442   2.450   2.467   2.474   2.515
  2.535   2.549   2.572   2.579   2.613   2.683   2.690   2.715
  2.752   2.778   2.803   2.820   3.024   3.059   3.088   3.156
  3.172   3.201   3.291   3.307   3.559   3.621   3.635   3.821
  3.849   3.849   4.099   4.147   4.165   4.175   4.183   4.205
  4.239   4.331   4.407   4.505   4.562   4.578
 
 Beta MOs
 -- Occupied --
-89.088 -89.073 -89.057 -10.403 -10.402 -10.397 -10.381 -10.375
-10.359 -10.359 -10.354 -10.354 -10.348 -10.338 -10.329  -8.147
 -8.133  -8.117  -6.112  -6.108  -6.104  -6.098  -6.094  -6.090
 -6.081  -6.077  -6.074  -1.077  -1.050  -1.031  -0.951  -0.914
 -0.897  -0.893  -0.880  -0.842  -0.770  -0.746  -0.709  -0.695
 -0.689  -0.684  -0.674  -0.652  -0.606  -0.580  -0.572  -0.571
 -0.561  -0.552  -0.543  -0.537  -0.524  -0.521  -0.516  -0.505
 -0.495  -0.484  -0.432  -0.421  -0.408  -0.393  -0.375
 -- Virtual --
 -0.309  -0.204  -0.162  -0.141  -0.139  -0.118  -0.114  -0.108
 -0.103  -0.095  -0.091  -0.087  -0.084  -0.081  -0.077  -0.075
 -0.071  -0.068  -0.063  -0.057  -0.053  -0.047  -0.043  -0.038
 -0.035  -0.024  -0.020  -0.016  -0.012  -0.003  -0.000   0.002
  0.007   0.008   0.012   0.016   0.020   0.024   0.026   0.030
  0.031   0.036   0.039   0.042   0.043   0.045   0.051   0.053
  0.054   0.056   0.059   0.062   0.066   0.069   0.071   0.079
  0.082   0.087   0.095   0.100   0.103   0.107   0.111   0.115
  0.120   0.121   0.125   0.128   0.134   0.134   0.141   0.152
  0.159   0.161   0.164   0.169   0.173   0.174   0.179   0.189
  0.198   0.206   0.212   0.224   0.229   0.236   0.238   0.250
  0.254   0.258   0.264   0.275   0.287   0.305   0.335   0.350
  0.359   0.372   0.381   0.382   0.408   0.419   0.432   0.463
  0.466   0.487   0.495   0.497   0.504   0.510   0.514   0.517
  0.524   0.532   0.548   0.557   0.573   0.578   0.583   0.593
  0.599   0.605   0.606   0.613   0.626   0.646   0.653   0.657
  0.658   0.665   0.670   0.676   0.679   0.703   0.706   0.745
  0.755   0.793   0.801   0.803   0.810   0.816   0.827   0.833
  0.840   0.846   0.853   0.857   0.870   0.882   0.885   0.902
  0.906   0.914   0.919   0.934   0.945   0.949   0.968   0.972
  0.982   0.995   1.021   1.041   1.050   1.051   1.075   1.097
  1.111   1.141   1.158   1.164   1.186   1.188   1.207   1.215
  1.219   1.224   1.227   1.248   1.272   1.278   1.297   1.320
  1.334   1.381   1.399   1.454   1.489   1.502   1.564   1.576
  1.638   1.671   1.703   1.720   1.746   1.762   1.777   1.789
  1.795   1.817   1.847   1.850   1.868   1.883   1.889   1.915
  1.946   1.951   1.975   1.988   2.034   2.045   2.059   2.065
  2.087   2.097   2.138   2.148   2.157   2.191   2.196   2.233
  2.252   2.284   2.309   2.318   2.333   2.334   2.341   2.368
  2.388   2.393   2.397   2.414   2.446   2.453   2.470   2.476
  2.517   2.538   2.552   2.576   2.581   2.615   2.687   2.694
  2.716   2.753   2.780   2.805   2.822   3.025   3.060   3.089
  3.157   3.172   3.201   3.292   3.307   3.560   3.622   3.635
  3.821   3.849   3.850   4.103   4.151   4.169   4.178   4.186
  4.207   4.244   4.335   4.412   4.508   4.565   4.581
 --------------------------------------------------------------
 
          Ground-State Mulliken Net Atomic Charges

     Atom                 Charge (a.u.)    Spin (a.u.)
  --------------------------------------------------------
      1 H                     0.251297      -0.012599
      2 H                     0.157691       0.001197
      3 C                     0.097918       0.255687
      4 C                    -0.393862      -0.040179
      5 S                    -0.098223      -0.035199
      6 C                     0.575973       0.145687
      7 H                     0.143321      -0.009053
      8 C                     0.112497       0.068209
      9 H                     0.069532      -0.007169
     10 C                    -0.158013       0.157841
     11 C                    -0.472414       0.097306
     12 S                     0.225313      -0.047876
     13 C                    -0.029608       0.008874
     14 H                     0.169125      -0.000866
     15 C                    -0.044545       0.209754
     16 C                    -0.119763       0.041306
     17 H                     0.152125      -0.005697
     18 C                     0.119373       0.072184
     19 S                     0.169314      -0.018565
     20 C                    -0.325922      -0.016586
     21 C                     0.013993       0.141158
     22 H                     0.152416       0.001043
     23 H                     0.232463      -0.006457
  --------------------------------------------------------
  Sum of atomic charges =     1.000000
  Sum of spin   charges =     1.000000

 -----------------------------------------------------------------
                    Cartesian Multipole Moments
 -----------------------------------------------------------------
    Charge (ESU x 10^10)
                 4.8032
    Dipole Moment (Debye)
         X      27.4436      Y      -2.6987      Z      -0.4684
       Tot      27.5799
    Quadrupole Moments (Debye-Ang)
        XX     139.1629     XY     -13.1710     YY     -91.4781
        XZ      -1.1081     YZ       0.0017     ZZ    -106.6097
    Octopole Moments (Debye-Ang^2)
       XXX     531.1589    XXY     -65.9903    XYY    -577.4017
       YYY     120.5226    XXZ       9.9346    XYZ     -23.4116
       YYZ      21.3978    XZZ    -642.1823    YZZ      45.5135
       ZZZ      66.8186
    Hexadecapole Moments (Debye-Ang^3)
      XXXX   -4072.1196   XXXY    -359.8005   XXYY   -4789.7491
      XYYY     707.6609   YYYY    -774.1925   XXXZ     199.7411
      XXYZ    -318.9249   XYYZ     183.2870   YYYZ      -8.4675
      XXZZ   -5110.6092   XYZZ     243.6508   YYZZ    -182.1665
      XZZZ     426.3190   YZZZ     -26.7279   ZZZZ    -286.6676
 -----------------------------------------------------------------
 Calculating analytic gradient of the SCF energy
 Gradient of SCF Energy
            1           2           3           4           5           6
    1   0.0069794   0.0045307  -0.0049678  -0.0020131   0.0032377   0.0261990
    2  -0.0034258   0.0049084   0.0001126   0.0142347  -0.0277337   0.0127278
    3  -0.0012425   0.0009271  -0.0002939   0.0044357  -0.0058100   0.0041385
            7           8           9          10          11          12
    1  -0.0015174  -0.0231971  -0.0020150   0.0466942  -0.0621196   0.0005358
    2   0.0061403   0.0609187  -0.0058313  -0.0452504  -0.0336161   0.0419565
    3   0.0005195   0.0113899  -0.0017222  -0.0101876  -0.0089945   0.0059186
           13          14          15          16          17          18
    1   0.0295238  -0.0031571  -0.0131794   0.0113192   0.0017783  -0.0133244
    2  -0.0210195  -0.0049649  -0.0333812   0.0336549   0.0050052   0.0112760
    3   0.0027964  -0.0005120   0.0061151  -0.0083613  -0.0034111  -0.0002338
           19          20          21          22          23
    1   0.0046878  -0.0033354   0.0043976  -0.0042725  -0.0067848
    2  -0.0230731   0.0034276   0.0024066   0.0033483  -0.0018216
    3   0.0141221  -0.0068583  -0.0021251  -0.0039454   0.0033349
 Max gradient component =       6.212E-02
 RMS gradient           =       1.826E-02
 Gradient time:  CPU 4.29 s  wall 4.22 s
 Geometry Optimization Parameters
   NAtoms,    NIC,     NZ,  NCons,   NDum,   NFix, NCnnct, MaxDiis
       23     166       0       1       0       0       0       0


** CONSTRAINED OPTIMIZATION IN DELOCALIZED INTERNAL COORDINATES **
   Searching for a Minimum

   Optimization Cycle:   1

                       Coordinates (Angstroms)
     ATOM                X               Y               Z
      1  H         0.0000000000    0.0000000000    0.0000000000
      2  H         0.6636600000   -2.4682800000   -0.5912700000
      3  C         0.9910300000   -0.3910600000   -0.1165200000
      4  C         1.3681200000   -1.6744200000   -0.4248500000
      5  S         2.3466900000    0.6258600000    0.0863800000
      6  C         2.7616700000   -1.8217500000   -0.5082200000
      7  H         3.2629100000   -2.7387700000   -0.7619900000
      8  C         3.4467100000   -0.6504300000   -0.2605700000
      9  H         4.5564500000    1.4390267100    0.1570438500
     10  C         4.8838200000   -0.6504300000   -0.2605700000
     11  C         5.2609100000    0.6409019400    0.0124539000
     12  S         6.2394800000   -1.6725311300   -0.4355093900
     13  C         6.6544600000    0.7904624800    0.0917531100
     14  H         7.1557000000    1.7140965300    0.3202821300
     15  C         7.3395000000   -0.3872077300   -0.1236860000
     16  C         8.7766100000   -0.3872077300   -0.1236860000
     17  H         8.9604100000   -2.0032529500    1.2908748000
     18  C         9.4616500000   -1.3092357300    0.6399803500
     19  S         9.8766300000    0.5816126700   -1.0240619900
     20  C        10.8552000000   -1.2175318000    0.4976880600
     21  C        11.2322900000   -0.2245025700   -0.3717787100
     22  H        11.5596600000   -1.8430965100    1.0139997000
     23  H        12.2233200000    0.0676013100   -0.6567010100
   Point Group: c1    Number of degrees of freedom:    63


   Energy is  -1656.362337764

              Constraints and their Current Values
                                        Value     Constraint
   Dihedral:       13  15  16  18      130.000      130.000

 Attempting to Generate Delocalized Internal Coordinates

 62 Hessian modes will be used to form the next step
  Hessian Eigenvalues:
     0.045000    0.045000    0.045000    0.045000    0.045000    0.045000
     0.045001    0.045001    0.045001    0.045002    0.045003    0.045003
     0.045011    0.045012    0.045012    0.045025    0.045032    0.045058
     0.045059    0.159944    0.159945    0.159945    0.159992    0.159993
     0.159993    0.160000    0.160000    0.221307    0.221308    0.227041
     0.237995    0.238010    0.245411    0.249662    0.249670    0.249670
     0.249825    0.326317    0.326319    0.326962    0.340043    0.340044
     0.340629    0.365512    0.365512    0.365513    0.366888    0.366889
     0.366889    0.370099    0.370100    0.399845    0.399845    0.435419
     0.435419    0.435422    0.463117    0.463122    0.464282    0.495500
     0.495500    0.495533

 Minimum Search - Taking Simple RFO Step
 Searching for Lamda that Minimizes Along All modes
 Value Taken    Lamda =  -0.06717222
 Calculated Step too Large.  Step scaled by  0.671709
 Step Taken.  Stepsize is  0.300000

                             Maximum     Tolerance    Cnvgd?
         Gradient           0.075608      0.000300      NO
         Displacement       0.133567      0.001200      NO
         Energy change     *********      0.000001      NO


 New Cartesian Coordinates Obtained by Inverse Iteration

 Displacement from previous Coordinates is:  1.650992
 ----------------------------------------------------------------
             Standard Nuclear Orientation (Angstroms)
    I     Atom           X                Y                Z
 ----------------------------------------------------------------
    1      H      -0.1004615065    -0.2597377129    -0.0595846477
    2      H       0.7909793305    -2.6758083944    -0.6251120373
    3      C       0.9302791320    -0.5613346903    -0.1542224813
    4      C       1.4220540916    -1.8173543242    -0.4494163874
    5      S       2.1766786144     0.5960215415     0.0729801446
    6      C       2.8238699769    -1.8330670907    -0.5007199446
    7      H       3.4098858817    -2.7093985327    -0.7372361983
    8      C       3.4087122548    -0.5869168552    -0.2424699585
    9      H       4.6569632323     1.7361383173     0.2037504618
   10      C       4.8420916806    -0.4145422884    -0.2066757975
   11      C       5.3078437025     0.8908386587     0.0564138622
   12      S       6.1711161020    -1.4936021822    -0.3818614455
   13      C       6.7008455415     0.9847810222     0.1199050292
   14      H       7.2484728419     1.8906233539     0.3354723185
   15      C       7.3322383979    -0.2405574219    -0.0901616037
   16      C       8.7662604737    -0.3850196686    -0.1011855597
   17      H       8.9029753040    -2.0273111948     1.3185630930
   18      C       9.4236770459    -1.3577527927     0.6492572030
   19      S       9.8958921410     0.5322653813    -1.0393607834
   20      C      10.8190487277    -1.3425172586     0.4698473536
   21      C      11.2186974821    -0.3669046473    -0.4186200178
   22      H      11.5076179081    -2.0081633814     0.9685311732
   23      H      12.2211416435    -0.1308243484    -0.7370509765
 ----------------------------------------------------------------
 Nuclear Repulsion Energy =  1175.9001310571 hartrees
 There are       64 alpha and       63 beta electrons
 Applying Cartesian multipole field
    Component          Value
    ---------          -----
     (2,0,0)        1.00000E-12
     (0,2,0)        2.00000E-11
     (0,0,2)       -3.00000E-11
 Nucleus-field energy     =     0.0000000297 hartrees
 Requested basis set is 6-31++G(d,p)
 There are 110 shells and 345 basis functions
 A cutoff of  1.0D-12 yielded   4703 shell pairs
 There are     47940 function pairs

 Q-Chem warning in module /project/projectdirs/jcesr/qchem/qc44/cnl_qc441/compile/cori/qc_src/libqints/qchem/aobasis.C, line 68:

 Using reconstructed effective core potential

 Smallest overlap matrix eigenvalue = 8.71E-08
 Linear dependence detected in AO basis
 Number of orthogonalized atomic orbitals = 342
 Maximum deviation from orthogonality = 4.473E-11
 Guess MOs from SCF MO coefficient file
 Reading MOs from coefficient file
 Reading MOs from coefficient file
 An unrestricted hybrid HF-DFT SCF calculation will be
 performed using Pulay DIIS extrapolation
 Exchange:     0.2000 Hartree-Fock + 0.0800 Slater + 0.7200 B88
 Correlation:  0.1900 VWN1RPA + 0.8100 LYP
 Using SG-1 standard quadrature grid
 SCF converges when DIIS error is below 1.0E-08
 Geometry optimization detected.  Setting ReadMinima to 0
 Setting SaveMinima to 0
 Inaccurate integrated density:
   Number of electrons =   127
   Numerical integral  =   126.839111865262
   Relative error      =    -0.1266835707 %
 ---------------------------------------
  Cycle       Energy         DIIS Error
 ---------------------------------------
    1   -1656.1576503247      4.41E-03
    2   -1656.3744636606      1.03E-03
    3   -1656.3299483055      1.89E-03
    4   -1656.3927744588      2.50E-04
    5   -1656.3936984240      8.59E-05
    6   -1656.3938070409      3.82E-05
    7   -1656.3938288093      1.64E-05
    8   -1656.3938333039      4.86E-06
    9   -1656.3938337915      2.11E-06
   10   -1656.3938339513      9.15E-07
   11   -1656.3938340152      4.91E-07
   12   -1656.3938340358      1.79E-07
   13   -1656.3938340436      1.09E-07
   14   -1656.3938340465      4.23E-08
   15   -1656.3938340478      2.25E-08
   16   -1656.3938340478      9.90E-09 Convergence criterion met
 ---------------------------------------
 <S^2> = 0.7646
 SCF time:  CPU 22.76 s  wall 21.04 s
 SCF   energy in the final basis set = -1656.3938340478
 Total energy in the final basis set = -1656.3938340478
 
 --------------------------------------------------------------
 
                    Orbital Energies (a.u.)
 --------------------------------------------------------------
 
 Alpha MOs
 -- Occupied --
-89.084 -89.073 -89.058 -10.411 -10.408 -10.399 -10.385 -10.378
-10.365 -10.363 -10.360 -10.359 -10.349 -10.343 -10.332  -8.143
 -8.132  -8.117  -6.107  -6.103  -6.099  -6.097  -6.093  -6.089
 -6.082  -6.078  -6.074  -1.071  -1.047  -1.028  -0.946  -0.913
 -0.897  -0.892  -0.882  -0.844  -0.770  -0.745  -0.712  -0.699
 -0.689  -0.683  -0.671  -0.651  -0.607  -0.576  -0.574  -0.571
 -0.559  -0.553  -0.548  -0.538  -0.530  -0.524  -0.521  -0.510
 -0.497  -0.487  -0.448  -0.422  -0.411  -0.396  -0.391  -0.359
 -- Virtual --
 -0.223  -0.173  -0.151  -0.139  -0.126  -0.118  -0.113  -0.103
 -0.099  -0.095  -0.093  -0.085  -0.083  -0.079  -0.076  -0.072
 -0.069  -0.063  -0.058  -0.054  -0.049  -0.044  -0.037  -0.033
 -0.026  -0.020  -0.017  -0.012  -0.004  -0.000   0.002   0.006
  0.008   0.010   0.015   0.019   0.023   0.026   0.029   0.031
  0.035   0.037   0.042   0.043   0.045   0.049   0.050   0.054
  0.055   0.057   0.061   0.064   0.068   0.070   0.078   0.080
  0.082   0.089   0.100   0.102   0.104   0.107   0.114   0.115
  0.117   0.123   0.125   0.131   0.132   0.140   0.150   0.152
  0.154   0.160   0.162   0.169   0.174   0.177   0.186   0.195
  0.206   0.208   0.215   0.227   0.231   0.236   0.241   0.249
  0.255   0.260   0.267   0.276   0.310   0.325   0.335   0.361
  0.374   0.376   0.385   0.410   0.417   0.423   0.457   0.460
  0.475   0.490   0.495   0.495   0.501   0.511   0.514   0.515
  0.524   0.545   0.551   0.567   0.574   0.580   0.583   0.592
  0.597   0.602   0.610   0.617   0.638   0.648   0.650   0.653
  0.664   0.668   0.673   0.678   0.699   0.700   0.728   0.752
  0.793   0.795   0.802   0.808   0.814   0.822   0.826   0.837
  0.843   0.847   0.850   0.852   0.870   0.880   0.898   0.901
  0.906   0.911   0.927   0.942   0.947   0.965   0.967   0.978
  0.983   1.024   1.032   1.039   1.045   1.068   1.084   1.106
  1.133   1.138   1.158   1.182   1.190   1.194   1.202   1.211
  1.215   1.231   1.245   1.255   1.282   1.304   1.319   1.331
  1.376   1.394   1.422   1.481   1.501   1.551   1.564   1.622
  1.667   1.689   1.718   1.732   1.754   1.766   1.777   1.789
  1.807   1.820   1.826   1.855   1.871   1.882   1.891   1.927
  1.929   1.954   1.971   2.009   2.024   2.036   2.053   2.064
  2.080   2.109   2.126   2.134   2.162   2.175   2.225   2.244
  2.272   2.298   2.303   2.313   2.325   2.327   2.349   2.375
  2.378   2.383   2.393   2.428   2.441   2.452   2.462   2.483
  2.521   2.540   2.563   2.572   2.602   2.682   2.690   2.715
  2.749   2.764   2.771   2.797   2.997   3.044   3.072   3.142
  3.158   3.191   3.274   3.291   3.537   3.599   3.616   3.819
  3.840   3.846   4.093   4.140   4.162   4.163   4.175   4.199
  4.237   4.325   4.396   4.499   4.552   4.572
 
 Beta MOs
 -- Occupied --
-89.084 -89.073 -89.058 -10.409 -10.405 -10.398 -10.382 -10.378
-10.364 -10.361 -10.359 -10.358 -10.350 -10.342 -10.332  -8.143
 -8.132  -8.117  -6.107  -6.104  -6.100  -6.097  -6.093  -6.090
 -6.081  -6.078  -6.074  -1.066  -1.043  -1.025  -0.940  -0.911
 -0.895  -0.888  -0.880  -0.837  -0.767  -0.741  -0.709  -0.696
 -0.687  -0.681  -0.669  -0.649  -0.605  -0.572  -0.569  -0.564
 -0.557  -0.551  -0.540  -0.537  -0.528  -0.521  -0.513  -0.507
 -0.496  -0.486  -0.428  -0.420  -0.407  -0.393  -0.374
 -- Virtual --
 -0.306  -0.207  -0.164  -0.142  -0.137  -0.122  -0.114  -0.110
 -0.101  -0.095  -0.092  -0.085  -0.084  -0.081  -0.078  -0.075
 -0.071  -0.068  -0.063  -0.058  -0.053  -0.048  -0.043  -0.036
 -0.033  -0.024  -0.020  -0.016  -0.012  -0.003   0.000   0.003
  0.007   0.009   0.011   0.015   0.020   0.024   0.027   0.030
  0.031   0.036   0.038   0.043   0.044   0.045   0.049   0.051
  0.055   0.056   0.058   0.061   0.065   0.069   0.071   0.079
  0.081   0.083   0.091   0.101   0.104   0.104   0.107   0.115
  0.116   0.118   0.123   0.126   0.132   0.133   0.140   0.151
  0.154   0.155   0.161   0.163   0.170   0.175   0.178   0.187
  0.197   0.207   0.210   0.216   0.228   0.233   0.237   0.244
  0.249   0.256   0.260   0.269   0.277   0.311   0.327   0.336
  0.361   0.374   0.378   0.385   0.410   0.418   0.424   0.458
  0.461   0.477   0.491   0.496   0.501   0.503   0.516   0.517
  0.523   0.527   0.547   0.553   0.568   0.577   0.583   0.585
  0.594   0.598   0.607   0.611   0.619   0.641   0.650   0.653
  0.655   0.666   0.670   0.677   0.680   0.701   0.704   0.729
  0.754   0.795   0.797   0.803   0.809   0.815   0.824   0.829
  0.839   0.844   0.848   0.851   0.854   0.871   0.881   0.899
  0.902   0.909   0.913   0.929   0.943   0.948   0.966   0.969
  0.979   0.984   1.026   1.035   1.042   1.049   1.071   1.088
  1.109   1.137   1.144   1.161   1.184   1.194   1.197   1.206
  1.217   1.219   1.233   1.247   1.257   1.288   1.310   1.322
  1.335   1.379   1.398   1.425   1.485   1.509   1.561   1.570
  1.627   1.670   1.693   1.720   1.736   1.757   1.767   1.779
  1.791   1.810   1.825   1.830   1.859   1.875   1.884   1.895
  1.931   1.934   1.957   1.976   2.016   2.031   2.042   2.057
  2.069   2.086   2.114   2.130   2.139   2.167   2.180   2.228
  2.246   2.279   2.300   2.305   2.318   2.326   2.330   2.351
  2.376   2.383   2.386   2.395   2.431   2.445   2.454   2.464
  2.486   2.524   2.542   2.567   2.574   2.604   2.685   2.694
  2.717   2.752   2.766   2.772   2.799   2.998   3.045   3.073
  3.143   3.158   3.192   3.275   3.292   3.538   3.600   3.617
  3.819   3.841   3.846   4.097   4.145   4.165   4.167   4.177
  4.200   4.242   4.328   4.400   4.502   4.555   4.574
 --------------------------------------------------------------
 
          Ground-State Mulliken Net Atomic Charges

     Atom                 Charge (a.u.)    Spin (a.u.)
  --------------------------------------------------------
      1 H                     0.247548      -0.012639
      2 H                     0.162737       0.001517
      3 C                     0.078693       0.249978
      4 C                    -0.351586      -0.042166
      5 S                    -0.022024      -0.035542
      6 C                     0.475849       0.143535
      7 H                     0.140318      -0.009457
      8 C                    -0.081255       0.062033
      9 H                     0.120422      -0.007029
     10 C                    -0.067955       0.163887
     11 C                    -0.305709       0.099301
     12 S                     0.085025      -0.055431
     13 C                     0.060302       0.015104
     14 H                     0.171177      -0.001330
     15 C                    -0.112454       0.215443
     16 C                    -0.177800       0.039623
     17 H                     0.156941      -0.005943
     18 C                     0.171058       0.077954
     19 S                     0.157053      -0.019552
     20 C                    -0.311104      -0.019575
     21 C                     0.015170       0.145822
     22 H                     0.155111       0.001191
     23 H                     0.232482      -0.006725
  --------------------------------------------------------
  Sum of atomic charges =     1.000000
  Sum of spin   charges =     1.000000

 -----------------------------------------------------------------
                    Cartesian Multipole Moments
 -----------------------------------------------------------------
    Charge (ESU x 10^10)
                 4.8032
    Dipole Moment (Debye)
         X      27.5112      Y      -2.6332      Z      -0.4506
       Tot      27.6406
    Quadrupole Moments (Debye-Ang)
        XX     140.1807     XY     -12.6639     YY     -90.3926
        XZ      -1.2029     YZ      -0.0256     ZZ    -106.9409
    Octopole Moments (Debye-Ang^2)
       XXX     544.6138    XXY     -78.9911    XYY    -568.3394
       YYY     114.6084    XXZ       2.7374    XYZ     -23.7032
       YYZ      21.8708    XZZ    -640.2354    YZZ      43.3742
       ZZZ      64.9420
    Hexadecapole Moments (Debye-Ang^3)
      XXXX   -3964.6823   XXXY    -636.4948   XXYY   -4716.6141
      XYYY     680.7012   YYYY    -773.5739   XXXZ      73.0058
      XXYZ    -316.5669   XYYZ     192.4619   YYYZ      -6.0862
      XXZZ   -5087.4348   XYZZ     231.6873   YYZZ    -184.7693
      XZZZ     416.4674   YZZZ     -24.7166   ZZZZ    -287.2977
 -----------------------------------------------------------------
 Calculating analytic gradient of the SCF energy
 Gradient of SCF Energy
            1           2           3           4           5           6
    1   0.0030370   0.0013958  -0.0021217  -0.0036540   0.0001009   0.0102436
    2  -0.0013473   0.0018271  -0.0006617   0.0044075  -0.0150654   0.0043340
    3  -0.0007166   0.0003628  -0.0003772   0.0020172  -0.0023329   0.0021113
            7           8           9          10          11          12
    1  -0.0009455  -0.0275710   0.0036426   0.0336564  -0.0259002  -0.0008371
    2   0.0028384   0.0378513  -0.0026476  -0.0437705  -0.0058394   0.0271644
    3  -0.0002471   0.0061899  -0.0011439  -0.0101132  -0.0023645   0.0023610
           13          14          15          16          17          18
    1   0.0196599  -0.0011056  -0.0128117   0.0110146   0.0010393  -0.0050777
    2  -0.0068329  -0.0019030  -0.0222325   0.0263398   0.0020763   0.0050939
    3   0.0052623   0.0001724   0.0039551  -0.0101618  -0.0011744   0.0043075
           19          20          21          22          23
    1   0.0009184  -0.0010353   0.0007526  -0.0015926  -0.0028090
    2  -0.0135571  -0.0002645   0.0013537   0.0010187  -0.0001832
    3   0.0055536  -0.0021797  -0.0018271  -0.0016981   0.0020434
 Max gradient component =       4.377E-02
 RMS gradient           =       1.184E-02
 Gradient time:  CPU 4.20 s  wall 4.20 s
 Geometry Optimization Parameters
   NAtoms,    NIC,     NZ,  NCons,   NDum,   NFix, NCnnct, MaxDiis
       23     166       0       1       0       0       0       0

 Cartesian Hessian Update
 Hessian Updated using BFGS Update


** CONSTRAINED OPTIMIZATION IN DELOCALIZED INTERNAL COORDINATES **
   Searching for a Minimum

   Optimization Cycle:   2

                       Coordinates (Angstroms)
     ATOM                X               Y               Z
      1  H        -0.1004615065   -0.2597377129   -0.0595846477
      2  H         0.7909793305   -2.6758083944   -0.6251120373
      3  C         0.9302791320   -0.5613346903   -0.1542224813
      4  C         1.4220540916   -1.8173543242   -0.4494163874
      5  S         2.1766786144    0.5960215415    0.0729801446
      6  C         2.8238699769   -1.8330670907   -0.5007199446
      7  H         3.4098858817   -2.7093985327   -0.7372361983
      8  C         3.4087122548   -0.5869168552   -0.2424699585
      9  H         4.6569632323    1.7361383173    0.2037504618
     10  C         4.8420916806   -0.4145422884   -0.2066757975
     11  C         5.3078437025    0.8908386587    0.0564138622
     12  S         6.1711161020   -1.4936021822   -0.3818614455
     13  C         6.7008455415    0.9847810222    0.1199050292
     14  H         7.2484728419    1.8906233539    0.3354723185
     15  C         7.3322383979   -0.2405574219   -0.0901616037
     16  C         8.7662604737   -0.3850196686   -0.1011855597
     17  H         8.9029753040   -2.0273111948    1.3185630930
     18  C         9.4236770459   -1.3577527927    0.6492572030
     19  S         9.8958921410    0.5322653813   -1.0393607834
     20  C        10.8190487277   -1.3425172586    0.4698473536
     21  C        11.2186974821   -0.3669046473   -0.4186200178
     22  H        11.5076179081   -2.0081633814    0.9685311732
     23  H        12.2211416435   -0.1308243484   -0.7370509765
   Point Group: c1    Number of degrees of freedom:    63


   Energy is  -1656.393834048

              Constraints and their Current Values
                                        Value     Constraint
   Dihedral:       13  15  16  18      130.000      130.000
 Hessian Updated using BFGS Update

 62 Hessian modes will be used to form the next step
  Hessian Eigenvalues:
     0.044401    0.045000    0.045000    0.045000    0.045000    0.045001
     0.045001    0.045001    0.045002    0.045002    0.045003    0.045003
     0.045009    0.045012    0.045012    0.045024    0.045044    0.045058
     0.045063    0.159324    0.159945    0.159946    0.159980    0.159993
     0.159993    0.160000    0.160196    0.190265    0.221308    0.221961
     0.229832    0.238057    0.238796    0.246467    0.249670    0.249673
     0.283511    0.324424    0.326587    0.327429    0.338754    0.340053
     0.340382    0.365196    0.365513    0.365522    0.366552    0.366889
     0.367341    0.369920    0.370099    0.399759    0.414474    0.434861
     0.435420    0.437034    0.462601    0.463121    0.470776    0.495170
     0.495502    0.578024

 Minimum Search - Taking Simple RFO Step
 Searching for Lamda that Minimizes Along All modes
 Value Taken    Lamda =  -0.02423588
 Calculated Step too Large.  Step scaled by  0.822232
 Step Taken.  Stepsize is  0.300000

                             Maximum     Tolerance    Cnvgd?
         Gradient           0.032764      0.000300      NO
         Displacement       0.144130      0.001200      NO
         Energy change     -0.031496      0.000001      NO


 New Cartesian Coordinates Obtained by Inverse Iteration

 Displacement from previous Coordinates is:  0.957782
 ----------------------------------------------------------------
             Standard Nuclear Orientation (Angstroms)
    I     Atom           X                Y                Z
 ----------------------------------------------------------------
    1      H      -0.0733438034    -0.3639357084    -0.0899711724
    2      H       0.8989723936    -2.7665000705    -0.6187330695
    3      C       0.9720871335    -0.6339853318    -0.1725566252
    4      C       1.5054228087    -1.8854162379    -0.4492167395
    5      S       2.1692250985     0.5817327692     0.0508422544
    6      C       2.9049246536    -1.8625757870    -0.4843604473
    7      H       3.5214669894    -2.7285344503    -0.6990761525
    8      C       3.4425752310    -0.5832395134    -0.2331436625
    9      H       4.6525716371     1.8938672398     0.2209698368
   10      C       4.8229813498    -0.2700485612    -0.1730366127
   11      C       5.3068001107     1.0414667353     0.0731142838
   12      S       6.1299272381    -1.4019012075    -0.3531302451
   13      C       6.6909640510     1.1072056260     0.1169380025
   14      H       7.2579279942     2.0072209400     0.3212222244
   15      C       7.3082041194    -0.1443408296    -0.0880212073
   16      C       8.7227661560    -0.4065671341    -0.0886509120
   17      H       8.8354391877    -2.0916942574     1.2972650982
   18      C       9.3659050381    -1.4160866237     0.6359522509
   19      S       9.8722974580     0.5259518886    -1.0125668443
   20      C      10.7630425670    -1.4212507164     0.4476036580
   21      C      11.1768221473    -0.4332347374    -0.4257409208
   22      H      11.4442192045    -2.1128953693     0.9279239280
   23      H      12.1856812362    -0.2153831732    -0.7525841258
 ----------------------------------------------------------------
 Nuclear Repulsion Energy =  1176.7700578795 hartrees
 There are       64 alpha and       63 beta electrons
 Applying Cartesian multipole field
    Component          Value
    ---------          -----
     (2,0,0)        1.00000E-12
     (0,2,0)        2.00000E-11
     (0,0,2)       -3.00000E-11
 Nucleus-field energy     =     0.0000000301 hartrees
 Requested basis set is 6-31++G(d,p)
 There are 110 shells and 345 basis functions
 A cutoff of  1.0D-12 yielded   4700 shell pairs
 There are     47903 function pairs

 Q-Chem warning in module /project/projectdirs/jcesr/qchem/qc44/cnl_qc441/compile/cori/qc_src/libqints/qchem/aobasis.C, line 68:

 Using reconstructed effective core potential

 Smallest overlap matrix eigenvalue = 6.17E-08
 Linear dependence detected in AO basis
 Number of orthogonalized atomic orbitals = 342
 Maximum deviation from orthogonality = 7.668E-11
 Guess MOs from SCF MO coefficient file
 Reading MOs from coefficient file
 Reading MOs from coefficient file
 An unrestricted hybrid HF-DFT SCF calculation will be
 performed using Pulay DIIS extrapolation
 Exchange:     0.2000 Hartree-Fock + 0.0800 Slater + 0.7200 B88
 Correlation:  0.1900 VWN1RPA + 0.8100 LYP
 Using SG-1 standard quadrature grid
 SCF converges when DIIS error is below 1.0E-08
 Geometry optimization detected.  Setting ReadMinima to 0
 Setting SaveMinima to 0
 ---------------------------------------
  Cycle       Energy         DIIS Error
 ---------------------------------------
    1   -1656.2903821675      2.53E-03
    2   -1656.4028015127      4.65E-04
    3   -1656.3943036020      8.40E-04
    4   -1656.4067278444      1.24E-04
    5   -1656.4069590836      4.05E-05
    6   -1656.4069862700      1.36E-05
    7   -1656.4069895352      5.87E-06
    8   -1656.4069902409      1.70E-06
    9   -1656.4069903895      5.82E-07
   10   -1656.4069904395      2.80E-07
   11   -1656.4069904711      1.81E-07
   12   -1656.4069904842      7.43E-08
   13   -1656.4069904876      6.45E-08
   14   -1656.4069904892      3.08E-08
   15   -1656.4069904897      1.75E-08
   16   -1656.4069904904      9.61E-09 Convergence criterion met
 ---------------------------------------
 <S^2> = 0.7661
 SCF time:  CPU 22.21 s  wall 20.75 s
 SCF   energy in the final basis set = -1656.4069904904
 Total energy in the final basis set = -1656.4069904904
 
 --------------------------------------------------------------
 
                    Orbital Energies (a.u.)
 --------------------------------------------------------------
 
 Alpha MOs
 -- Occupied --
-89.080 -89.072 -89.057 -10.411 -10.410 -10.397 -10.386 -10.379
-10.368 -10.365 -10.364 -10.363 -10.351 -10.347 -10.334  -8.139
 -8.131  -8.116  -6.104  -6.100  -6.096  -6.096  -6.092  -6.089
 -6.081  -6.077  -6.073  -1.067  -1.043  -1.024  -0.944  -0.915
 -0.898  -0.887  -0.881  -0.840  -0.770  -0.746  -0.712  -0.699
 -0.689  -0.682  -0.669  -0.646  -0.606  -0.574  -0.572  -0.570
 -0.557  -0.553  -0.546  -0.539  -0.532  -0.523  -0.519  -0.511
 -0.499  -0.487  -0.447  -0.424  -0.412  -0.396  -0.390  -0.354
 -- Virtual --
 -0.227  -0.174  -0.151  -0.141  -0.130  -0.120  -0.113  -0.102
 -0.097  -0.095  -0.089  -0.086  -0.083  -0.081  -0.076  -0.072
 -0.069  -0.063  -0.059  -0.054  -0.049  -0.044  -0.036  -0.028
 -0.026  -0.020  -0.015  -0.011  -0.004  -0.000   0.003   0.006
  0.008   0.010   0.016   0.019   0.023   0.025   0.029   0.032
  0.034   0.036   0.042   0.044   0.045   0.048   0.051   0.054
  0.056   0.059   0.061   0.064   0.069   0.072   0.076   0.079
  0.081   0.089   0.099   0.102   0.105   0.106   0.112   0.114
  0.116   0.121   0.125   0.129   0.132   0.140   0.144   0.151
  0.152   0.158   0.163   0.169   0.172   0.182   0.183   0.195
  0.204   0.209   0.216   0.224   0.229   0.236   0.240   0.249
  0.254   0.259   0.264   0.274   0.315   0.322   0.334   0.368
  0.375   0.378   0.387   0.413   0.423   0.429   0.449   0.457
  0.468   0.485   0.494   0.497   0.499   0.511   0.513   0.516
  0.523   0.543   0.552   0.562   0.573   0.581   0.586   0.589
  0.594   0.603   0.608   0.614   0.634   0.644   0.646   0.652
  0.668   0.677   0.680   0.688   0.699   0.701   0.729   0.754
  0.785   0.794   0.799   0.805   0.815   0.821   0.824   0.837
  0.841   0.845   0.848   0.851   0.867   0.878   0.895   0.897
  0.907   0.914   0.921   0.934   0.942   0.961   0.962   0.976
  0.983   1.026   1.033   1.037   1.049   1.070   1.087   1.106
  1.125   1.132   1.157   1.171   1.187   1.195   1.200   1.210
  1.215   1.230   1.244   1.273   1.301   1.322   1.336   1.345
  1.382   1.396   1.422   1.482   1.511   1.551   1.560   1.608
  1.665   1.691   1.703   1.725   1.747   1.764   1.780   1.787
  1.797   1.797   1.821   1.860   1.868   1.878   1.905   1.909
  1.932   1.952   1.968   2.001   2.018   2.035   2.050   2.056
  2.087   2.096   2.114   2.128   2.150   2.175   2.222   2.241
  2.273   2.289   2.295   2.305   2.316   2.324   2.343   2.367
  2.375   2.381   2.387   2.415   2.442   2.448   2.455   2.472
  2.519   2.537   2.561   2.566   2.593   2.677   2.713   2.723
  2.745   2.765   2.773   2.786   2.984   3.036   3.065   3.134
  3.149   3.173   3.264   3.282   3.529   3.591   3.605   3.821
  3.836   3.845   4.094   4.134   4.161   4.166   4.174   4.196
  4.242   4.326   4.393   4.501   4.552   4.572
 
 Beta MOs
 -- Occupied --
-89.081 -89.072 -89.057 -10.408 -10.407 -10.397 -10.383 -10.379
-10.367 -10.363 -10.363 -10.361 -10.352 -10.345 -10.334  -8.140
 -8.132  -8.116  -6.104  -6.100  -6.096  -6.096  -6.092  -6.089
 -6.081  -6.077  -6.074  -1.063  -1.039  -1.021  -0.938  -0.913
 -0.896  -0.884  -0.879  -0.834  -0.767  -0.743  -0.709  -0.697
 -0.687  -0.680  -0.667  -0.644  -0.605  -0.571  -0.568  -0.563
 -0.555  -0.551  -0.539  -0.537  -0.530  -0.520  -0.511  -0.507
 -0.498  -0.487  -0.428  -0.421  -0.408  -0.393  -0.373
 -- Virtual --
 -0.301  -0.211  -0.165  -0.143  -0.138  -0.126  -0.116  -0.112
 -0.097  -0.095  -0.093  -0.085  -0.082  -0.080  -0.078  -0.075
 -0.071  -0.068  -0.063  -0.058  -0.053  -0.048  -0.043  -0.036
 -0.028  -0.024  -0.020  -0.014  -0.011  -0.003   0.001   0.003
  0.007   0.008   0.010   0.017   0.020   0.024   0.026   0.029
  0.032   0.035   0.037   0.043   0.044   0.046   0.049   0.052
  0.054   0.056   0.060   0.062   0.065   0.070   0.072   0.077
  0.080   0.082   0.091   0.100   0.103   0.106   0.107   0.114
  0.115   0.117   0.122   0.125   0.131   0.132   0.141   0.147
  0.152   0.153   0.159   0.164   0.170   0.173   0.183   0.184
  0.196   0.205   0.210   0.218   0.225   0.230   0.237   0.241
  0.250   0.256   0.259   0.266   0.275   0.316   0.323   0.335
  0.369   0.375   0.380   0.387   0.413   0.424   0.431   0.450
  0.457   0.469   0.486   0.496   0.499   0.505   0.515   0.517
  0.522   0.526   0.547   0.553   0.564   0.576   0.583   0.588
  0.591   0.596   0.606   0.612   0.615   0.638   0.646   0.650
  0.654   0.670   0.681   0.683   0.689   0.703   0.705   0.730
  0.756   0.788   0.795   0.801   0.806   0.817   0.824   0.828
  0.838   0.842   0.846   0.849   0.852   0.868   0.879   0.896
  0.898   0.909   0.915   0.923   0.935   0.943   0.963   0.963
  0.977   0.984   1.028   1.036   1.039   1.052   1.073   1.090
  1.110   1.130   1.135   1.159   1.173   1.190   1.198   1.204
  1.217   1.219   1.233   1.246   1.275   1.307   1.327   1.339
  1.349   1.386   1.401   1.425   1.485   1.519   1.560   1.566
  1.614   1.670   1.693   1.706   1.729   1.750   1.765   1.782
  1.790   1.800   1.802   1.824   1.864   1.872   1.880   1.909
  1.915   1.936   1.954   1.973   2.008   2.025   2.041   2.055
  2.060   2.092   2.101   2.118   2.133   2.156   2.180   2.224
  2.243   2.278   2.293   2.296   2.310   2.317   2.328   2.345
  2.369   2.380   2.384   2.389   2.417   2.444   2.451   2.457
  2.475   2.522   2.539   2.565   2.568   2.595   2.680   2.716
  2.724   2.749   2.767   2.775   2.787   2.985   3.037   3.066
  3.134   3.149   3.174   3.266   3.283   3.530   3.592   3.606
  3.821   3.836   3.845   4.099   4.138   4.164   4.169   4.177
  4.197   4.247   4.330   4.398   4.504   4.554   4.575
 --------------------------------------------------------------
 
          Ground-State Mulliken Net Atomic Charges

     Atom                 Charge (a.u.)    Spin (a.u.)
  --------------------------------------------------------
      1 H                     0.243775      -0.012922
      2 H                     0.165346       0.001553
      3 C                     0.057492       0.253794
      4 C                    -0.293330      -0.042394
      5 S                    -0.039439      -0.032008
      6 C                     0.470401       0.147197
      7 H                     0.142396      -0.009674
      8 C                    -0.163997       0.051877
      9 H                     0.139465      -0.006493
     10 C                    -0.072999       0.163399
     11 C                    -0.177947       0.091048
     12 S                    -0.054087      -0.058799
     13 C                     0.163316       0.030380
     14 H                     0.173973      -0.002141
     15 C                    -0.167551       0.211845
     16 C                    -0.223491       0.033701
     17 H                     0.161412      -0.006264
     18 C                     0.263109       0.082690
     19 S                     0.128053      -0.018119
     20 C                    -0.341134      -0.021438
     21 C                     0.037239       0.148388
     22 H                     0.155679       0.001329
     23 H                     0.232320      -0.006948
  --------------------------------------------------------
  Sum of atomic charges =     1.000000
  Sum of spin   charges =     1.000000

 -----------------------------------------------------------------
                    Cartesian Multipole Moments
 -----------------------------------------------------------------
    Charge (ESU x 10^10)
                 4.8032
    Dipole Moment (Debye)
         X      27.5251      Y      -2.5980      Z      -0.4116
       Tot      27.6505
    Quadrupole Moments (Debye-Ang)
        XX     138.4265     XY     -12.6378     YY     -89.0351
        XZ      -1.0062     YZ      -0.0757     ZZ    -107.3086
    Octopole Moments (Debye-Ang^2)
       XXX     516.4951    XXY     -86.1426    XYY    -559.2184
       YYY     109.8119    XXZ       2.0515    XYZ     -23.5819
       YYZ      22.0400    XZZ    -642.0062    YZZ      42.2055
       ZZZ      63.5412
    Hexadecapole Moments (Debye-Ang^3)
      XXXX   -4226.2322   XXXY    -763.8860   XXYY   -4626.7705
      XYYY     656.9436   YYYY    -787.4996   XXXZ      42.9798
      XXYZ    -311.0699   XYYZ     194.1128   YYYZ      -4.7790
      XXZZ   -5076.5019   XYZZ     226.1062   YYZZ    -188.9245
      XZZZ     405.3918   YZZZ     -22.4807   ZZZZ    -279.7942
 -----------------------------------------------------------------
 Calculating analytic gradient of the SCF energy
 Gradient of SCF Energy
            1           2           3           4           5           6
    1   0.0001437   0.0002327   0.0017263  -0.0007288   0.0032660   0.0027975
    2   0.0005151  -0.0001105  -0.0011213  -0.0008194  -0.0016190  -0.0020827
    3  -0.0001882   0.0000074  -0.0002208   0.0003235   0.0004907   0.0004192
            7           8           9          10          11          12
    1   0.0002355  -0.0095982  -0.0004572   0.0137146  -0.0066777  -0.0019244
    2   0.0000584   0.0184457   0.0008304  -0.0201961   0.0027627   0.0060794
    3  -0.0007348   0.0025492  -0.0004712  -0.0051259   0.0001885  -0.0014829
           13          14          15          16          17          18
    1   0.0023859  -0.0006458  -0.0081215   0.0058610   0.0000083  -0.0002925
    2   0.0002209  -0.0000368  -0.0091874   0.0106071   0.0002487   0.0016556
    3   0.0057121   0.0005800   0.0000791  -0.0068895   0.0002524   0.0057280
           19          20          21          22          23
    1  -0.0013523   0.0000147  -0.0007250   0.0000400   0.0000973
    2  -0.0053522  -0.0012295  -0.0002308  -0.0002335   0.0007953
    3  -0.0005646   0.0004032  -0.0013759  -0.0004146   0.0007350
 Max gradient component =       2.020E-02
 RMS gradient           =       4.884E-03
 Gradient time:  CPU 4.23 s  wall 4.21 s
 Geometry Optimization Parameters
   NAtoms,    NIC,     NZ,  NCons,   NDum,   NFix, NCnnct, MaxDiis
       23     166       0       1       0       0       0       0

 Cartesian Hessian Update
 Hessian Updated using BFGS Update


** CONSTRAINED OPTIMIZATION IN DELOCALIZED INTERNAL COORDINATES **
   Searching for a Minimum

   Optimization Cycle:   3

                       Coordinates (Angstroms)
     ATOM                X               Y               Z
      1  H        -0.0733438034   -0.3639357084   -0.0899711724
      2  H         0.8989723936   -2.7665000705   -0.6187330695
      3  C         0.9720871335   -0.6339853318   -0.1725566252
      4  C         1.5054228087   -1.8854162379   -0.4492167395
      5  S         2.1692250985    0.5817327692    0.0508422544
      6  C         2.9049246536   -1.8625757870   -0.4843604473
      7  H         3.5214669894   -2.7285344503   -0.6990761525
      8  C         3.4425752310   -0.5832395134   -0.2331436625
      9  H         4.6525716371    1.8938672398    0.2209698368
     10  C         4.8229813498   -0.2700485612   -0.1730366127
     11  C         5.3068001107    1.0414667353    0.0731142838
     12  S         6.1299272381   -1.4019012075   -0.3531302451
     13  C         6.6909640510    1.1072056260    0.1169380025
     14  H         7.2579279942    2.0072209400    0.3212222244
     15  C         7.3082041194   -0.1443408296   -0.0880212073
     16  C         8.7227661560   -0.4065671341   -0.0886509120
     17  H         8.8354391877   -2.0916942574    1.2972650982
     18  C         9.3659050381   -1.4160866237    0.6359522509
     19  S         9.8722974580    0.5259518886   -1.0125668443
     20  C        10.7630425670   -1.4212507164    0.4476036580
     21  C        11.1768221473   -0.4332347374   -0.4257409208
     22  H        11.4442192045   -2.1128953693    0.9279239280
     23  H        12.1856812362   -0.2153831732   -0.7525841258
   Point Group: c1    Number of degrees of freedom:    63


   Energy is  -1656.406990490

              Constraints and their Current Values
                                        Value     Constraint
   Dihedral:       13  15  16  18      130.000      130.000
 Hessian Updated using BFGS Update

 61 Hessian modes will be used to form the next step
  Hessian Eigenvalues:
     0.040945    0.045000    0.045000    0.045000    0.045001    0.045001
     0.045001    0.045002    0.045002    0.045003    0.045007    0.045009
     0.045012    0.045012    0.045028    0.045055    0.045059    0.045103
     0.157184    0.159945    0.159958    0.159985    0.159993    0.159998
     0.160017    0.160517    0.175473    0.221308    0.223699    0.229925
     0.238197    0.240418    0.249414    0.249672    0.260337    0.279150
     0.323277    0.326587    0.327881    0.338323    0.340065    0.341469
     0.365513    0.365518    0.365826    0.366889    0.367246    0.367884
     0.370099    0.370899    0.400893    0.422753    0.435410    0.435629
     0.441947    0.463079    0.464941    0.481289    0.495342    0.497377
     0.579388

 Minimum Search - Taking Simple RFO Step
 Searching for Lamda that Minimizes Along All modes
 Value Taken    Lamda =  -0.00581900
 Step Taken.  Stepsize is  0.274991

                             Maximum     Tolerance    Cnvgd?
         Gradient           0.012699      0.000300      NO
         Displacement       0.119349      0.001200      NO
         Energy change     -0.013156      0.000001      NO


 New Cartesian Coordinates Obtained by Inverse Iteration

 Displacement from previous Coordinates is:  0.645163
 ----------------------------------------------------------------
             Standard Nuclear Orientation (Angstroms)
    I     Atom           X                Y                Z
 ----------------------------------------------------------------
    1      H      -0.0915037370    -0.4248767784    -0.1042207707
    2      H       0.9356188875    -2.8103715392    -0.5809926153
    3      C       0.9609240809    -0.6720065042    -0.1759166137
    4      C       1.5261830675    -1.9157813041    -0.4250464705
    5      S       2.1382711922     0.5642328977     0.0281873206
    6      C       2.9262268487    -1.8745361282    -0.4482695364
    7      H       3.5534459523    -2.7390039496    -0.6363244816
    8      C       3.4493652984    -0.5855942145    -0.2170303740
    9      H       4.6832382802     1.9710878044     0.2256433303
   10      C       4.8029971363    -0.1905040155    -0.1555747623
   11      C       5.3234388345     1.1105572902     0.0652323729
   12      S       6.1077128086    -1.3448681477    -0.3536699077
   13      C       6.7086307862     1.1576463707     0.0745425768
   14      H       7.2928058163     2.0507954599     0.2637221016
   15      C       7.3158718631    -0.0993798359    -0.1368114263
   16      C       8.7097082955    -0.4313811964    -0.1162814481
   17      H       8.7860069184    -2.1758140329     1.1932577249
   18      C       9.3334900904    -1.4692623523     0.5793000143
   19      S       9.8949614057     0.5663777919    -0.9405351020
   20      C      10.7366060933    -1.4598185320     0.4360131794
   21      C      11.1805995697    -0.4300096683    -0.3705518481
   22      H      11.4025791990    -2.1736967836     0.9055302089
   23      H      12.1997013124    -0.2039371423    -0.6591606731
 ----------------------------------------------------------------
 Nuclear Repulsion Energy =  1175.7692381115 hartrees
 There are       64 alpha and       63 beta electrons
 Applying Cartesian multipole field
    Component          Value
    ---------          -----
     (2,0,0)        1.00000E-12
     (0,2,0)        2.00000E-11
     (0,0,2)       -3.00000E-11
 Nucleus-field energy     =     0.0000000308 hartrees
 Requested basis set is 6-31++G(d,p)
 There are 110 shells and 345 basis functions
 A cutoff of  1.0D-12 yielded   4702 shell pairs
 There are     47929 function pairs

 Q-Chem warning in module /project/projectdirs/jcesr/qchem/qc44/cnl_qc441/compile/cori/qc_src/libqints/qchem/aobasis.C, line 68:

 Using reconstructed effective core potential

 Smallest overlap matrix eigenvalue = 6.04E-08
 Linear dependence detected in AO basis
 Number of orthogonalized atomic orbitals = 342
 Maximum deviation from orthogonality = 1.119E-10
 Guess MOs from SCF MO coefficient file
 Reading MOs from coefficient file
 Reading MOs from coefficient file
 An unrestricted hybrid HF-DFT SCF calculation will be
 performed using Pulay DIIS extrapolation
 Exchange:     0.2000 Hartree-Fock + 0.0800 Slater + 0.7200 B88
 Correlation:  0.1900 VWN1RPA + 0.8100 LYP
 Using SG-1 standard quadrature grid
 SCF converges when DIIS error is below 1.0E-08
 Geometry optimization detected.  Setting ReadMinima to 0
 Setting SaveMinima to 0
 ---------------------------------------
  Cycle       Energy         DIIS Error
 ---------------------------------------
    1   -1656.3469427445      1.97E-03
    2   -1656.4084635085      3.10E-04
    3   -1656.4049600370      5.46E-04
    4   -1656.4102706310      1.07E-04
    5   -1656.4104448356      2.95E-05
    6   -1656.4104589941      1.23E-05
    7   -1656.4104617374      5.99E-06
    8   -1656.4104624918      1.68E-06
    9   -1656.4104626506      1.29E-06
   10   -1656.4104627281      4.33E-07
   11   -1656.4104627825      3.56E-07
   12   -1656.4104628042      1.45E-07
   13   -1656.4104628103      5.56E-08
   14   -1656.4104628109      2.37E-08
   15   -1656.4104628118      1.17E-08
   16   -1656.4104628123      4.96E-09 Convergence criterion met
 ---------------------------------------
 <S^2> = 0.7661
 SCF time:  CPU 22.34 s  wall 20.77 s
 SCF   energy in the final basis set = -1656.4104628123
 Total energy in the final basis set = -1656.4104628123
 
 --------------------------------------------------------------
 
                    Orbital Energies (a.u.)
 --------------------------------------------------------------
 
 Alpha MOs
 -- Occupied --
-89.076 -89.070 -89.058 -10.411 -10.411 -10.397 -10.385 -10.382
-10.369 -10.367 -10.366 -10.363 -10.351 -10.350 -10.336  -8.135
 -8.129  -8.117  -6.100  -6.096  -6.093  -6.092  -6.089  -6.086
 -6.081  -6.077  -6.074  -1.065  -1.041  -1.024  -0.944  -0.915
 -0.897  -0.886  -0.882  -0.842  -0.771  -0.748  -0.713  -0.701
 -0.688  -0.681  -0.669  -0.645  -0.607  -0.573  -0.572  -0.570
 -0.558  -0.554  -0.547  -0.541  -0.534  -0.521  -0.518  -0.508
 -0.495  -0.488  -0.449  -0.422  -0.410  -0.398  -0.391  -0.353
 -- Virtual --
 -0.228  -0.176  -0.149  -0.140  -0.129  -0.122  -0.113  -0.103
 -0.097  -0.095  -0.087  -0.085  -0.082  -0.081  -0.076  -0.072
 -0.070  -0.064  -0.059  -0.054  -0.049  -0.044  -0.036  -0.028
 -0.025  -0.021  -0.015  -0.011  -0.004   0.000   0.004   0.005
  0.007   0.010   0.016   0.019   0.023   0.025   0.029   0.032
  0.035   0.036   0.041   0.044   0.046   0.047   0.051   0.053
  0.056   0.060   0.062   0.064   0.070   0.074   0.074   0.079
  0.082   0.089   0.099   0.102   0.105   0.106   0.110   0.114
  0.115   0.122   0.124   0.128   0.133   0.140   0.141   0.151
  0.153   0.157   0.163   0.170   0.173   0.182   0.185   0.195
  0.201   0.209   0.222   0.223   0.229   0.236   0.240   0.249
  0.256   0.259   0.267   0.272   0.317   0.320   0.342   0.371
  0.377   0.380   0.391   0.414   0.423   0.436   0.444   0.457
  0.465   0.483   0.492   0.498   0.502   0.511   0.513   0.517
  0.520   0.540   0.549   0.556   0.572   0.580   0.582   0.589
  0.593   0.602   0.606   0.612   0.631   0.641   0.644   0.651
  0.672   0.679   0.684   0.690   0.700   0.702   0.729   0.755
  0.784   0.793   0.798   0.802   0.817   0.820   0.826   0.833
  0.841   0.843   0.849   0.852   0.869   0.877   0.891   0.897
  0.909   0.913   0.921   0.931   0.943   0.959   0.962   0.975
  0.980   1.021   1.033   1.035   1.048   1.073   1.088   1.105
  1.119   1.129   1.155   1.167   1.187   1.194   1.198   1.210
  1.213   1.225   1.243   1.293   1.313   1.330   1.340   1.350
  1.393   1.396   1.427   1.478   1.519   1.553   1.556   1.594
  1.662   1.686   1.702   1.716   1.740   1.762   1.772   1.784
  1.786   1.794   1.818   1.852   1.867   1.881   1.899   1.910
  1.938   1.956   1.962   1.999   2.016   2.035   2.046   2.052
  2.085   2.088   2.106   2.129   2.147   2.183   2.223   2.239
  2.273   2.288   2.293   2.304   2.308   2.326   2.339   2.364
  2.377   2.382   2.391   2.406   2.442   2.452   2.453   2.474
  2.519   2.536   2.562   2.565   2.592   2.670   2.714   2.728
  2.751   2.774   2.785   2.793   2.985   3.036   3.066   3.135
  3.146   3.171   3.265   3.280   3.524   3.590   3.603   3.824
  3.834   3.843   4.094   4.133   4.160   4.169   4.178   4.193
  4.245   4.329   4.392   4.502   4.551   4.574
 
 Beta MOs
 -- Occupied --
-89.077 -89.070 -89.058 -10.408 -10.408 -10.397 -10.382 -10.382
-10.368 -10.365 -10.365 -10.362 -10.351 -10.348 -10.337  -8.136
 -8.129  -8.117  -6.100  -6.096  -6.093  -6.093  -6.090  -6.086
 -6.081  -6.077  -6.074  -1.060  -1.038  -1.021  -0.938  -0.913
 -0.895  -0.884  -0.879  -0.835  -0.768  -0.745  -0.710  -0.699
 -0.686  -0.679  -0.667  -0.643  -0.606  -0.570  -0.569  -0.562
 -0.556  -0.552  -0.541  -0.538  -0.532  -0.518  -0.509  -0.506
 -0.494  -0.487  -0.430  -0.420  -0.406  -0.395  -0.375
 -- Virtual --
 -0.300  -0.213  -0.166  -0.141  -0.138  -0.126  -0.118  -0.112
 -0.097  -0.095  -0.093  -0.084  -0.082  -0.080  -0.076  -0.074
 -0.071  -0.068  -0.063  -0.059  -0.053  -0.048  -0.043  -0.035
 -0.026  -0.024  -0.020  -0.014  -0.010  -0.003   0.001   0.005
  0.006   0.008   0.010   0.017   0.020   0.024   0.026   0.029
  0.033   0.035   0.036   0.042   0.044   0.046   0.048   0.052
  0.054   0.056   0.061   0.063   0.064   0.071   0.075   0.075
  0.080   0.083   0.090   0.100   0.103   0.106   0.107   0.111
  0.115   0.116   0.123   0.125   0.130   0.133   0.141   0.143
  0.152   0.154   0.158   0.163   0.171   0.174   0.183   0.186
  0.196   0.202   0.210   0.223   0.224   0.230   0.237   0.241
  0.250   0.257   0.260   0.269   0.273   0.318   0.321   0.343
  0.372   0.377   0.382   0.391   0.415   0.425   0.437   0.445
  0.458   0.466   0.484   0.494   0.499   0.508   0.515   0.517
  0.520   0.525   0.543   0.551   0.558   0.575   0.582   0.583
  0.591   0.595   0.603   0.612   0.614   0.635   0.644   0.646
  0.653   0.675   0.683   0.687   0.692   0.703   0.705   0.731
  0.757   0.787   0.794   0.800   0.804   0.818   0.823   0.828
  0.835   0.842   0.845   0.850   0.854   0.870   0.878   0.892
  0.898   0.910   0.914   0.923   0.932   0.944   0.960   0.963
  0.976   0.981   1.023   1.035   1.038   1.051   1.076   1.091
  1.109   1.125   1.132   1.157   1.169   1.190   1.197   1.201
  1.216   1.217   1.228   1.246   1.296   1.318   1.336   1.343
  1.354   1.398   1.400   1.431   1.481   1.527   1.560   1.565
  1.600   1.666   1.689   1.704   1.720   1.743   1.764   1.776
  1.786   1.789   1.795   1.821   1.855   1.871   1.884   1.905
  1.913   1.943   1.958   1.967   2.005   2.023   2.041   2.050
  2.057   2.089   2.093   2.112   2.134   2.153   2.187   2.225
  2.241   2.277   2.291   2.299   2.306   2.312   2.329   2.341
  2.366   2.381   2.385   2.393   2.408   2.445   2.455   2.455
  2.477   2.522   2.538   2.566   2.568   2.594   2.672   2.717
  2.730   2.755   2.776   2.788   2.794   2.986   3.037   3.068
  3.136   3.147   3.171   3.266   3.281   3.525   3.591   3.604
  3.824   3.834   3.844   4.098   4.137   4.163   4.172   4.182
  4.195   4.250   4.332   4.397   4.505   4.554   4.577
 --------------------------------------------------------------
 
          Ground-State Mulliken Net Atomic Charges

     Atom                 Charge (a.u.)    Spin (a.u.)
  --------------------------------------------------------
      1 H                     0.243156      -0.012581
      2 H                     0.165860       0.001365
      3 C                     0.062406       0.245460
      4 C                    -0.266932      -0.037921
      5 S                    -0.045602      -0.027113
      6 C                     0.482274       0.141447
      7 H                     0.142588      -0.009326
      8 C                    -0.230155       0.047208
      9 H                     0.147727      -0.005807
     10 C                    -0.083533       0.166693
     11 C                    -0.101881       0.083829
     12 S                    -0.156990      -0.059380
     13 C                     0.210272       0.047591
     14 H                     0.174293      -0.003165
     15 C                    -0.189037       0.192181
     16 C                    -0.227603       0.035068
     17 H                     0.163776      -0.006698
     18 C                     0.348436       0.088691
     19 S                     0.105093      -0.017542
     20 C                    -0.395393      -0.021685
     21 C                     0.063818       0.158075
     22 H                     0.155070       0.001371
     23 H                     0.232360      -0.007759
  --------------------------------------------------------
  Sum of atomic charges =     1.000000
  Sum of spin   charges =     1.000000

 -----------------------------------------------------------------
                    Cartesian Multipole Moments
 -----------------------------------------------------------------
    Charge (ESU x 10^10)
                 4.8032
    Dipole Moment (Debye)
         X      27.8406      Y      -2.5659      Z      -0.3302
       Tot      27.9605
    Quadrupole Moments (Debye-Ang)
        XX     142.9151     XY     -12.2746     YY     -88.4419
        XZ      -0.2915     YZ      -0.3252     ZZ    -107.9509
    Octopole Moments (Debye-Ang^2)
       XXX     570.5729    XXY     -85.8110    XYY    -553.4007
       YYY     105.6184    XXZ       9.6356    XYZ     -24.1947
       YYZ      22.3191    XZZ    -646.8378    YZZ      41.5628
       ZZZ      62.7689
    Hexadecapole Moments (Debye-Ang^3)
      XXXX   -3597.5486   XXXY    -788.4077   XXYY   -4574.1097
      XYYY     619.5203   YYYY    -797.7444   XXXZ     128.0772
      XXYZ    -310.3984   XYYZ     192.1295   YYYZ      -4.1965
      XXZZ   -5120.4862   XYZZ     218.6123   YYZZ    -190.7789
      XZZZ     396.0282   YZZZ     -17.9618   ZZZZ    -262.4139
 -----------------------------------------------------------------
 Calculating analytic gradient of the SCF energy
 Gradient of SCF Energy
            1           2           3           4           5           6
    1  -0.0004335  -0.0003118  -0.0015617  -0.0000943   0.0020269  -0.0003095
    2   0.0003650   0.0001568  -0.0009238   0.0000965  -0.0013746  -0.0017865
    3  -0.0000570   0.0000899   0.0001305   0.0000352   0.0000888   0.0001115
            7           8           9          10          11          12
    1   0.0003578   0.0026452  -0.0009041  -0.0013059   0.0014157  -0.0018836
    2   0.0001840   0.0032760  -0.0001226  -0.0032846   0.0023468   0.0019525
    3  -0.0004737   0.0001899  -0.0004865  -0.0014665   0.0002767  -0.0013030
           13          14          15          16          17          18
    1  -0.0016972   0.0004989   0.0002993   0.0016071  -0.0002426  -0.0002307
    2  -0.0005188  -0.0003674   0.0021067  -0.0033370   0.0002078   0.0032679
    3   0.0057755   0.0005718  -0.0037183  -0.0027575   0.0003959   0.0046248
           19          20          21          22          23
    1  -0.0014523   0.0006100   0.0004499   0.0002039   0.0003127
    2  -0.0017291   0.0007510  -0.0018823  -0.0000285   0.0006444
    3  -0.0010441  -0.0003588  -0.0007751  -0.0001801   0.0003298
 Max gradient component =       5.775E-03
 RMS gradient           =       1.638E-03
 Gradient time:  CPU 4.31 s  wall 4.19 s
 Geometry Optimization Parameters
   NAtoms,    NIC,     NZ,  NCons,   NDum,   NFix, NCnnct, MaxDiis
       23     166       0       1       0       0       0       0

 Cartesian Hessian Update
 Hessian Updated using BFGS Update


** CONSTRAINED OPTIMIZATION IN DELOCALIZED INTERNAL COORDINATES **
   Searching for a Minimum

   Optimization Cycle:   4

                       Coordinates (Angstroms)
     ATOM                X               Y               Z
      1  H        -0.0915037370   -0.4248767784   -0.1042207707
      2  H         0.9356188875   -2.8103715392   -0.5809926153
      3  C         0.9609240809   -0.6720065042   -0.1759166137
      4  C         1.5261830675   -1.9157813041   -0.4250464705
      5  S         2.1382711922    0.5642328977    0.0281873206
      6  C         2.9262268487   -1.8745361282   -0.4482695364
      7  H         3.5534459523   -2.7390039496   -0.6363244816
      8  C         3.4493652984   -0.5855942145   -0.2170303740
      9  H         4.6832382802    1.9710878044    0.2256433303
     10  C         4.8029971363   -0.1905040155   -0.1555747623
     11  C         5.3234388345    1.1105572902    0.0652323729
     12  S         6.1077128086   -1.3448681477   -0.3536699077
     13  C         6.7086307862    1.1576463707    0.0745425768
     14  H         7.2928058163    2.0507954599    0.2637221016
     15  C         7.3158718631   -0.0993798359   -0.1368114263
     16  C         8.7097082955   -0.4313811964   -0.1162814481
     17  H         8.7860069184   -2.1758140329    1.1932577249
     18  C         9.3334900904   -1.4692623523    0.5793000143
     19  S         9.8949614057    0.5663777919   -0.9405351020
     20  C        10.7366060933   -1.4598185320    0.4360131794
     21  C        11.1805995697   -0.4300096683   -0.3705518481
     22  H        11.4025791990   -2.1736967836    0.9055302089
     23  H        12.1997013124   -0.2039371423   -0.6591606731
   Point Group: c1    Number of degrees of freedom:    63


   Energy is  -1656.410462812

              Constraints and their Current Values
                                        Value     Constraint
   Dihedral:       13  15  16  18      130.000      130.000
 Hessian Updated using BFGS Update

 62 Hessian modes will be used to form the next step
  Hessian Eigenvalues:
     0.028964    0.045000    0.045000    0.045000    0.045000    0.045001
     0.045001    0.045002    0.045002    0.045003    0.045006    0.045009
     0.045012    0.045012    0.045028    0.045053    0.045057    0.045083
     0.045195    0.159326    0.159945    0.159978    0.159981    0.159997
     0.160004    0.160341    0.162247    0.202226    0.221325    0.223568
     0.229653    0.238196    0.241483    0.249665    0.250986    0.260693
     0.283699    0.322708    0.326611    0.327771    0.338361    0.340187
     0.341504    0.365513    0.365526    0.365831    0.366889    0.367248
     0.367871    0.370106    0.370923    0.400752    0.422172    0.435471
     0.436199    0.442067    0.463503    0.464706    0.480427    0.495771
     0.498218    0.583777

 Minimum Search - Taking Simple RFO Step
 Searching for Lamda that Minimizes Along All modes
 Value Taken    Lamda =  -0.00118795
 Step Taken.  Stepsize is  0.187880

                             Maximum     Tolerance    Cnvgd?
         Gradient           0.002879      0.000300      NO
         Displacement       0.087427      0.001200      NO
         Energy change     -0.003472      0.000001      NO


 New Cartesian Coordinates Obtained by Inverse Iteration

 Displacement from previous Coordinates is:  0.541808
 ----------------------------------------------------------------
             Standard Nuclear Orientation (Angstroms)
    I     Atom           X                Y                Z
 ----------------------------------------------------------------
    1      H      -0.0894980568    -0.4182901017    -0.0928096263
    2      H       0.9308099463    -2.8110710392    -0.5383771821
    3      C       0.9624033812    -0.6655187623    -0.1630754713
    4      C       1.5227433925    -1.9150280303    -0.3953987164
    5      S       2.1386957155     0.5718742145     0.0240793528
    6      C       2.9211644952    -1.8796203732    -0.4193115749
[...]
      2 H                     0.163079       0.001324
      3 C                     0.087760       0.234297
      4 C                    -0.339600      -0.037043
      5 S                    -0.071327      -0.024932
      6 C                     0.624657       0.139026
      7 H                     0.148354      -0.009150
      8 C                    -0.294436       0.040622
      9 H                     0.143554      -0.005458
     10 C                    -0.047770       0.173518
     11 C                    -0.225407       0.070899
     12 S                    -0.142779      -0.057642
     13 C                     0.216007       0.058127
     14 H                     0.166288      -0.003812
     15 C                    -0.004154       0.177129
     16 C                    -0.238921       0.032779
     17 H                     0.156634      -0.007729
     18 C                     0.280670       0.104765
     19 S                     0.117265      -0.019792
     20 C                    -0.433746      -0.026437
     21 C                     0.062970       0.179199
     22 H                     0.154978       0.001729
     23 H                     0.231184      -0.009519
  --------------------------------------------------------
  Sum of atomic charges =     1.000000
  Sum of spin   charges =     1.000000

 -----------------------------------------------------------------
                    Cartesian Multipole Moments
 -----------------------------------------------------------------
    Charge (ESU x 10^10)
                 4.8032
    Dipole Moment (Debye)
         X      28.3894      Y      -2.5220      Z      -0.1769
       Tot      28.5017
    Quadrupole Moments (Debye-Ang)
        XX     150.1992     XY     -11.6741     YY     -87.7275
        XZ       1.3345     YZ      -0.6319     ZZ    -109.0556
    Octopole Moments (Debye-Ang^2)
       XXX     654.3912    XXY     -74.3035    XYY    -546.6623
       YYY      99.9252    XXZ      37.3930    XYZ     -23.7385
       YYZ      23.6668    XZZ    -657.1097    YZZ      41.8212
       ZZZ      65.3921
    Hexadecapole Moments (Debye-Ang^3)
      XXXX   -2668.0752   XXXY    -626.2929   XXYY   -4515.0816
      XYYY     559.5497   YYYY    -809.7347   XXXZ     533.2578
      XXYZ    -301.2628   XYYZ     188.5487   YYYZ      -7.6471
      XXZZ   -5225.3203   XYZZ     212.1486   YYZZ    -193.8613
      XZZZ     401.4423   YZZZ     -13.7675   ZZZZ    -236.3644
 -----------------------------------------------------------------
 Calculating analytic gradient of the SCF energy
 Gradient of SCF Energy
            1           2           3           4           5           6
    1   0.0000030  -0.0000027  -0.0000317   0.0000407   0.0000292  -0.0000322
    2   0.0000019  -0.0000081  -0.0000192   0.0000003  -0.0000031  -0.0000359
    3   0.0000032  -0.0000158   0.0000116   0.0000036   0.0000179  -0.0000227
            7           8           9          10          11          12
    1  -0.0000021  -0.0000376   0.0000017   0.0000151   0.0000983  -0.0001023
    2  -0.0000012  -0.0000198  -0.0000130  -0.0000676   0.0001085  -0.0000064
    3  -0.0000128  -0.0000069   0.0000285  -0.0000319  -0.0000123   0.0000068
           13          14          15          16          17          18
    1  -0.0007712   0.0000087   0.0017120  -0.0017387   0.0000030   0.0008166
    2  -0.0018262   0.0000067   0.0055486  -0.0078685  -0.0000304   0.0042117
    3   0.0071558  -0.0000140  -0.0076884  -0.0054907  -0.0000559   0.0061506
           19          20          21          22          23
    1  -0.0000339  -0.0000016   0.0000202   0.0000050   0.0000005
    2   0.0000235   0.0000099  -0.0000205  -0.0000027   0.0000120
    3   0.0000022  -0.0000120  -0.0000170  -0.0000079   0.0000079
 Max gradient component =       7.869E-03
 RMS gradient           =       2.083E-03
 Gradient time:  CPU 4.23 s  wall 4.25 s
 Geometry Optimization Parameters
   NAtoms,    NIC,     NZ,  NCons,   NDum,   NFix, NCnnct, MaxDiis
       23     166       0       1       0       0       0       0

 Cartesian Hessian Update
 Hessian Updated using BFGS Update


** CONSTRAINED OPTIMIZATION IN DELOCALIZED INTERNAL COORDINATES **
   Searching for a Minimum

   Optimization Cycle:  12

                       Coordinates (Angstroms)
     ATOM                X               Y               Z
      1  H        -0.0847184006   -0.3836282975   -0.0807077843
      2  H         0.9101038702   -2.7999108085   -0.4460103655
      3  C         0.9643470085   -0.6436572268   -0.1458344512
      4  C         1.5104522247   -1.9049673183   -0.3374008106
      5  S         2.1540028107    0.5868335205   -0.0059266861
      6  C         2.9108565257   -1.8825367473   -0.3707413354
      7  H         3.5231841467   -2.7668921106   -0.5078909052
      8  C         3.4503118292   -0.5951736352   -0.2037996914
      9  H         4.7255832756    1.9458683184    0.2346097698
     10  C         4.8114293689   -0.2102198691   -0.1843099020
     11  C         5.3461192814    1.0830038045    0.0212779892
     12  S         6.1056432604   -1.3697808260   -0.4564599510
     13  C         6.7293063938    1.1299580382   -0.0374016110
     14  H         7.3144638813    2.0266594608    0.1300255324
     15  C         7.3264790446   -0.1230592922   -0.2961574842
     16  C         8.7108915959   -0.4627687223   -0.2468768477
     17  H         8.7355606966   -2.3371454038    0.8773157899
     18  C         9.3089778304   -1.5415824718    0.4151073371
     19  S         9.9371816156    0.6783797084   -0.7914693963
     20  C        10.7127416002   -1.4598701977    0.4496922969
     21  C        11.1930921668   -0.3209959301   -0.1716003403
     22  H        11.3538980098   -2.1958333594    0.9193313153
     23  H        12.2269719635   -0.0328251440   -0.3137296684
   Point Group: c1    Number of degrees of freedom:    63


   Energy is  -1656.411884984

              Constraints and their Current Values
                                        Value     Constraint
   Dihedral:       13  15  16  18      130.000      130.000
 Hessian Updated using BFGS Update

 62 Hessian modes will be used to form the next step
  Hessian Eigenvalues:
     0.005104    0.015247    0.035383    0.045000    0.045000    0.045001
     0.045002    0.045002    0.045003    0.045003    0.045010    0.045011
     0.045015    0.045023    0.045043    0.045054    0.045107    0.045227
     0.045337    0.157100    0.159944    0.159953    0.159997    0.160054
     0.160203    0.160501    0.161672    0.190054    0.221437    0.223115
     0.227952    0.239871    0.246257    0.246426    0.250107    0.265343
     0.281250    0.304725    0.325596    0.327505    0.333718    0.340058
     0.341320    0.365524    0.365532    0.365864    0.366892    0.367337
     0.367872    0.370120    0.371031    0.400287    0.425728    0.435178
     0.437567    0.450872    0.463283    0.465310    0.481030    0.493698
     0.499056    0.581027

 Minimum Search - Taking Simple RFO Step
 Searching for Lamda that Minimizes Along All modes
 Value Taken    Lamda =   0.00000000
 Step Taken.  Stepsize is  0.005131

                             Maximum     Tolerance    Cnvgd?
         Gradient           0.000105      0.000300     YES
         Displacement       0.002989      0.001200      NO
         Energy change     -0.000001      0.000001     YES

 Final energy is   -1656.41188498432     


 ******************************
 **  OPTIMIZATION CONVERGED  **
 ******************************

                       Coordinates (Angstroms)
     ATOM                X               Y               Z
      1  H        -0.0847184006   -0.3836282975   -0.0807077843
      2  H         0.9101038702   -2.7999108085   -0.4460103655
      3  C         0.9643470085   -0.6436572268   -0.1458344512
      4  C         1.5104522247   -1.9049673183   -0.3374008106
      5  S         2.1540028107    0.5868335205   -0.0059266861
      6  C         2.9108565257   -1.8825367473   -0.3707413354
      7  H         3.5231841467   -2.7668921106   -0.5078909052
      8  C         3.4503118292   -0.5951736352   -0.2037996914
      9  H         4.7255832756    1.9458683184    0.2346097698
     10  C         4.8114293689   -0.2102198691   -0.1843099020
     11  C         5.3461192814    1.0830038045    0.0212779892
     12  S         6.1056432604   -1.3697808260   -0.4564599510
     13  C         6.7293063938    1.1299580382   -0.0374016110
     14  H         7.3144638813    2.0266594608    0.1300255324
     15  C         7.3264790446   -0.1230592922   -0.2961574842
     16  C         8.7108915959   -0.4627687223   -0.2468768477
     17  H         8.7355606966   -2.3371454038    0.8773157899
     18  C         9.3089778304   -1.5415824718    0.4151073371
     19  S         9.9371816156    0.6783797084   -0.7914693963
     20  C        10.7127416002   -1.4598701977    0.4496922969
     21  C        11.1930921668   -0.3209959301   -0.1716003403
     22  H        11.3538980098   -2.1958333594    0.9193313153
     23  H        12.2269719635   -0.0328251440   -0.3137296684

Z-matrix Print:
$molecule
1 2
S 
C  1 1.752270
C  2 1.411957 1 110.701247
H  3 1.083750 2 122.290901 1 177.759373 0
C  3 1.385227 2 113.578123 1 -0.304254 0
H  5 1.084025 3 123.569588 2 178.444033 0
C  5 1.414421 3 113.722375 2 0.238115 0
C  7 1.414641 5 127.917841 3 -179.162606 0
C  8 1.405769 7 128.320644 5 -178.083035 0
H  9 1.084361 8 123.037318 7 0.153499 0
C  9 1.400981 8 113.292302 7 179.957239 0
H  11 1.083115 9 124.394939 8 -179.900231 0
C  11 1.387743 9 112.463300 8 0.000000 0
H  13 1.082772 11 127.433829 9 -179.918904 0
C  2 1.426334 1 120.660161 3 171.485372 0
C  15 1.399918 2 127.919280 1 -39.878248 0
H  16 1.084142 15 122.760945 2 8.316125 0
C  16 1.406565 15 113.156092 2 -169.873904 0
H  18 1.083182 16 124.189354 15 179.756832 0
C  18 1.383393 16 112.539321 15 0.485709 0
H  20 1.082659 18 127.565168 16 -177.817357 0
S  13 1.717254 11 112.947776 9 0.075036 0
S  20 1.720552 18 112.738425 16 0.698611 0
$end

 
 --------------------------------------------------------------
 
                    Orbital Energies (a.u.)
 --------------------------------------------------------------
 
 Alpha MOs
 -- Occupied --
-89.075 -89.068 -89.060 -10.411 -10.410 -10.395 -10.386 -10.382
-10.372 -10.368 -10.366 -10.361 -10.354 -10.348 -10.339  -8.134
 -8.127  -8.119  -6.098  -6.095  -6.091  -6.091  -6.087  -6.084
 -6.083  -6.080  -6.076  -1.064  -1.041  -1.025  -0.944  -0.914
 -0.895  -0.888  -0.883  -0.842  -0.771  -0.748  -0.712  -0.702
 -0.688  -0.680  -0.671  -0.646  -0.607  -0.573  -0.571  -0.570
 -0.559  -0.552  -0.547  -0.544  -0.535  -0.521  -0.519  -0.508
 -0.493  -0.489  -0.451  -0.422  -0.408  -0.402  -0.394  -0.350
 -- Virtual --
 -0.229  -0.177  -0.146  -0.141  -0.128  -0.123  -0.113  -0.103
 -0.097  -0.095  -0.087  -0.084  -0.082  -0.081  -0.076  -0.073
 -0.070  -0.065  -0.060  -0.053  -0.048  -0.045  -0.035  -0.028
 -0.024  -0.022  -0.016  -0.009  -0.005  -0.000   0.005   0.005
  0.007   0.010   0.014   0.021   0.024   0.025   0.029   0.030
  0.034   0.036   0.040   0.043   0.047   0.048   0.051   0.054
  0.055   0.058   0.062   0.063   0.069   0.073   0.076   0.078
  0.082   0.089   0.099   0.101   0.103   0.108   0.109   0.113
  0.116   0.120   0.124   0.127   0.133   0.138   0.143   0.149
  0.153   0.155   0.160   0.166   0.170   0.181   0.183   0.188
  0.197   0.200   0.209   0.225   0.228   0.230   0.238   0.244
  0.252   0.259   0.265   0.268   0.274   0.320   0.330   0.345
  0.369   0.379   0.381   0.397   0.414   0.428   0.439   0.442
  0.459   0.469   0.473   0.497   0.501   0.503   0.510   0.514
  0.520   0.528   0.532   0.548   0.552   0.573   0.574   0.585
  0.589   0.593   0.596   0.607   0.616   0.630   0.639   0.648
  0.654   0.676   0.682   0.686   0.695   0.701   0.705   0.729
  0.752   0.787   0.795   0.800   0.812   0.817   0.823   0.828
  0.832   0.843   0.847   0.852   0.854   0.867   0.879   0.890
  0.900   0.913   0.917   0.918   0.933   0.949   0.958   0.964
  0.975   0.978   1.020   1.027   1.037   1.046   1.087   1.101
  1.106   1.118   1.130   1.151   1.170   1.192   1.194   1.197
  1.212   1.212   1.218   1.246   1.289   1.302   1.323   1.337
  1.353   1.379   1.404   1.450   1.479   1.522   1.542   1.558
  1.577   1.669   1.688   1.705   1.717   1.734   1.765   1.773
  1.784   1.788   1.794   1.819   1.845   1.869   1.877   1.900
  1.915   1.937   1.960   1.961   2.001   2.021   2.025   2.044
  2.063   2.073   2.085   2.108   2.124   2.153   2.185   2.226
  2.238   2.272   2.287   2.298   2.301   2.311   2.328   2.341
  2.361   2.377   2.384   2.394   2.410   2.445   2.449   2.453
  2.476   2.522   2.535   2.564   2.567   2.595   2.660   2.712
  2.728   2.749   2.777   2.787   2.796   2.987   3.036   3.070
  3.139   3.143   3.176   3.269   3.276   3.527   3.592   3.601
  3.824   3.833   3.844   4.096   4.136   4.161   4.174   4.178
  4.191   4.244   4.326   4.392   4.506   4.551   4.574
 
 Beta MOs
 -- Occupied --
-89.075 -89.068 -89.060 -10.408 -10.408 -10.394 -10.386 -10.379
-10.369 -10.366 -10.365 -10.359 -10.352 -10.349 -10.340  -8.134
 -8.127  -8.119  -6.099  -6.095  -6.091  -6.091  -6.088  -6.084
 -6.084  -6.080  -6.077  -1.060  -1.037  -1.022  -0.939  -0.912
 -0.893  -0.886  -0.879  -0.835  -0.768  -0.745  -0.710  -0.700
 -0.686  -0.678  -0.670  -0.643  -0.605  -0.569  -0.568  -0.563
 -0.557  -0.551  -0.543  -0.538  -0.533  -0.518  -0.509  -0.507
 -0.493  -0.488  -0.432  -0.419  -0.404  -0.398  -0.377
 -- Virtual --
 -0.298  -0.213  -0.167  -0.140  -0.138  -0.125  -0.119  -0.112
 -0.097  -0.095  -0.093  -0.084  -0.082  -0.080  -0.076  -0.073
 -0.071  -0.070  -0.064  -0.059  -0.053  -0.047  -0.044  -0.035
 -0.027  -0.023  -0.021  -0.015  -0.008  -0.005   0.001   0.005
  0.006   0.007   0.010   0.015   0.021   0.025   0.025   0.030
  0.031   0.035   0.037   0.041   0.044   0.047   0.048   0.053
  0.054   0.055   0.059   0.063   0.064   0.070   0.074   0.077
  0.078   0.083   0.090   0.100   0.102   0.103   0.109   0.110
  0.114   0.117   0.121   0.125   0.128   0.134   0.139   0.144
  0.150   0.153   0.157   0.161   0.167   0.171   0.181   0.184
  0.189   0.198   0.202   0.211   0.227   0.230   0.232   0.239
  0.244   0.253   0.260   0.266   0.270   0.275   0.321   0.331
  0.346   0.370   0.380   0.383   0.397   0.415   0.429   0.440
  0.444   0.460   0.470   0.474   0.499   0.503   0.510   0.514
  0.516   0.525   0.532   0.534   0.552   0.553   0.574   0.577
  0.586   0.591   0.594   0.597   0.613   0.618   0.635   0.643
  0.649   0.656   0.680   0.686   0.688   0.696   0.705   0.708
  0.730   0.754   0.790   0.796   0.801   0.814   0.819   0.825
  0.829   0.834   0.845   0.848   0.854   0.855   0.868   0.880
  0.891   0.901   0.914   0.918   0.921   0.934   0.949   0.959
  0.965   0.976   0.979   1.022   1.030   1.039   1.049   1.090
  1.103   1.111   1.123   1.133   1.153   1.172   1.193   1.197
  1.201   1.214   1.219   1.222   1.248   1.292   1.306   1.329
  1.341   1.358   1.383   1.408   1.453   1.483   1.529   1.548
  1.566   1.584   1.673   1.691   1.707   1.721   1.737   1.766
  1.776   1.787   1.791   1.795   1.822   1.849   1.872   1.881
  1.906   1.918   1.941   1.963   1.966   2.008   2.027   2.030
  2.049   2.068   2.078   2.090   2.114   2.129   2.158   2.190
  2.228   2.239   2.275   2.291   2.303   2.305   2.316   2.330
  2.343   2.364   2.381   2.387   2.396   2.413   2.448   2.451
  2.456   2.479   2.525   2.537   2.567   2.570   2.598   2.663
  2.714   2.731   2.752   2.778   2.789   2.798   2.988   3.037
  3.071   3.139   3.143   3.176   3.270   3.277   3.529   3.593
  3.603   3.824   3.833   3.844   4.100   4.140   4.165   4.177
  4.180   4.195   4.249   4.329   4.397   4.510   4.554   4.577
 --------------------------------------------------------------
 
          Ground-State Mulliken Net Atomic Charges

     Atom                 Charge (a.u.)    Spin (a.u.)
  --------------------------------------------------------
      1 H                     0.244738      -0.011900
      2 H                     0.163079       0.001324
      3 C                     0.087760       0.234297
      4 C                    -0.339600      -0.037043
      5 S                    -0.071327      -0.024932
      6 C                     0.624657       0.139026
      7 H                     0.148354      -0.009150
      8 C                    -0.294436       0.040622
      9 H                     0.143554      -0.005458
     10 C                    -0.047770       0.173518
     11 C                    -0.225407       0.070899
     12 S                    -0.142779      -0.057642
     13 C                     0.216007       0.058127
     14 H                     0.166288      -0.003812
     15 C                    -0.004154       0.177129
     16 C                    -0.238921       0.032779
     17 H                     0.156634      -0.007729
     18 C                     0.280670       0.104765
     19 S                     0.117265      -0.019792
     20 C                    -0.433746      -0.026437
     21 C                     0.062970       0.179199
     22 H                     0.154978       0.001729
     23 H                     0.231184      -0.009519
  --------------------------------------------------------
  Sum of atomic charges =     1.000000
  Sum of spin   charges =     1.000000

 -----------------------------------------------------------------
                    Cartesian Multipole Moments
 -----------------------------------------------------------------
    Charge (ESU x 10^10)
                 4.8032
    Dipole Moment (Debye)
         X      28.3894      Y      -2.5220      Z      -0.1769
       Tot      28.5017
    Quadrupole Moments (Debye-Ang)
        XX     150.1992     XY     -11.6741     YY     -87.7275
        XZ       1.3345     YZ      -0.6319     ZZ    -109.0556
    Octopole Moments (Debye-Ang^2)
       XXX     654.3912    XXY     -74.3035    XYY    -546.6623
       YYY      99.9252    XXZ      37.3930    XYZ     -23.7385
       YYZ      23.6668    XZZ    -657.1097    YZZ      41.8212
       ZZZ      65.3921
    Hexadecapole Moments (Debye-Ang^3)
      XXXX   -2668.0752   XXXY    -626.2929   XXYY   -4515.0816
      XYYY     559.5497   YYYY    -809.7347   XXXZ     533.2578
      XXYZ    -301.2628   XYYZ     188.5487   YYYZ      -7.6471
      XXZZ   -5225.3203   XYZZ     212.1486   YYZZ    -193.8613
      XZZZ     401.4423   YZZZ     -13.7675   ZZZZ    -236.3644
 -----------------------------------------------------------------
Archival summary:
1\1\nid00473\OPT\ProcedureUnspecified\BasisUnspecified\3128(1+,2)\bwood\TueMay3011:03:132017TueMay3011:03:132017\0\\#,OPT,ProcedureUnspecified,BasisUnspecified,\\1,2\S\C,1,1.75227\C,2,1.41196,1,110.701\H,3,1.08375,2,122.291,1,177.759,0\C,3,1.38523,2,113.578,1,-0.304254,0\H,5,1.08403,3,123.57,2,178.444,0\C,5,1.41442,3,113.722,2,0.238115,0\C,7,1.41464,5,127.918,3,-179.163,0\C,8,1.40577,7,128.321,5,-178.083,0\H,9,1.08436,8,123.037,7,0.153499,0\C,9,1.40098,8,113.292,7,179.957,0\H,11,1.08311,9,124.395,8,-179.9,0\C,11,1.38774,9,112.463,8,0,0\H,13,1.08277,11,127.434,9,-179.919,0\C,2,1.42633,1,120.66,3,171.485,0\C,15,1.39992,2,127.919,1,-39.8782,0\H,16,1.08414,15,122.761,2,8.31612,0\C,16,1.40657,15,113.156,2,-169.874,0\H,18,1.08318,16,124.189,15,179.757,0\C,18,1.38339,16,112.539,15,0.485709,0\H,20,1.08266,18,127.565,16,-177.817,0\S,13,1.71725,11,112.948,9,0.075036,0\S,20,1.72055,18,112.738,16,0.698611,0\\\@

 Total job time:  268.95s(wall), 283.88s(cpu) 
 Tue May 30 11:03:13 2017

        *************************************************************
        *                                                           *
        *  Thank you very much for using Q-Chem.  Have a nice day.  *
        *                                                           *
        *************************************************************


0 sent ACK to 0 
now end server 0 ... 
