srun -N 1 --ntasks-per-node 22 --cpus-per-task 2 --cpu_bind=cores --nodelist nid00481 /global/project/projectdirs/jcesr/qchem/qc44/cnl_qc441/dist/exe/qcprog.cori.haswell.exe .pt_nn_cation_-100.0.in.33441.qcin.1 /dev/shm/eg_qchem/qchem33441/
Process 1 of 22 is on nid00481 - thread support 0
Process 2 of 22 is on nid00481 - thread support 0
Process 3 of 22 is on nid00481 - thread support 0
Process 4 of 22 is on nid00481 - thread support 0
Process 5 of 22 is on nid00481 - thread support 0
Process 6 of 22 is on nid00481 - thread support 0
Process 0 of 22 is on nid00481 - thread support 0
Process 21 of 22 is on nid00481 - thread support 0
initial socket setup ...start
initial socket setup ...done 
now start server 0 ... 
nid00481 10.128.1
Q-Chem Developer Version! Running on 10.128.1.*
                  Welcome to Q-Chem
     A Quantum Leap Into The Future Of Chemistry


 Q-Chem 4.4, Q-Chem, Inc., Pleasanton, CA (2016)

 Y. Shao,  Z. Gan,  E. Epifanovsky,  A. T. B. Gilbert,  M. Wormit,  
 J. Kussmann,  A. W. Lange,  A. Behn,  J. Deng,  X. Feng,  D. Ghosh,  
 M. Goldey,  P. R. Horn,  L. D. Jacobson,  I. Kaliman,  F. Rob,  
 R. Z. Khaliullin,  T. Kus,  A. Landau,  J. Liu,  E. I. Proynov,  Y. M. Rhee,  
 R. M. Richard,  M. A. Rohrdanz,  R. P. Steele,  E. J. Sundstrom,  
 H. L. Woodcock III,  P. M. Zimmerman,  D. Zuev,  B. Albrecht,  E. Alguire,  
 B. Austin,  S. A. Baeppler,  G. J. O. Beran,  Y. A. Bernard,  
 E. J. Berquist,  K. Brandhorst,  K. B. Bravaya,  S. T. Brown,  D. Casanova,  
 C.-M. Chang,  Y. Chen,  S. H. Chien,  K. D. Closser,  M. P. Coons,  
 D. L. Crittenden,  S. Dasgupta,  M. Diedenhofen,  R. A. DiStasio Jr.,  
 H. Do,  A. D. Dutoi,  R. G. Edgar,  P.-T. Fang,  S. Fatehi,  Q. Feng,  
 L. Fusti-Molnar,  A. Ghysels,  A. Golubeva-Zadorozhnaya,  J. Gomes,  
 A. Gunina,  M. W. D. Hanson-Heine,  P. H. P. Harbach,  A. W. Hauser,  
 J. E. Herr,  E. G. Hohenstein,  Z. C. Holden,  K. Hui,  T.-C. Jagau,  H. Ji,  
 B. Kaduk,  K. Khistyaev,  Jaehoon Kim,  Jihan Kim,  R. A. King,  
 P. Klunzinger,  K. Koh,  D. Kosenkov,  T. Kowalczyk,  C. M. Krauter,  
 A. Kunitsa,  K. U. Lao,  A. Laurent,  K. V. Lawler,  J. Lee,  D. Lefrancois,  
 S. Lehtola,  S. V. Levchenko,  C. Y. Lin,  Y.-S. Lin,  F. Liu,  E. Livshits,  
 R. C. Lochan,  A. Luenser,  P. Manohar,  S. F. Manzer,  S.-P. Mao,  Y. Mao,  
 N. Mardirossian,  A. V. Marenich,  L. A. Martinez-Martinez,  S. A. Maurer,  
 N. J. Mayhall,  J.-M. Mewes,  A. F. Morrison,  K. Nanda,  T. S. Nguyen-Beck,  
 C. M. Oana,  R. Olivares-Amaya,  D. P. O'Neill,  J. A. Parkhill,  
 T. M. Perrine,  R. Peverati,  P. A. Pieniazek,  F. Plasser,  A. Prociuk,  
 D. R. Rehn,  E. Rosta,  N. J. Russ,  N. Sergueev,  S. M. Sharada,  
 S. Sharma,  D. W. Small,  A. Sodt,  T. Stauch,  T. Stein,  D. Stuck,  
 Y.-C. Su,  A. J. W. Thom,  T. Tsuchimochi,  L. Vogt,  O. Vydrov,  T. Wang,  
 M. A. Watson,  J. Wenzel,  A. White,  C. F. Williams,  V. Vanovschi,  
 K. Yao,  S. Yeganeh,  S. R. Yost,  Z.-Q. You,  I. Y. Zhang,  X. Zhang,  
 Y. Zhao,  B. R. Brooks,  G. K. L. Chan,  D. M. Chipman,  C. J. Cramer,  
 W. A. Goddard III,  M. S. Gordon,  W. J. Hehre,  A. Klamt,  
 H. F. Schaefer III,  M. W. Schmidt,  C. D. Sherrill,  D. G. Truhlar,  
 A. Warshel,  X. Xu,  A. Aspuru-Guzik,  R. Baer,  A. T. Bell,  N. A. Besley,  
 J.-D. Chai,  A. Dreuw,  B. D. Dunietz,  T. R. Furlani,  S. R. Gwaltney,  
 C.-P. Hsu,  Y. Jung,  J. Kong,  D. S. Lambrecht,  W. Liang,  C. Ochsenfeld,  
 V. A. Rassolov,  L. V. Slipchenko,  J. E. Subotnik,  T. Van Voorhis,  
 J. M. Herbert,  A. I. Krylov,  P. M. W. Gill,  M. Head-Gordon

 Contributors to earlier versions of Q-Chem not listed above: 
 R. D. Adamson,  J. Baker,  E. F. C. Byrd,  A. K. Chakraborty,  C.-L. Cheng,  
 H. Dachsel,  R. J. Doerksen,  G. Hawkins,  A. Heyden,  S. Hirata,  
 G. Kedziora,  F. J. Keil,  C. Kelley,  P. P. Korambath,  W. Kurlancheek,  
 A. M. Lee,  M. S. Lee,  D. Liotard,  I. Lotan,  P. E. Maslen,  N. Nair,  
 D. Neuhauser,  R. Olson,  B. Peters,  J. Ritchie,  N. E. Schultz,  
 N. Shenvi,  A. C. Simmonett,  K. S. Thanthiriwatte,  Q. Wu,  W. Zhang

 Please cite Q-Chem as follows:
 Y. Shao et al., Mol. Phys. 113, 184-215 (2015)
 DOI: 10.1080/00268976.2014.952696

 Q-Chem 4.4.2 for Intel X86 EM64T Linux

 Parts of Q-Chem use Armadillo 5.200.1 (Boston Tea Smuggler).
 http://arma.sourceforge.net/

 Q-Chem begins on Tue May 30 10:58:43 2017  

Host: nid00444
0

     Scratch files written to /dev/shm/eg_qchem/qchem33441.0//
 Parallel job on  22  processors

Checking the input file for inconsistencies... 	...done.

--------------------------------------------------------------
User input:
--------------------------------------------------------------
$molecule
 1  2
 H           0.00000000        0.00000000        0.00000000
 H           0.66366000       -2.46828000       -0.59127000
 C           0.99103000       -0.39106000       -0.11652000
 C           1.36812000       -1.67442000       -0.42485000
 S           2.34669000        0.62586000        0.08638000
 C           2.76167000       -1.82175000       -0.50822000
 H           3.26291000       -2.73877000       -0.76199000
 C           3.44671000       -0.65043000       -0.26057000
 H           4.55645000        1.43902671        0.15704385
 C           4.88382000       -0.65043000       -0.26057000
 C           5.26091000        0.64090194        0.01245390
 S           6.23948000       -1.67253113       -0.43550939
 C           6.65446000        0.79046248        0.09175311
 H           7.15570000        1.71409653        0.32028213
 C           7.33950000       -0.38720773       -0.12368600
 C           8.77661000       -0.38720773       -0.12368600
 H           8.96041000       -0.43205032       -2.27091061
 C           9.46165000       -0.37954191       -1.32087569
 S           9.87663000       -0.32022544        1.19722402
 C          10.85520000       -0.32948584       -1.15916269
 C          11.23229000       -0.30174253        0.16042431
 H          11.55966000       -0.32289826       -1.97025178
 H          12.22332000       -0.27124015        0.56733338
$end


$rem
         jobtype = opt
        exchange = b3lyp
           basis = 6-31++g**
  max_scf_cycles = 150
      mem_static = 281
       mem_total = 2818
      sym_ignore = true
        symmetry = false
          thresh = 12
$end


$opt
CONSTRAINT
tors 13 15 16 18 -100.0
ENDCONSTRAINT
$end

--------------------------------------------------------------
 ----------------------------------------------------------------
             Standard Nuclear Orientation (Angstroms)
    I     Atom           X                Y                Z
 ----------------------------------------------------------------
    1      H       0.0000000000     0.0000000000     0.0000000000
    2      H       0.6636600000    -2.4682800000    -0.5912700000
    3      C       0.9910300000    -0.3910600000    -0.1165200000
    4      C       1.3681200000    -1.6744200000    -0.4248500000
    5      S       2.3466900000     0.6258600000     0.0863800000
    6      C       2.7616700000    -1.8217500000    -0.5082200000
    7      H       3.2629100000    -2.7387700000    -0.7619900000
    8      C       3.4467100000    -0.6504300000    -0.2605700000
    9      H       4.5564500000     1.4390267100     0.1570438500
   10      C       4.8838200000    -0.6504300000    -0.2605700000
   11      C       5.2609100000     0.6409019400     0.0124539000
   12      S       6.2394800000    -1.6725311300    -0.4355093900
   13      C       6.6544600000     0.7904624800     0.0917531100
   14      H       7.1557000000     1.7140965300     0.3202821300
   15      C       7.3395000000    -0.3872077300    -0.1236860000
   16      C       8.7766100000    -0.3872077300    -0.1236860000
   17      H       8.9604100000    -0.4320503200    -2.2709106100
   18      C       9.4616500000    -0.3795419100    -1.3208756900
   19      S       9.8766300000    -0.3202254400     1.1972240200
   20      C      10.8552000000    -0.3294858400    -1.1591626900
   21      C      11.2322900000    -0.3017425300     0.1604243100
   22      H      11.5596600000    -0.3228982600    -1.9702517800
   23      H      12.2233200000    -0.2712401500     0.5673333800
 ----------------------------------------------------------------
 Nuclear Repulsion Energy =  1184.5003438876 hartrees
 There are       64 alpha and       63 beta electrons
 Requested basis set is 6-31++G(d,p)
 There are 110 shells and 345 basis functions

 Total QAlloc Memory Limit   2818 MB
 Mega-Array Size       275 MB
 MEM_STATIC part       281 MB
 A cutoff of  1.0D-12 yielded   4723 shell pairs
 There are     48104 function pairs

 Q-Chem warning in module /project/projectdirs/jcesr/qchem/qc44/cnl_qc441/compile/cori/qc_src/libqints/qchem/aobasis.C, line 68:

 Using reconstructed effective core potential

 
 -------------------------------------------------------
 OpenMP Integral Computing Module                       
 Release: version 1.0, May 2013, Q-Chem Inc. Pittsburgh 
 -------------------------------------------------------
 Integral Job Info:
 Integral job number is                      11
 Integral operator is                         1
 short-range coefficients                     0
 long-range coefficients              100000000
 Omega coefficients                           0
 if combine SR and LR in K                    0
 Integral screening is                        0
 Integral computing path is                   2
 max size of driver memory is            800000
 size of driver memory is                593474
 size of scratch memory is             15166112
 max col of scratch BK array               1296
 max len of scratch array in speh3          155
 max len of scratch index in speh4           18
 max int batch size is                      520
 min int batch size is                       52
 fixed nKL is                                52
 max L of basis functions is                  2
 order of int derivative is                   0
 number of shells is                        110
 number of basis is                         345
 number of cartesian basis is               345
 number of contracted shell pairs          4723
 number of primitive shell pairs          14788
 maxK2 (contraction) of shell pair           36
 max number of K2 of shell pair               1
 max number of CS2 of shell pair            509
 max number of PS2 of shell pair           3054
 mem total for path MDJ                  101288
 -------------------------------------------------------
 Smallest overlap matrix eigenvalue = 9.37E-08
 Linear dependence detected in AO basis
 Number of orthogonalized atomic orbitals = 342
 Maximum deviation from orthogonality = 1.036E-10

 Scale SEOQF with 1.000000e-02/1.000000e-01/1.000000e-01

 Standard Electronic Orientation quadrupole field applied
 Nucleus-field energy     =     0.0000000248 hartrees
 Guess from superposition of atomic densities
 Warning:  Energy on first SCF cycle will be non-variational
 An unrestricted hybrid HF-DFT SCF calculation will be
 performed using Pulay DIIS extrapolation
 Exchange:     0.2000 Hartree-Fock + 0.0800 Slater + 0.7200 B88
 Correlation:  0.1900 VWN1RPA + 0.8100 LYP
 Using SG-1 standard quadrature grid
 SCF converges when DIIS error is below 1.0E-08
 Inaccurate integrated density:
   Number of electrons =   127
   Numerical integral  =   127.999460865338
   Relative error      =     0.7869770593 %
 ---------------------------------------
  Cycle       Energy         DIIS Error
 ---------------------------------------
    1   -1660.7259150183      3.84E-02
    2   -1656.1375949939      3.60E-03
    3   -1655.6631079913      6.05E-03
    4   -1656.3084862276      1.57E-03
    5   -1656.3512766219      3.95E-04
    6   -1656.3531360241      2.66E-04
    7   -1656.3541874005      1.22E-04
    8   -1656.3544841080      3.88E-05
    9   -1656.3545357033      1.09E-05
   10   -1656.3545560598      6.74E-06
   11   -1656.3545670815      6.21E-06
   12   -1656.3545725880      2.88E-06
   13   -1656.3545742983      1.55E-06
   14   -1656.3545746151      6.75E-07
   15   -1656.3545747044      2.83E-07
   16   -1656.3545747123      1.21E-07
   17   -1656.3545747139      5.07E-08
   18   -1656.3545747136      2.56E-08
   19   -1656.3545747142      1.29E-08
   20   -1656.3545747141      8.05E-09 Convergence criterion met
 ---------------------------------------
 <S^2> = 0.7633
 SCF time:  CPU 27.32 s  wall 25.74 s
 SCF   energy in the final basis set = -1656.3545747141
 Total energy in the final basis set = -1656.3545747141
 
 --------------------------------------------------------------
 
                    Orbital Energies (a.u.)
 --------------------------------------------------------------
 
 Alpha MOs
 -- Occupied --
-89.090 -89.081 -89.048 -10.410 -10.409 -10.408 -10.394 -10.366
-10.365 -10.364 -10.357 -10.357 -10.346 -10.329 -10.317  -8.149
 -8.141  -8.107  -6.114  -6.110  -6.106  -6.105  -6.101  -6.098
 -6.071  -6.067  -6.064  -1.087  -1.060  -1.025  -0.960  -0.921
 -0.905  -0.898  -0.872  -0.847  -0.774  -0.753  -0.712  -0.699
 -0.692  -0.690  -0.675  -0.647  -0.610  -0.588  -0.586  -0.579
 -0.564  -0.554  -0.552  -0.529  -0.526  -0.524  -0.522  -0.506
 -0.502  -0.476  -0.453  -0.428  -0.418  -0.386  -0.382  -0.367
 -- Virtual --
 -0.224  -0.163  -0.157  -0.146  -0.122  -0.119  -0.114  -0.107
 -0.103  -0.098  -0.094  -0.088  -0.083  -0.078  -0.075  -0.071
 -0.067  -0.064  -0.058  -0.056  -0.045  -0.042  -0.036  -0.034
 -0.030  -0.020  -0.016  -0.012  -0.007   0.000   0.002   0.005
  0.012   0.013   0.016   0.018   0.020   0.022   0.027   0.028
  0.032   0.037   0.039   0.043   0.044   0.045   0.052   0.054
  0.058   0.058   0.062   0.064   0.065   0.073   0.079   0.082
  0.084   0.092   0.099   0.102   0.105   0.109   0.114   0.116
  0.121   0.123   0.129   0.131   0.132   0.149   0.152   0.156
  0.162   0.164   0.168   0.173   0.175   0.182   0.188   0.194
  0.203   0.209   0.223   0.225   0.232   0.237   0.250   0.250
  0.260   0.262   0.274   0.285   0.311   0.342   0.347   0.358
  0.368   0.370   0.383   0.403   0.423   0.433   0.454   0.474
  0.478   0.485   0.494   0.494   0.504   0.506   0.516   0.520
  0.533   0.550   0.556   0.567   0.571   0.584   0.588   0.592
  0.594   0.603   0.616   0.626   0.641   0.644   0.653   0.659
  0.666   0.672   0.675   0.678   0.697   0.713   0.737   0.771
  0.787   0.797   0.799   0.809   0.821   0.826   0.833   0.842
  0.845   0.854   0.858   0.861   0.869   0.879   0.891   0.900
  0.905   0.915   0.929   0.939   0.952   0.959   0.965   0.991
  1.010   1.011   1.028   1.043   1.063   1.087   1.103   1.108
  1.139   1.144   1.166   1.174   1.186   1.200   1.204   1.217
  1.229   1.248   1.251   1.264   1.288   1.299   1.337   1.341
  1.380   1.394   1.442   1.472   1.496   1.545   1.582   1.647
  1.664   1.698   1.717   1.742   1.753   1.772   1.783   1.789
  1.811   1.835   1.845   1.869   1.873   1.894   1.907   1.939
  1.956   1.964   2.007   2.028   2.041   2.045   2.069   2.079
  2.091   2.118   2.135   2.171   2.184   2.218   2.224   2.260
  2.273   2.303   2.314   2.319   2.334   2.355   2.365   2.382
  2.389   2.396   2.412   2.434   2.443   2.482   2.489   2.509
  2.526   2.557   2.564   2.581   2.630   2.677   2.688   2.730
  2.741   2.787   2.791   2.810   3.024   3.064   3.081   3.149
  3.180   3.198   3.283   3.316   3.554   3.613   3.646   3.816
  3.841   3.855   4.094   4.150   4.172   4.181   4.193   4.226
  4.244   4.345   4.407   4.509   4.558   4.583
 
 Beta MOs
 -- Occupied --
-89.090 -89.081 -89.048 -10.408 -10.406 -10.405 -10.391 -10.365
-10.364 -10.363 -10.357 -10.357 -10.345 -10.328 -10.317  -8.149
 -8.141  -8.107  -6.114  -6.110  -6.106  -6.106  -6.102  -6.098
 -6.071  -6.067  -6.064  -1.081  -1.055  -1.022  -0.953  -0.919
 -0.903  -0.893  -0.871  -0.842  -0.771  -0.750  -0.709  -0.696
 -0.690  -0.688  -0.673  -0.646  -0.609  -0.585  -0.577  -0.574
 -0.562  -0.552  -0.542  -0.528  -0.524  -0.523  -0.515  -0.505
 -0.500  -0.475  -0.431  -0.424  -0.414  -0.383  -0.366
 -- Virtual --
 -0.317  -0.206  -0.159  -0.145  -0.144  -0.120  -0.118  -0.105
 -0.103  -0.097  -0.094  -0.091  -0.087  -0.083  -0.078  -0.074
 -0.069  -0.066  -0.063  -0.057  -0.055  -0.045  -0.042  -0.035
 -0.033  -0.029  -0.019  -0.015  -0.011  -0.007   0.000   0.003
  0.005   0.013   0.013   0.017   0.019   0.020   0.023   0.027
  0.028   0.033   0.038   0.040   0.043   0.044   0.045   0.052
  0.055   0.058   0.060   0.063   0.065   0.066   0.074   0.080
  0.082   0.084   0.093   0.100   0.103   0.105   0.110   0.114
  0.117   0.121   0.124   0.130   0.132   0.133   0.150   0.153
  0.157   0.162   0.167   0.169   0.174   0.176   0.182   0.189
  0.195   0.204   0.210   0.224   0.226   0.234   0.238   0.251
  0.252   0.261   0.263   0.276   0.286   0.312   0.343   0.349
  0.359   0.368   0.372   0.383   0.405   0.425   0.435   0.456
  0.475   0.482   0.490   0.495   0.496   0.507   0.514   0.520
  0.525   0.534   0.552   0.558   0.569   0.575   0.586   0.589
  0.596   0.599   0.604   0.617   0.627   0.643   0.646   0.656
  0.661   0.670   0.674   0.678   0.681   0.700   0.715   0.738
  0.772   0.788   0.801   0.802   0.811   0.822   0.830   0.835
  0.843   0.848   0.855   0.859   0.862   0.870   0.881   0.892
  0.901   0.907   0.916   0.931   0.941   0.953   0.960   0.967
  0.991   1.011   1.013   1.030   1.047   1.066   1.090   1.106
  1.110   1.143   1.151   1.169   1.179   1.189   1.204   1.210
  1.220   1.231   1.250   1.254   1.269   1.293   1.304   1.341
  1.345   1.382   1.398   1.445   1.479   1.501   1.556   1.585
  1.654   1.667   1.702   1.719   1.748   1.756   1.774   1.785
  1.791   1.814   1.840   1.849   1.872   1.877   1.895   1.911
  1.941   1.963   1.968   2.012   2.034   2.050   2.052   2.072
  2.086   2.095   2.123   2.141   2.174   2.189   2.221   2.226
  2.262   2.278   2.306   2.317   2.323   2.337   2.357   2.368
  2.387   2.392   2.398   2.413   2.437   2.446   2.485   2.490
  2.511   2.528   2.559   2.568   2.583   2.632   2.681   2.691
  2.731   2.742   2.788   2.793   2.812   3.025   3.065   3.082
  3.149   3.181   3.198   3.285   3.317   3.555   3.614   3.647
  3.816   3.842   3.856   4.099   4.156   4.175   4.184   4.195
  4.227   4.249   4.348   4.411   4.512   4.562   4.585
 --------------------------------------------------------------
 
          Ground-State Mulliken Net Atomic Charges

     Atom                 Charge (a.u.)    Spin (a.u.)
  --------------------------------------------------------
      1 H                     0.254418      -0.014093
      2 H                     0.161707       0.001040
      3 C                     0.101503       0.286000
      4 C                    -0.402575      -0.040102
      5 S                    -0.099019      -0.042768
      6 C                     0.575024       0.152792
      7 H                     0.148377      -0.009676
      8 C                     0.141731       0.096259
      9 H                     0.068238      -0.008599
     10 C                    -0.170471       0.150592
     11 C                    -0.472874       0.125462
     12 S                     0.331223      -0.045114
     13 C                    -0.042984      -0.028877
     14 H                     0.175329       0.001295
     15 C                    -0.145763       0.262964
     16 C                    -0.053773       0.039974
     17 H                     0.145843      -0.002820
     18 C                     0.080045       0.022442
     19 S                     0.189111      -0.007280
     20 C                    -0.322333      -0.004309
     21 C                    -0.035697       0.065700
     22 H                     0.147871       0.001153
     23 H                     0.225071      -0.002034
  --------------------------------------------------------
  Sum of atomic charges =     1.000000
  Sum of spin   charges =     1.000000

 -----------------------------------------------------------------
                    Cartesian Multipole Moments
 -----------------------------------------------------------------
    Charge (ESU x 10^10)
                 4.8032
    Dipole Moment (Debye)
         X      25.3883      Y      -2.1806      Z      -1.3551
       Tot      25.5178
    Quadrupole Moments (Debye-Ang)
        XX     111.8079     XY      -6.8070     YY     -95.4701
        XZ      -8.1473     YZ       3.8720     ZZ    -102.6847
    Octopole Moments (Debye-Ang^2)
       XXX     210.7121    XXY       0.0676    XYY    -623.8590
       YYY     127.9425    XXZ     -50.2114    XYZ      15.9008
       YYZ       8.3568    XZZ    -603.8865    YZZ      45.7478
       ZZZ      32.5101
    Hexadecapole Moments (Debye-Ang^3)
      XXXX   -7711.6252   XXXY     310.0713   XXYY   -5271.6904
      XYYY     785.1634   YYYY    -645.7929   XXXZ    -356.2685
      XXYZ      72.2305   XYYZ      54.0828   YYYZ     -50.6889
      XXZZ   -4734.4384   XYZZ     243.6411   YYZZ    -190.9977
      XZZZ      89.3310   YZZZ     -71.7488   ZZZZ    -384.7361
 -----------------------------------------------------------------
 Calculating analytic gradient of the SCF energy
 Gradient of SCF Energy
            1           2           3           4           5           6
    1   0.0071441   0.0045089  -0.0053703  -0.0041353   0.0036758   0.0291278
    2  -0.0034775   0.0049246  -0.0015689   0.0165834  -0.0290089   0.0153177
    3  -0.0011243   0.0011262  -0.0009600   0.0049297  -0.0062477   0.0041046
            7           8           9          10          11          12
    1  -0.0015135  -0.0261891  -0.0020756   0.0490420  -0.0607976   0.0001862
    2   0.0061127   0.0586757  -0.0063280  -0.0442934  -0.0345338   0.0412073
    3   0.0006048   0.0105343  -0.0001930  -0.0066569  -0.0079912   0.0103700
           13          14          15          16          17          18
    1   0.0273173  -0.0036055  -0.0010651  -0.0041004   0.0019459  -0.0043801
    2  -0.0167488  -0.0046354  -0.0219016   0.0162196  -0.0005372   0.0095981
    3  -0.0119408  -0.0000112  -0.0152660   0.0222645   0.0059800   0.0046883
           19          20          21          22          23
    1   0.0058044  -0.0079524   0.0031059  -0.0040395  -0.0066339
    2  -0.0025350  -0.0016535  -0.0010074  -0.0008832   0.0004733
    3  -0.0240063   0.0007969   0.0073101   0.0052812  -0.0035933
 Max gradient component =       6.080E-02
 RMS gradient           =       1.772E-02
 Gradient time:  CPU 4.27 s  wall 4.28 s
 Geometry Optimization Parameters
   NAtoms,    NIC,     NZ,  NCons,   NDum,   NFix, NCnnct, MaxDiis
       23     166       0       1       0       0       0       0


** CONSTRAINED OPTIMIZATION IN DELOCALIZED INTERNAL COORDINATES **
   Searching for a Minimum

   Optimization Cycle:   1

                       Coordinates (Angstroms)
     ATOM                X               Y               Z
      1  H         0.0000000000    0.0000000000    0.0000000000
      2  H         0.6636600000   -2.4682800000   -0.5912700000
      3  C         0.9910300000   -0.3910600000   -0.1165200000
      4  C         1.3681200000   -1.6744200000   -0.4248500000
      5  S         2.3466900000    0.6258600000    0.0863800000
      6  C         2.7616700000   -1.8217500000   -0.5082200000
      7  H         3.2629100000   -2.7387700000   -0.7619900000
      8  C         3.4467100000   -0.6504300000   -0.2605700000
      9  H         4.5564500000    1.4390267100    0.1570438500
     10  C         4.8838200000   -0.6504300000   -0.2605700000
     11  C         5.2609100000    0.6409019400    0.0124539000
     12  S         6.2394800000   -1.6725311300   -0.4355093900
     13  C         6.6544600000    0.7904624800    0.0917531100
     14  H         7.1557000000    1.7140965300    0.3202821300
     15  C         7.3395000000   -0.3872077300   -0.1236860000
     16  C         8.7766100000   -0.3872077300   -0.1236860000
     17  H         8.9604100000   -0.4320503200   -2.2709106100
     18  C         9.4616500000   -0.3795419100   -1.3208756900
     19  S         9.8766300000   -0.3202254400    1.1972240200
     20  C        10.8552000000   -0.3294858400   -1.1591626900
     21  C        11.2322900000   -0.3017425300    0.1604243100
     22  H        11.5596600000   -0.3228982600   -1.9702517800
     23  H        12.2233200000   -0.2712401500    0.5673333800
   Point Group: c1    Number of degrees of freedom:    63


   Energy is  -1656.354574714

              Constraints and their Current Values
                                        Value     Constraint
   Dihedral:       13  15  16  18     -100.000     -100.000

 Attempting to Generate Delocalized Internal Coordinates

 62 Hessian modes will be used to form the next step
  Hessian Eigenvalues:
     0.045000    0.045000    0.045000    0.045000    0.045000    0.045000
     0.045001    0.045001    0.045001    0.045002    0.045003    0.045003
     0.045011    0.045012    0.045012    0.045025    0.045032    0.045058
     0.045059    0.159944    0.159945    0.159945    0.159992    0.159993
     0.159993    0.160000    0.160000    0.221307    0.221308    0.227041
     0.237995    0.238010    0.245411    0.249662    0.249670    0.249670
     0.249825    0.326317    0.326319    0.326962    0.340043    0.340044
     0.340629    0.365512    0.365512    0.365513    0.366888    0.366889
     0.366889    0.370099    0.370100    0.399845    0.399845    0.435419
     0.435419    0.435422    0.463117    0.463122    0.464282    0.495500
     0.495500    0.495533

 Minimum Search - Taking Simple RFO Step
 Searching for Lamda that Minimizes Along All modes
 Value Taken    Lamda =  -0.06597635
 Calculated Step too Large.  Step scaled by  0.682903
 Step Taken.  Stepsize is  0.300000

                             Maximum     Tolerance    Cnvgd?
         Gradient           0.069617      0.000300      NO
         Displacement       0.146438      0.001200      NO
         Energy change     *********      0.000001      NO


 New Cartesian Coordinates Obtained by Inverse Iteration

 Displacement from previous Coordinates is:  1.750004
 ----------------------------------------------------------------
             Standard Nuclear Orientation (Angstroms)
    I     Atom           X                Y                Z
 ----------------------------------------------------------------
    1      H      -0.1096802122    -0.2787558215    -0.0308382431
    2      H       0.7912086409    -2.6815723258    -0.6419904714
    3      C       0.9224634173    -0.5726895583    -0.1365602851
    4      C       1.4189106766    -1.8226650871    -0.4559325759
    5      S       2.1623847593     0.5897246525     0.1016494373
    6      C       2.8189646986    -1.8296916360    -0.5163285036
    7      H       3.4084409351    -2.6987114117    -0.7709485364
    8      C       3.3988211410    -0.5822636326    -0.2416993667
    9      H       4.6425041201     1.7433233440     0.2320094107
   10      C       4.8299981347    -0.4024963680    -0.2118189918
   11      C       5.2940827037     0.9007324057     0.0716795247
   12      S       6.1622773140    -1.4742142204    -0.4113130029
   13      C       6.6879023852     0.9962978369     0.1336392458
   14      H       7.2363846873     1.8998661277     0.3561800813
   15      C       7.3206878670    -0.2215447408    -0.1047654255
   16      C       8.7632679844    -0.3562643756    -0.1546632731
   17      H       8.9607641892    -0.4221475558    -2.3160761705
   18      C       9.4575366240    -0.4119233603    -1.3564881816
   19      S       9.8568604532    -0.3758697058     1.1860412488
   20      C      10.8559641060    -0.4721311513    -1.1830751357
   21      C      11.2175858997    -0.4717110339     0.1445830448
   22      H      11.5698979028    -0.5224420963    -1.9917073492
   23      H      12.2096515722    -0.5217736656     0.5632460592
 ----------------------------------------------------------------
 Nuclear Repulsion Energy =  1174.5798414288 hartrees
 There are       64 alpha and       63 beta electrons
 Applying Cartesian multipole field
    Component          Value
    ---------          -----
     (2,0,0)        1.00000E-12
     (0,2,0)        2.00000E-11
     (0,0,2)       -3.00000E-11
 Nucleus-field energy     =     0.0000000246 hartrees
 Requested basis set is 6-31++G(d,p)
 There are 110 shells and 345 basis functions
 A cutoff of  1.0D-12 yielded   4705 shell pairs
 There are     47893 function pairs

 Q-Chem warning in module /project/projectdirs/jcesr/qchem/qc44/cnl_qc441/compile/cori/qc_src/libqints/qchem/aobasis.C, line 68:

 Using reconstructed effective core potential

 Smallest overlap matrix eigenvalue = 8.97E-08
 Linear dependence detected in AO basis
 Number of orthogonalized atomic orbitals = 343
 Maximum deviation from orthogonality = 3.239E-10
 No. of orbitals has changed due to linear dependencies.  Generating new SCF guess.
 Guess from superposition of atomic densities
 Warning:  Energy on first SCF cycle will be non-variational
 An unrestricted hybrid HF-DFT SCF calculation will be
 performed using Pulay DIIS extrapolation
 Exchange:     0.2000 Hartree-Fock + 0.0800 Slater + 0.7200 B88
 Correlation:  0.1900 VWN1RPA + 0.8100 LYP
 Using SG-1 standard quadrature grid
 SCF converges when DIIS error is below 1.0E-08
 Geometry optimization detected.  Setting ReadMinima to 0
 Setting SaveMinima to 0
 Inaccurate integrated density:
   Number of electrons =   127
   Numerical integral  =   128.000201886767
   Relative error      =     0.7875605408 %
 ---------------------------------------
  Cycle       Energy         DIIS Error
 ---------------------------------------
    1   -1660.4281239079      3.72E-02
    2   -1656.1828657274      3.46E-03
    3   -1655.6800919889      6.02E-03
    4   -1656.3352579617      1.63E-03
    5   -1656.3824901021      3.79E-04
    6   -1656.3839872832      2.93E-04
    7   -1656.3853159513      1.26E-04
    8   -1656.3856317665      4.00E-05
    9   -1656.3856841257      1.16E-05
   10   -1656.3857023797      6.42E-06
   11   -1656.3857130916      5.62E-06
   12   -1656.3857188331      2.85E-06
   13   -1656.3857207957      1.62E-06
   14   -1656.3857212319      7.32E-07
   15   -1656.3857213554      3.16E-07
   16   -1656.3857213681      1.31E-07
   17   -1656.3857213701      5.98E-08
   18   -1656.3857213707      2.85E-08
   19   -1656.3857213715      1.37E-08
   20   -1656.3857213705      9.00E-09 Convergence criterion met
 ---------------------------------------
 <S^2> = 0.7648
 SCF time:  CPU 27.79 s  wall 25.65 s
 SCF   energy in the final basis set = -1656.3857213705
 Total energy in the final basis set = -1656.3857213705
 
 --------------------------------------------------------------
 
                    Orbital Energies (a.u.)
 --------------------------------------------------------------
 
 Alpha MOs
 -- Occupied --
-89.087 -89.082 -89.048 -10.416 -10.413 -10.410 -10.396 -10.371
-10.370 -10.366 -10.361 -10.359 -10.347 -10.332 -10.319  -8.146
 -8.141  -8.107  -6.110  -6.106  -6.105  -6.102  -6.101  -6.098
 -6.071  -6.067  -6.064  -1.075  -1.052  -1.019  -0.949  -0.917
 -0.903  -0.893  -0.870  -0.843  -0.771  -0.747  -0.714  -0.698
 -0.689  -0.687  -0.670  -0.645  -0.609  -0.580  -0.578  -0.576
 -0.563  -0.552  -0.549  -0.534  -0.526  -0.522  -0.520  -0.507
 -0.503  -0.477  -0.449  -0.426  -0.418  -0.385  -0.380  -0.365
 -- Virtual --
 -0.228  -0.164  -0.159  -0.143  -0.128  -0.118  -0.115  -0.105
 -0.101  -0.100  -0.094  -0.088  -0.084  -0.078  -0.075  -0.072
 -0.068  -0.063  -0.058  -0.055  -0.046  -0.042  -0.035  -0.032
 -0.030  -0.019  -0.017  -0.012  -0.007   0.001   0.002   0.004
  0.011   0.014   0.015   0.018   0.019   0.022   0.025   0.029
  0.031   0.037   0.038   0.042   0.043   0.044   0.051   0.053
  0.056   0.060   0.060   0.063   0.064   0.071   0.074   0.082
  0.083   0.090   0.096   0.099   0.101   0.108   0.111   0.114
  0.118   0.119   0.125   0.128   0.131   0.144   0.146   0.149
  0.154   0.158   0.165   0.169   0.172   0.179   0.185   0.191
  0.192   0.206   0.215   0.220   0.226   0.229   0.234   0.246
  0.249   0.257   0.261   0.269   0.286   0.312   0.337   0.338
  0.360   0.369   0.371   0.385   0.406   0.419   0.427   0.455
  0.466   0.471   0.486   0.494   0.497   0.505   0.508   0.511
  0.516   0.533   0.551   0.555   0.563   0.569   0.575   0.587
  0.588   0.596   0.605   0.611   0.623   0.641   0.642   0.657
  0.661   0.665   0.672   0.675   0.682   0.696   0.711   0.730
  0.771   0.788   0.789   0.803   0.814   0.820   0.824   0.827
  0.839   0.843   0.850   0.854   0.856   0.862   0.877   0.888
  0.894   0.908   0.917   0.926   0.930   0.953   0.957   0.962
  0.987   1.003   1.016   1.020   1.035   1.058   1.094   1.099
  1.104   1.129   1.140   1.162   1.175   1.186   1.196   1.199
  1.204   1.231   1.245   1.253   1.273   1.294   1.301   1.322
  1.344   1.380   1.394   1.415   1.470   1.496   1.541   1.577
  1.639   1.667   1.685   1.717   1.729   1.752   1.761   1.778
  1.790   1.803   1.815   1.825   1.848   1.865   1.886   1.891
  1.923   1.928   1.957   1.996   2.014   2.023   2.033   2.055
  2.071   2.076   2.100   2.108   2.150   2.165   2.197   2.217
  2.256   2.267   2.294   2.300   2.309   2.324   2.345   2.349
  2.369   2.376   2.387   2.395   2.421   2.430   2.470   2.479
  2.482   2.511   2.543   2.555   2.574   2.621   2.671   2.684
  2.726   2.736   2.755   2.772   2.788   2.995   3.050   3.062
  3.135   3.167   3.189   3.265   3.302   3.537   3.590   3.628
  3.813   3.834   3.853   4.087   4.148   4.163   4.173   4.186
  4.211   4.242   4.336   4.396   4.502   4.551   4.577
 
 Beta MOs
 -- Occupied --
-89.087 -89.082 -89.048 -10.414 -10.409 -10.408 -10.392 -10.369
-10.368 -10.366 -10.361 -10.359 -10.346 -10.331 -10.319  -8.146
 -8.141  -8.107  -6.110  -6.106  -6.105  -6.103  -6.101  -6.098
 -6.071  -6.067  -6.064  -1.070  -1.048  -1.017  -0.942  -0.915
 -0.902  -0.888  -0.869  -0.837  -0.768  -0.744  -0.711  -0.695
 -0.687  -0.685  -0.668  -0.644  -0.607  -0.577  -0.574  -0.567
 -0.561  -0.549  -0.539  -0.533  -0.525  -0.521  -0.513  -0.505
 -0.501  -0.476  -0.427  -0.423  -0.415  -0.383  -0.365
 -- Virtual --
 -0.314  -0.210  -0.160  -0.147  -0.142  -0.126  -0.116  -0.107
 -0.103  -0.098  -0.093  -0.091  -0.087  -0.083  -0.078  -0.074
 -0.070  -0.067  -0.062  -0.057  -0.054  -0.045  -0.042  -0.034
 -0.031  -0.029  -0.018  -0.017  -0.011  -0.006   0.001   0.002
  0.005   0.011   0.014   0.016   0.019   0.020   0.022   0.026
  0.029   0.032   0.038   0.039   0.043   0.044   0.045   0.051
  0.054   0.057   0.060   0.061   0.064   0.064   0.072   0.075
  0.082   0.084   0.092   0.097   0.100   0.102   0.109   0.112
  0.115   0.118   0.120   0.127   0.129   0.133   0.144   0.148
  0.150   0.155   0.159   0.165   0.170   0.173   0.180   0.186
  0.192   0.193   0.207   0.216   0.222   0.227   0.230   0.236
  0.247   0.251   0.258   0.261   0.270   0.287   0.313   0.338
  0.339   0.361   0.371   0.372   0.385   0.407   0.419   0.428
  0.457   0.467   0.472   0.491   0.497   0.499   0.507   0.512
  0.517   0.522   0.534   0.554   0.557   0.566   0.572   0.578
  0.588   0.592   0.602   0.606   0.612   0.623   0.642   0.644
  0.660   0.663   0.667   0.675   0.679   0.684   0.699   0.713
  0.731   0.772   0.789   0.793   0.805   0.816   0.822   0.827
  0.830   0.840   0.844   0.851   0.856   0.856   0.863   0.879
  0.889   0.896   0.909   0.919   0.927   0.932   0.954   0.958
  0.964   0.987   1.004   1.018   1.023   1.039   1.060   1.097
  1.102   1.107   1.137   1.143   1.165   1.178   1.189   1.198
  1.205   1.210   1.233   1.246   1.255   1.278   1.298   1.307
  1.325   1.348   1.382   1.398   1.418   1.474   1.503   1.553
  1.580   1.646   1.670   1.689   1.721   1.734   1.755   1.763
  1.779   1.791   1.807   1.819   1.830   1.852   1.870   1.889
  1.893   1.927   1.936   1.959   2.002   2.020   2.032   2.038
  2.058   2.075   2.082   2.107   2.113   2.154   2.171   2.201
  2.220   2.257   2.273   2.297   2.306   2.312   2.326   2.348
  2.351   2.374   2.378   2.389   2.397   2.424   2.433   2.472
  2.482   2.483   2.514   2.546   2.559   2.575   2.622   2.675
  2.689   2.728   2.738   2.757   2.774   2.790   2.996   3.052
  3.063   3.135   3.167   3.189   3.267   3.303   3.538   3.591
  3.629   3.814   3.835   3.854   4.092   4.154   4.166   4.177
  4.188   4.213   4.247   4.340   4.401   4.506   4.554   4.578
 --------------------------------------------------------------
 
          Ground-State Mulliken Net Atomic Charges

     Atom                 Charge (a.u.)    Spin (a.u.)
  --------------------------------------------------------
      1 H                     0.253657      -0.013920
      2 H                     0.166697       0.001391
      3 C                     0.092920       0.284876
      4 C                    -0.380942      -0.045179
      5 S                    -0.037426      -0.047077
      6 C                     0.508509       0.154455
      7 H                     0.142792      -0.010288
      8 C                    -0.059016       0.091626
      9 H                     0.117902      -0.009007
     10 C                     0.010999       0.158405
     11 C                    -0.467205       0.118194
     12 S                     0.206494      -0.052328
     13 C                     0.145814      -0.016242
     14 H                     0.174775       0.000827
     15 C                    -0.219545       0.272096
     16 C                    -0.157291       0.038167
     17 H                     0.149389      -0.002930
     18 C                     0.139347       0.025473
     19 S                     0.166999      -0.008733
     20 C                    -0.310960      -0.006404
     21 C                    -0.019345       0.067465
     22 H                     0.150276       0.001241
     23 H                     0.225162      -0.002110
  --------------------------------------------------------
  Sum of atomic charges =     1.000000
  Sum of spin   charges =     1.000000

 -----------------------------------------------------------------
                    Cartesian Multipole Moments
 -----------------------------------------------------------------
    Charge (ESU x 10^10)
                 4.8032
    Dipole Moment (Debye)
         X      25.3238      Y      -2.0736      Z      -1.3337
       Tot      25.4436
    Quadrupole Moments (Debye-Ang)
        XX     111.5394     XY      -5.9734     YY     -94.6171
        XZ      -8.1151     YZ       4.1888     ZZ    -102.8056
    Octopole Moments (Debye-Ang^2)
       XXX     215.7489    XXY     -13.5389    XYY    -616.6016
       YYY     123.0398    XXZ     -52.9001    XYZ      17.2608
       YYZ       8.1761    XZZ    -599.8573    YZZ      42.6188
       ZZZ      30.8242
    Hexadecapole Moments (Debye-Ang^3)
      XXXX   -7637.1493   XXXY      -9.0394   XXYY   -5213.0935
      XYYY     776.2455   YYYY    -642.0410   XXXZ    -400.9241
      XXYZ      81.0682   XYYZ      58.6989   YYYZ     -48.8122
      XXZZ   -4695.1763   XYZZ     223.1394   YYZZ    -192.3784
      XZZZ      84.4931   YZZZ     -71.9678   ZZZZ    -387.5790
 -----------------------------------------------------------------
 Calculating analytic gradient of the SCF energy
 Gradient of SCF Energy
            1           2           3           4           5           6
    1   0.0030704   0.0013924  -0.0020432  -0.0049023   0.0004965   0.0115910
    2  -0.0012842   0.0017197  -0.0016189   0.0051692  -0.0147453   0.0055966
    3  -0.0005236   0.0004379  -0.0007645   0.0020580  -0.0030260   0.0024301
            7           8           9          10          11          12
    1  -0.0010082  -0.0293682   0.0036510   0.0345357  -0.0245647  -0.0018031
    2   0.0026583   0.0356305  -0.0029565  -0.0430629  -0.0060880   0.0254681
    3  -0.0001252   0.0061399   0.0003069  -0.0079914  -0.0019247   0.0074564
           13          14          15          16          17          18
    1   0.0186886  -0.0012866  -0.0053953   0.0010371   0.0007645   0.0001465
    2  -0.0029470  -0.0017667  -0.0143988   0.0096393  -0.0007882   0.0083818
    3  -0.0088081   0.0006188  -0.0082302   0.0201717   0.0023067  -0.0009424
           19          20          21          22          23
    1   0.0028206  -0.0039728   0.0001511  -0.0014085  -0.0025925
    2  -0.0032966  -0.0005178  -0.0011613  -0.0005425   0.0009113
    3  -0.0130594  -0.0019967   0.0051137   0.0020058  -0.0016537
 Max gradient component =       4.306E-02
 RMS gradient           =       1.124E-02
 Gradient time:  CPU 4.37 s  wall 4.58 s
 Geometry Optimization Parameters
   NAtoms,    NIC,     NZ,  NCons,   NDum,   NFix, NCnnct, MaxDiis
       23     166       0       1       0       0       0       0

 Cartesian Hessian Update
 Hessian Updated using BFGS Update


** CONSTRAINED OPTIMIZATION IN DELOCALIZED INTERNAL COORDINATES **
   Searching for a Minimum

   Optimization Cycle:   2

                       Coordinates (Angstroms)
     ATOM                X               Y               Z
      1  H        -0.1096802122   -0.2787558215   -0.0308382431
      2  H         0.7912086409   -2.6815723258   -0.6419904714
      3  C         0.9224634173   -0.5726895583   -0.1365602851
      4  C         1.4189106766   -1.8226650871   -0.4559325759
      5  S         2.1623847593    0.5897246525    0.1016494373
      6  C         2.8189646986   -1.8296916360   -0.5163285036
      7  H         3.4084409351   -2.6987114117   -0.7709485364
      8  C         3.3988211410   -0.5822636326   -0.2416993667
      9  H         4.6425041201    1.7433233440    0.2320094107
     10  C         4.8299981347   -0.4024963680   -0.2118189918
     11  C         5.2940827037    0.9007324057    0.0716795247
     12  S         6.1622773140   -1.4742142204   -0.4113130029
     13  C         6.6879023852    0.9962978369    0.1336392458
     14  H         7.2363846873    1.8998661277    0.3561800813
     15  C         7.3206878670   -0.2215447408   -0.1047654255
     16  C         8.7632679844   -0.3562643756   -0.1546632731
     17  H         8.9607641892   -0.4221475558   -2.3160761705
     18  C         9.4575366240   -0.4119233603   -1.3564881816
     19  S         9.8568604532   -0.3758697058    1.1860412488
     20  C        10.8559641060   -0.4721311513   -1.1830751357
     21  C        11.2175858997   -0.4717110339    0.1445830448
     22  H        11.5698979028   -0.5224420963   -1.9917073492
     23  H        12.2096515722   -0.5217736656    0.5632460592
   Point Group: c1    Number of degrees of freedom:    63


   Energy is  -1656.385721370

              Constraints and their Current Values
                                        Value     Constraint
   Dihedral:       13  15  16  18     -100.000     -100.000
 Hessian Updated using BFGS Update

 61 Hessian modes will be used to form the next step
  Hessian Eigenvalues:
     0.044782    0.045000    0.045000    0.045000    0.045001    0.045001
     0.045001    0.045001    0.045002    0.045003    0.045003    0.045008
     0.045012    0.045012    0.045026    0.045045    0.045057    0.045060
     0.159328    0.159945    0.159946    0.159975    0.159993    0.159994
     0.160000    0.160241    0.189591    0.221308    0.221916    0.230037
     0.238039    0.238644    0.246448    0.249669    0.249672    0.283009
     0.324744    0.326597    0.327227    0.338424    0.340099    0.340374
     0.365196    0.365513    0.365521    0.366533    0.366889    0.367331
     0.369917    0.370100    0.398471    0.414508    0.434618    0.435420
     0.437257    0.462734    0.463128    0.471387    0.494798    0.495504
     0.577344

 Minimum Search - Taking Simple RFO Step
 Searching for Lamda that Minimizes Along All modes
 Value Taken    Lamda =  -0.02241613
 Calculated Step too Large.  Step scaled by  0.896300
 Step Taken.  Stepsize is  0.300000

                             Maximum     Tolerance    Cnvgd?
         Gradient           0.031308      0.000300      NO
         Displacement       0.122249      0.001200      NO
         Energy change     -0.031147      0.000001      NO


 New Cartesian Coordinates Obtained by Inverse Iteration

 Displacement from previous Coordinates is:  1.135639
 ----------------------------------------------------------------
             Standard Nuclear Orientation (Angstroms)
    I     Atom           X                Y                Z
 ----------------------------------------------------------------
    1      H      -0.0830592598    -0.4104849861    -0.0463998163
    2      H       0.9161156842    -2.7754740819    -0.6909426905
    3      C       0.9661259146    -0.6616492098    -0.1480720790
    4      C       1.5135759178    -1.8953227523    -0.4862893011
    5      S       2.1461919069     0.5618498744     0.1207750370
    6      C       2.9092921618    -1.8523525457    -0.5335759183
    7      H       3.5359437995    -2.6988952437    -0.7932107574
    8      C       3.4329399170    -0.5736094536    -0.2293279782
    9      H       4.6200087975     1.9133077799     0.2986993167
   10      C       4.8026581438    -0.2391472412    -0.1651406142
   11      C       5.2788855483     1.0668986245     0.1320073150
   12      S       6.1178280364    -1.3562635010    -0.3960861577
   13      C       6.6636006819     1.1350428156     0.1797633255
   14      H       7.2310368529     2.0324666160     0.3941571453
   15      C       7.2866692042    -0.1007586619    -0.0837260888
   16      C       8.7176618208    -0.3419087375    -0.1985906049
   17      H       8.9337559899    -0.4540419982    -2.3635393420
   18      C       9.4193606711    -0.4587921785    -1.3940569674
   19      S       9.7974557169    -0.3801377767     1.1689682346
   20      C      10.8174686933    -0.5819791245    -1.1992692091
   21      C      11.1633645140    -0.5717550895     0.1330863429
   22      H      11.5391859564    -0.6797747582    -2.0014954944
   23      H      12.1508133307    -0.6661417502     0.5670888426
 ----------------------------------------------------------------
 Nuclear Repulsion Energy =  1175.4911717979 hartrees
 There are       64 alpha and       63 beta electrons
 Applying Cartesian multipole field
    Component          Value
    ---------          -----
     (2,0,0)        1.00000E-12
     (0,2,0)        2.00000E-11
     (0,0,2)       -3.00000E-11
 Nucleus-field energy     =     0.0000000246 hartrees
 Requested basis set is 6-31++G(d,p)
 There are 110 shells and 345 basis functions
 A cutoff of  1.0D-12 yielded   4697 shell pairs
 There are     47884 function pairs

 Q-Chem warning in module /project/projectdirs/jcesr/qchem/qc44/cnl_qc441/compile/cori/qc_src/libqints/qchem/aobasis.C, line 68:

 Using reconstructed effective core potential

 Smallest overlap matrix eigenvalue = 8.06E-08
 Linear dependence detected in AO basis
 Number of orthogonalized atomic orbitals = 343
 Maximum deviation from orthogonality = 1.667E-10
 Guess MOs from SCF MO coefficient file
 Reading MOs from coefficient file
 Reading MOs from coefficient file
 An unrestricted hybrid HF-DFT SCF calculation will be
 performed using Pulay DIIS extrapolation
 Exchange:     0.2000 Hartree-Fock + 0.0800 Slater + 0.7200 B88
 Correlation:  0.1900 VWN1RPA + 0.8100 LYP
 Using SG-1 standard quadrature grid
 SCF converges when DIIS error is below 1.0E-08
 Geometry optimization detected.  Setting ReadMinima to 0
 Setting SaveMinima to 0
 ---------------------------------------
  Cycle       Energy         DIIS Error
 ---------------------------------------
    1   -1656.2768232009      2.90E-03
    2   -1656.3933154008      5.02E-04
    3   -1656.3824758447      9.39E-04
    4   -1656.3978808688      1.23E-04
    5   -1656.3981000234      5.17E-05
    6   -1656.3981422430      1.99E-05
    7   -1656.3981482400      8.14E-06
    8   -1656.3981494434      2.80E-06
    9   -1656.3981496631      1.26E-06
   10   -1656.3981497381      4.75E-07
   11   -1656.3981497772      3.14E-07
   12   -1656.3981497947      1.52E-07
   13   -1656.3981498018      7.10E-08
   14   -1656.3981498033      4.00E-08
   15   -1656.3981498046      1.76E-08
   16   -1656.3981498062      8.68E-09 Convergence criterion met
 ---------------------------------------
 <S^2> = 0.7660
 SCF time:  CPU 22.63 s  wall 20.94 s
 SCF   energy in the final basis set = -1656.3981498062
 Total energy in the final basis set = -1656.3981498062
 
 --------------------------------------------------------------
 
                    Orbital Energies (a.u.)
 --------------------------------------------------------------
 
 Alpha MOs
 -- Occupied --
-89.084 -89.081 -89.046 -10.415 -10.414 -10.408 -10.397 -10.374
-10.373 -10.367 -10.366 -10.361 -10.348 -10.335 -10.321  -8.143
 -8.140  -8.105  -6.107  -6.104  -6.103  -6.101  -6.099  -6.097
 -6.069  -6.066  -6.062  -1.072  -1.048  -1.015  -0.947  -0.920
 -0.905  -0.886  -0.869  -0.839  -0.772  -0.748  -0.715  -0.697
 -0.688  -0.687  -0.664  -0.642  -0.608  -0.579  -0.576  -0.575
 -0.564  -0.551  -0.547  -0.535  -0.526  -0.523  -0.518  -0.506
 -0.503  -0.476  -0.448  -0.428  -0.420  -0.384  -0.378  -0.362
 -- Virtual --
 -0.233  -0.166  -0.160  -0.145  -0.134  -0.119  -0.116  -0.103
 -0.099  -0.096  -0.094  -0.089  -0.084  -0.079  -0.075  -0.072
 -0.068  -0.063  -0.057  -0.054  -0.047  -0.042  -0.034  -0.031
 -0.027  -0.019  -0.017  -0.011  -0.006  -0.001   0.001   0.005
  0.010   0.013   0.015   0.019   0.019   0.022   0.025   0.030
  0.030   0.038   0.040   0.042   0.043   0.045   0.050   0.053
  0.055   0.059   0.061   0.063   0.065   0.072   0.074   0.081
  0.084   0.090   0.095   0.098   0.100   0.108   0.110   0.112
  0.117   0.117   0.123   0.129   0.130   0.140   0.142   0.147
  0.152   0.156   0.164   0.170   0.171   0.178   0.185   0.187
  0.192   0.206   0.209   0.218   0.222   0.230   0.231   0.244
  0.251   0.255   0.260   0.263   0.283   0.317   0.332   0.338
  0.362   0.373   0.376   0.388   0.416   0.420   0.430   0.449
  0.458   0.467   0.488   0.491   0.496   0.501   0.507   0.509
  0.514   0.529   0.551   0.557   0.563   0.569   0.576   0.584
  0.589   0.599   0.605   0.610   0.620   0.637   0.642   0.658
  0.663   0.673   0.677   0.683   0.686   0.696   0.714   0.734
  0.772   0.776   0.787   0.801   0.814   0.816   0.819   0.822
  0.837   0.842   0.850   0.851   0.856   0.860   0.876   0.886
  0.896   0.908   0.914   0.915   0.929   0.949   0.953   0.955
  0.984   1.002   1.013   1.023   1.038   1.055   1.093   1.099
  1.112   1.119   1.140   1.151   1.169   1.186   1.191   1.199
  1.201   1.230   1.242   1.268   1.280   1.301   1.314   1.334
  1.361   1.383   1.401   1.416   1.470   1.506   1.541   1.572
  1.624   1.662   1.692   1.702   1.717   1.749   1.760   1.781
  1.785   1.787   1.802   1.816   1.856   1.871   1.884   1.897
  1.908   1.924   1.961   1.988   2.007   2.016   2.025   2.047
  2.062   2.085   2.090   2.106   2.137   2.156   2.188   2.214
  2.254   2.268   2.284   2.290   2.304   2.315   2.337   2.345
  2.365   2.370   2.384   2.389   2.410   2.432   2.458   2.471
  2.477   2.507   2.535   2.553   2.566   2.608   2.662   2.706
  2.720   2.742   2.755   2.770   2.781   2.980   3.044   3.052
  3.126   3.159   3.170   3.254   3.293   3.529   3.582   3.617
  3.816   3.829   3.852   4.088   4.147   4.159   4.163   4.190
  4.205   4.248   4.335   4.395   4.503   4.551   4.575
 
 Beta MOs
 -- Occupied --
-89.084 -89.081 -89.046 -10.412 -10.411 -10.407 -10.393 -10.373
-10.371 -10.367 -10.366 -10.361 -10.347 -10.334 -10.321  -8.143
 -8.140  -8.105  -6.107  -6.104  -6.103  -6.101  -6.100  -6.097
 -6.069  -6.065  -6.062  -1.067  -1.043  -1.013  -0.940  -0.917
 -0.903  -0.881  -0.867  -0.834  -0.768  -0.745  -0.712  -0.695
 -0.686  -0.685  -0.662  -0.640  -0.606  -0.575  -0.573  -0.566
 -0.562  -0.549  -0.537  -0.533  -0.525  -0.522  -0.511  -0.505
 -0.500  -0.475  -0.427  -0.424  -0.416  -0.382  -0.365
 -- Virtual --
 -0.309  -0.214  -0.160  -0.149  -0.143  -0.132  -0.116  -0.109
 -0.100  -0.097  -0.094  -0.089  -0.086  -0.082  -0.077  -0.074
 -0.071  -0.067  -0.062  -0.057  -0.053  -0.046  -0.042  -0.033
 -0.030  -0.026  -0.018  -0.016  -0.010  -0.005  -0.000   0.001
  0.006   0.010   0.014   0.016   0.020   0.020   0.022   0.026
  0.030   0.031   0.038   0.041   0.042   0.043   0.046   0.051
  0.054   0.056   0.060   0.062   0.063   0.066   0.073   0.075
  0.082   0.085   0.091   0.096   0.099   0.101   0.108   0.111
  0.113   0.118   0.119   0.125   0.131   0.131   0.142   0.143
  0.148   0.152   0.157   0.165   0.170   0.172   0.179   0.186
  0.188   0.193   0.207   0.211   0.219   0.224   0.232   0.233
  0.244   0.252   0.257   0.260   0.265   0.284   0.319   0.334
  0.340   0.363   0.373   0.377   0.388   0.417   0.421   0.431
  0.450   0.460   0.468   0.490   0.497   0.498   0.504   0.509
  0.516   0.521   0.530   0.553   0.557   0.565   0.572   0.578
  0.586   0.592   0.605   0.606   0.612   0.620   0.639   0.645
  0.660   0.665   0.677   0.681   0.685   0.688   0.699   0.716
  0.735   0.773   0.780   0.788   0.803   0.816   0.819   0.821
  0.826   0.839   0.844   0.851   0.852   0.856   0.862   0.877
  0.887   0.898   0.910   0.915   0.916   0.930   0.950   0.954
  0.957   0.984   1.003   1.015   1.026   1.041   1.057   1.095
  1.101   1.116   1.127   1.143   1.153   1.171   1.190   1.193
  1.203   1.208   1.232   1.243   1.270   1.282   1.307   1.319
  1.338   1.365   1.387   1.405   1.419   1.474   1.515   1.552
  1.575   1.630   1.668   1.694   1.705   1.722   1.752   1.761
  1.784   1.786   1.792   1.805   1.819   1.861   1.874   1.886
  1.900   1.915   1.928   1.963   1.994   2.013   2.024   2.032
  2.049   2.065   2.090   2.097   2.111   2.140   2.162   2.192
  2.217   2.255   2.274   2.288   2.294   2.307   2.317   2.339
  2.347   2.367   2.374   2.385   2.391   2.413   2.435   2.460
  2.473   2.479   2.510   2.537   2.557   2.568   2.610   2.665
  2.710   2.723   2.744   2.757   2.772   2.783   2.981   3.045
  3.054   3.127   3.159   3.170   3.256   3.293   3.530   3.583
  3.617   3.816   3.829   3.852   4.093   4.152   4.162   4.166
  4.192   4.206   4.254   4.338   4.399   4.506   4.554   4.577
 --------------------------------------------------------------
 
          Ground-State Mulliken Net Atomic Charges

     Atom                 Charge (a.u.)    Spin (a.u.)
  --------------------------------------------------------
      1 H                     0.250038      -0.014348
      2 H                     0.169132       0.001408
      3 C                     0.079374       0.290014
      4 C                    -0.347248      -0.045521
      5 S                    -0.060755      -0.043692
      6 C                     0.558246       0.156906
      7 H                     0.149375      -0.010280
      8 C                    -0.208099       0.082480
      9 H                     0.141223      -0.008198
     10 C                     0.028579       0.152260
     11 C                    -0.298865       0.113296
     12 S                     0.057635      -0.054880
     13 C                     0.274753      -0.006187
     14 H                     0.177160      -0.000065
     15 C                    -0.309180       0.276899
     16 C                    -0.216763       0.034931
     17 H                     0.152961      -0.003065
     18 C                     0.203279       0.028103
     19 S                     0.139261      -0.009472
     20 C                    -0.313186      -0.008653
     21 C                    -0.002881       0.068934
     22 H                     0.151199       0.001347
     23 H                     0.224760      -0.002218
  --------------------------------------------------------
  Sum of atomic charges =     1.000000
  Sum of spin   charges =     1.000000

 -----------------------------------------------------------------
                    Cartesian Multipole Moments
 -----------------------------------------------------------------
    Charge (ESU x 10^10)
                 4.8032
    Dipole Moment (Debye)
         X      25.2937      Y      -2.0010      Z      -1.3564
       Tot      25.4089
    Quadrupole Moments (Debye-Ang)
        XX     109.0594     XY      -5.8070     YY     -93.5340
        XZ      -8.3974     YZ       4.7214     ZZ    -102.6951
    Octopole Moments (Debye-Ang^2)
       XXX     180.9728    XXY     -23.4352    XYY    -609.1434
       YYY     119.0619    XXZ     -56.9286    XYZ      20.4410
       YYZ       7.6475    XZZ    -597.5884    YZZ      40.2006
       ZZZ      29.3100
    Hexadecapole Moments (Debye-Ang^3)
      XXXX   -7937.5383   XXXY    -202.3653   XXYY   -5129.6231
      XYYY     765.6159   YYYY    -650.3337   XXXZ    -440.8576
      XXYZ     103.7561   XYYZ      60.4216   YYYZ     -51.9938
      XXZZ   -4647.0920   XYZZ     208.7838   YYZZ    -195.0022
      XZZZ      84.3127   YZZZ     -77.3375   ZZZZ    -390.7190
 -----------------------------------------------------------------
 Calculating analytic gradient of the SCF energy
 Gradient of SCF Energy
            1           2           3           4           5           6
    1  -0.0001218   0.0001795   0.0020608  -0.0008151   0.0037820   0.0026190
    2   0.0006820  -0.0003132  -0.0015347  -0.0010098  -0.0001072  -0.0023864
    3   0.0000628  -0.0000350  -0.0005030   0.0000005   0.0001603   0.0005774
            7           8           9          10          11          12
    1   0.0002792  -0.0077168  -0.0008054   0.0114896  -0.0049025  -0.0033052
    2  -0.0002194   0.0163770   0.0009505  -0.0184961   0.0034827   0.0025044
    3  -0.0007044   0.0023798   0.0007632  -0.0029909   0.0002492   0.0027080
           13          14          15          16          17          18
    1   0.0009790  -0.0006465  -0.0049850   0.0021161  -0.0002625   0.0016907
    2   0.0034408   0.0000803  -0.0051316  -0.0006760  -0.0007021   0.0068054
    3  -0.0068276   0.0006721   0.0011839   0.0086095  -0.0001368  -0.0030011
           19          20          21          22          23
    1  -0.0001657  -0.0008328  -0.0012832   0.0002961   0.0003505
    2  -0.0031441   0.0001431  -0.0012983  -0.0003014   0.0008538
    3  -0.0032143  -0.0018759   0.0018173  -0.0000046   0.0001095
 Max gradient component =       1.850E-02
 RMS gradient           =       4.169E-03
 Gradient time:  CPU 4.28 s  wall 4.25 s
 Geometry Optimization Parameters
   NAtoms,    NIC,     NZ,  NCons,   NDum,   NFix, NCnnct, MaxDiis
       23     166       0       1       0       0       0       0

 Cartesian Hessian Update
 Hessian Updated using BFGS Update


** CONSTRAINED OPTIMIZATION IN DELOCALIZED INTERNAL COORDINATES **
   Searching for a Minimum

   Optimization Cycle:   3

                       Coordinates (Angstroms)
     ATOM                X               Y               Z
      1  H        -0.0830592598   -0.4104849861   -0.0463998163
      2  H         0.9161156842   -2.7754740819   -0.6909426905
      3  C         0.9661259146   -0.6616492098   -0.1480720790
      4  C         1.5135759178   -1.8953227523   -0.4862893011
      5  S         2.1461919069    0.5618498744    0.1207750370
      6  C         2.9092921618   -1.8523525457   -0.5335759183
      7  H         3.5359437995   -2.6988952437   -0.7932107574
      8  C         3.4329399170   -0.5736094536   -0.2293279782
      9  H         4.6200087975    1.9133077799    0.2986993167
     10  C         4.8026581438   -0.2391472412   -0.1651406142
     11  C         5.2788855483    1.0668986245    0.1320073150
     12  S         6.1178280364   -1.3562635010   -0.3960861577
     13  C         6.6636006819    1.1350428156    0.1797633255
     14  H         7.2310368529    2.0324666160    0.3941571453
     15  C         7.2866692042   -0.1007586619   -0.0837260888
     16  C         8.7176618208   -0.3419087375   -0.1985906049
     17  H         8.9337559899   -0.4540419982   -2.3635393420
     18  C         9.4193606711   -0.4587921785   -1.3940569674
     19  S         9.7974557169   -0.3801377767    1.1689682346
     20  C        10.8174686933   -0.5819791245   -1.1992692091
     21  C        11.1633645140   -0.5717550895    0.1330863429
     22  H        11.5391859564   -0.6797747582   -2.0014954944
     23  H        12.1508133307   -0.6661417502    0.5670888426
   Point Group: c1    Number of degrees of freedom:    63


   Energy is  -1656.398149806

              Constraints and their Current Values
                                        Value     Constraint
   Dihedral:       13  15  16  18     -100.000     -100.000
 Hessian Updated using BFGS Update

 61 Hessian modes will be used to form the next step
  Hessian Eigenvalues:
     0.042983    0.045000    0.045000    0.045000    0.045001    0.045001
     0.045001    0.045002    0.045003    0.045003    0.045005    0.045008
     0.045012    0.045012    0.045026    0.045056    0.045059    0.045129
     0.154346    0.159945    0.159955    0.159977    0.159993    0.159998
     0.160038    0.160499    0.170658    0.221308    0.223353    0.230009
     0.238051    0.240408    0.249433    0.249671    0.260795    0.279057
     0.323584    0.326589    0.328090    0.337889    0.340105    0.341473
     0.365512    0.365517    0.365827    0.366889    0.367247    0.367893
     0.370099    0.370901    0.401857    0.423702    0.435369    0.435422
     0.442498    0.462996    0.464648    0.481936    0.494655    0.497272
     0.578092

 Minimum Search - Taking Simple RFO Step
 Searching for Lamda that Minimizes Along All modes
 Value Taken    Lamda =  -0.00378216
 Step Taken.  Stepsize is  0.197092

                             Maximum     Tolerance    Cnvgd?
         Gradient           0.010388      0.000300      NO
         Displacement       0.074696      0.001200      NO
         Energy change     -0.012428      0.000001      NO


 New Cartesian Coordinates Obtained by Inverse Iteration

 Displacement from previous Coordinates is:  0.495911
 ----------------------------------------------------------------
             Standard Nuclear Orientation (Angstroms)
    I     Atom           X                Y                Z
 ----------------------------------------------------------------
    1      H      -0.1053950781    -0.4652400742    -0.0870600261
    2      H       0.9475073983    -2.7968989854    -0.7430210644
    3      C       0.9502938449    -0.6936322691    -0.1745442676
    4      C       1.5295624632    -1.9113006339    -0.5188271867
    5      S       2.1118023645     0.5373311285     0.1239216191
    6      C       2.9257585162    -1.8522212403    -0.5435510905
    7      H       3.5635160794    -2.6908626497    -0.7998838579
    8      C       3.4363416045    -0.5746092354    -0.2153070788
    9      H       4.6417515259     1.9704360217     0.3455194976
   10      C       4.7845604633    -0.1745201795    -0.1241796350
   11      C       5.2898412021     1.1164042377     0.1813621106
   12      S       6.1052738880    -1.3038167318    -0.3680915216
   13      C       6.6761653709     1.1678406318     0.2239971970
   14      H       7.2561152894     2.0604848957     0.4270461522
   15      C       7.2948309542    -0.0682107490    -0.0466559806
   16      C       8.7110632515    -0.3522783297    -0.2090345158
   17      H       8.9090527390    -0.5264810519    -2.3678727456
   18      C       9.4009574316    -0.5089766634    -1.4018180948
   19      S       9.8098027518    -0.3221411977     1.1529896447
   20      C      10.8023511715    -0.6278967448    -1.2143375067
   21      C      11.1653375880    -0.5653294404     0.1098177294
   22      H      11.5136218195    -0.7543410062    -2.0217144958
   23      H      12.1567673604    -0.6526631131     0.5360676573
 ----------------------------------------------------------------
 Nuclear Repulsion Energy =  1174.3414254627 hartrees
 There are       64 alpha and       63 beta electrons
 Applying Cartesian multipole field
    Component          Value
    ---------          -----
     (2,0,0)        1.00000E-12
     (0,2,0)        2.00000E-11
     (0,0,2)       -3.00000E-11
 Nucleus-field energy     =     0.0000000245 hartrees
 Requested basis set is 6-31++G(d,p)
 There are 110 shells and 345 basis functions
 A cutoff of  1.0D-12 yielded   4696 shell pairs
 There are     47867 function pairs

 Q-Chem warning in module /project/projectdirs/jcesr/qchem/qc44/cnl_qc441/compile/cori/qc_src/libqints/qchem/aobasis.C, line 68:

 Using reconstructed effective core potential

 Smallest overlap matrix eigenvalue = 8.91E-08
 Linear dependence detected in AO basis
 Number of orthogonalized atomic orbitals = 343
 Maximum deviation from orthogonality = 1.230E-10
 Guess MOs from SCF MO coefficient file
 Reading MOs from coefficient file
 Reading MOs from coefficient file
 An unrestricted hybrid HF-DFT SCF calculation will be
 performed using Pulay DIIS extrapolation
 Exchange:     0.2000 Hartree-Fock + 0.0800 Slater + 0.7200 B88
 Correlation:  0.1900 VWN1RPA + 0.8100 LYP
 Using SG-1 standard quadrature grid
 SCF converges when DIIS error is below 1.0E-08
 Geometry optimization detected.  Setting ReadMinima to 0
 Setting SaveMinima to 0
 ---------------------------------------
  Cycle       Energy         DIIS Error
 ---------------------------------------
    1   -1656.3604627131      1.45E-03
    2   -1656.3991615347      2.45E-04
    3   -1656.3967214964      4.47E-04
    4   -1656.4002544124      7.68E-05
    5   -1656.4003443569      2.44E-05
    6   -1656.4003540466      1.17E-05
    7   -1656.4003564919      4.98E-06
    8   -1656.4003571681      1.82E-06
    9   -1656.4003573800      1.17E-06
   10   -1656.4003574935      5.23E-07
   11   -1656.4003575674      2.94E-07
   12   -1656.4003575852      1.28E-07
   13   -1656.4003575896      4.57E-08
   14   -1656.4003575900      2.02E-08
   15   -1656.4003575912      1.01E-08
   16   -1656.4003575898      4.49E-09 Convergence criterion met
 ---------------------------------------
 <S^2> = 0.7650
 SCF time:  CPU 22.18 s  wall 20.73 s
 SCF   energy in the final basis set = -1656.4003575898
 Total energy in the final basis set = -1656.4003575898
 
 --------------------------------------------------------------
 
                    Orbital Energies (a.u.)
 --------------------------------------------------------------
 
 Alpha MOs
 -- Occupied --
-89.080 -89.079 -89.047 -10.415 -10.415 -10.408 -10.396 -10.375
-10.373 -10.370 -10.367 -10.360 -10.351 -10.338 -10.323  -8.139
 -8.138  -8.106  -6.103  -6.102  -6.100  -6.098  -6.096  -6.095
 -6.070  -6.066  -6.063  -1.069  -1.046  -1.016  -0.946  -0.918
 -0.904  -0.885  -0.870  -0.841  -0.772  -0.749  -0.716  -0.696
 -0.689  -0.686  -0.664  -0.643  -0.609  -0.578  -0.576  -0.574
 -0.563  -0.553  -0.547  -0.536  -0.528  -0.520  -0.518  -0.504
 -0.501  -0.477  -0.449  -0.426  -0.418  -0.386  -0.380  -0.362
 -- Virtual --
 -0.232  -0.168  -0.159  -0.143  -0.134  -0.120  -0.115  -0.104
 -0.099  -0.095  -0.091  -0.088  -0.084  -0.079  -0.075  -0.072
 -0.069  -0.062  -0.057  -0.054  -0.048  -0.042  -0.034  -0.031
 -0.026  -0.019  -0.017  -0.011  -0.006  -0.000   0.001   0.005
  0.009   0.013   0.015   0.019   0.019   0.022   0.025   0.030
  0.031   0.037   0.040   0.042   0.043   0.046   0.050   0.052
  0.055   0.059   0.061   0.063   0.065   0.072   0.075   0.080
  0.084   0.090   0.093   0.099   0.100   0.106   0.109   0.112
  0.117   0.118   0.124   0.128   0.132   0.137   0.143   0.146
  0.150   0.157   0.164   0.170   0.173   0.177   0.186   0.186
  0.191   0.205   0.207   0.218   0.221   0.230   0.233   0.244
  0.252   0.257   0.260   0.264   0.282   0.317   0.331   0.341
  0.364   0.374   0.376   0.391   0.419   0.420   0.431   0.448
  0.456   0.465   0.489   0.494   0.494   0.499   0.506   0.509
  0.514   0.529   0.550   0.555   0.563   0.570   0.577   0.583
  0.592   0.600   0.602   0.611   0.618   0.637   0.641   0.659
  0.661   0.674   0.677   0.682   0.687   0.696   0.714   0.734
  0.770   0.774   0.786   0.799   0.812   0.814   0.819   0.823
  0.837   0.843   0.847   0.851   0.855   0.860   0.878   0.885
  0.895   0.909   0.912   0.915   0.929   0.947   0.955   0.956
  0.982   1.000   1.011   1.022   1.037   1.053   1.090   1.096
  1.112   1.113   1.138   1.145   1.169   1.186   1.188   1.198
  1.201   1.227   1.237   1.266   1.290   1.309   1.321   1.340
  1.367   1.389   1.403   1.418   1.470   1.513   1.545   1.565
  1.611   1.659   1.690   1.700   1.709   1.745   1.758   1.770
  1.780   1.784   1.798   1.815   1.855   1.877   1.883   1.899
  1.901   1.929   1.963   1.985   2.000   2.015   2.025   2.036
  2.059   2.080   2.088   2.105   2.133   2.155   2.192   2.215
  2.253   2.269   2.284   2.289   2.303   2.313   2.333   2.344
  2.368   2.373   2.382   2.391   2.405   2.436   2.455   2.471
  2.478   2.508   2.533   2.556   2.565   2.606   2.657   2.708
  2.721   2.746   2.758   2.783   2.790   2.982   3.044   3.054
  3.129   3.157   3.170   3.256   3.292   3.526   3.582   3.615
  3.819   3.828   3.851   4.088   4.147   4.155   4.164   4.191
  4.202   4.251   4.334   4.394   4.503   4.550   4.576
 
 Beta MOs
 -- Occupied --
-89.081 -89.079 -89.047 -10.413 -10.411 -10.407 -10.392 -10.373
-10.371 -10.370 -10.367 -10.360 -10.350 -10.337 -10.323  -8.139
 -8.138  -8.106  -6.104  -6.102  -6.100  -6.098  -6.097  -6.095
 -6.070  -6.066  -6.063  -1.064  -1.041  -1.014  -0.940  -0.915
 -0.902  -0.881  -0.869  -0.835  -0.769  -0.745  -0.713  -0.694
 -0.687  -0.685  -0.662  -0.641  -0.608  -0.575  -0.573  -0.564
 -0.561  -0.551  -0.537  -0.535  -0.527  -0.519  -0.510  -0.501
 -0.500  -0.476  -0.428  -0.423  -0.414  -0.384  -0.367
 -- Virtual --
 -0.309  -0.214  -0.161  -0.149  -0.142  -0.132  -0.116  -0.110
 -0.100  -0.097  -0.094  -0.088  -0.084  -0.081  -0.077  -0.074
 -0.071  -0.068  -0.062  -0.057  -0.053  -0.047  -0.042  -0.034
 -0.029  -0.025  -0.018  -0.016  -0.010  -0.005   0.000   0.001
  0.006   0.010   0.014   0.016   0.020   0.020   0.023   0.026
  0.031   0.032   0.038   0.041   0.042   0.043   0.046   0.050
  0.053   0.056   0.060   0.062   0.064   0.066   0.074   0.076
  0.081   0.086   0.091   0.094   0.100   0.101   0.107   0.110
  0.113   0.118   0.119   0.125   0.130   0.133   0.139   0.143
  0.147   0.151   0.157   0.165   0.170   0.174   0.178   0.187
  0.187   0.193   0.207   0.208   0.219   0.223   0.232   0.234
  0.244   0.253   0.258   0.261   0.265   0.283   0.319   0.333
  0.342   0.365   0.375   0.377   0.391   0.420   0.421   0.432
  0.449   0.458   0.466   0.490   0.496   0.500   0.502   0.508
  0.516   0.521   0.530   0.552   0.557   0.565   0.573   0.579
  0.586   0.594   0.603   0.606   0.612   0.618   0.639   0.644
  0.661   0.663   0.678   0.681   0.685   0.688   0.699   0.716
  0.735   0.772   0.778   0.788   0.801   0.814   0.817   0.823
  0.825   0.838   0.844   0.848   0.852   0.856   0.861   0.879
  0.885   0.897   0.911   0.914   0.916   0.931   0.948   0.956
  0.958   0.983   1.002   1.013   1.025   1.040   1.055   1.092
  1.099   1.117   1.121   1.141   1.146   1.171   1.189   1.191
  1.202   1.208   1.229   1.239   1.268   1.292   1.315   1.325
  1.344   1.371   1.393   1.407   1.421   1.474   1.522   1.555
  1.569   1.617   1.664   1.693   1.702   1.715   1.748   1.759
  1.775   1.783   1.786   1.800   1.817   1.859   1.879   1.886
  1.903   1.908   1.933   1.965   1.991   2.006   2.024   2.031
  2.039   2.062   2.086   2.095   2.109   2.137   2.160   2.196
  2.218   2.254   2.273   2.288   2.294   2.307   2.315   2.336
  2.346   2.371   2.376   2.383   2.393   2.408   2.439   2.457
  2.473   2.481   2.510   2.536   2.560   2.566   2.608   2.660
  2.711   2.724   2.748   2.760   2.785   2.792   2.982   3.045
  3.055   3.129   3.158   3.170   3.257   3.292   3.528   3.583
  3.616   3.819   3.829   3.851   4.093   4.151   4.158   4.167
  4.194   4.204   4.256   4.338   4.398   4.506   4.553   4.579
 --------------------------------------------------------------
 
          Ground-State Mulliken Net Atomic Charges

     Atom                 Charge (a.u.)    Spin (a.u.)
  --------------------------------------------------------
      1 H                     0.250222      -0.013989
      2 H                     0.168681       0.001153
      3 C                     0.097319       0.281289
      4 C                    -0.354878      -0.040812
      5 S                    -0.069701      -0.038675
      6 C                     0.623732       0.148747
      7 H                     0.152582      -0.009796
      8 C                    -0.314626       0.081117
      9 H                     0.150589      -0.007346
     10 C                    -0.006807       0.152649
     11 C                    -0.157041       0.107687
     12 S                    -0.026801      -0.054099
     13 C                     0.264967       0.003891
     14 H                     0.178238      -0.001099
     15 C                    -0.315890       0.262693
     16 C                    -0.223746       0.038322
     17 H                     0.155662      -0.003425
     18 C                     0.232981       0.033897
     19 S                     0.128093      -0.011409
     20 C                    -0.320018      -0.010179
     21 C                     0.009117       0.080943
     22 H                     0.151857       0.001421
     23 H                     0.225467      -0.002982
  --------------------------------------------------------
  Sum of atomic charges =     1.000000
  Sum of spin   charges =     1.000000

 -----------------------------------------------------------------
                    Cartesian Multipole Moments
 -----------------------------------------------------------------
    Charge (ESU x 10^10)
                 4.8032
    Dipole Moment (Debye)
         X      25.6394      Y      -1.9396      Z      -1.4128
       Tot      25.7515
    Quadrupole Moments (Debye-Ang)
        XX     114.1494     XY      -5.3430     YY     -93.6075
        XZ      -8.7050     YZ       5.1394     ZZ    -102.6395
    Octopole Moments (Debye-Ang^2)
       XXX     242.3027    XXY     -23.3717    XYY    -608.0962
       YYY     116.6557    XXZ     -61.7827    XYZ      23.8271
       YYZ       6.9050    XZZ    -596.6341    YZZ      38.6632
       ZZZ      27.4238
    Hexadecapole Moments (Debye-Ang^3)
      XXXX   -7240.9306   XXXY    -243.1241   XXYY   -5115.8442
      XYYY     742.2604   YYYY    -649.0784   XXXZ    -499.9406
      XXYZ     135.2948   XYYZ      55.9769   YYYZ     -58.5229
      XXZZ   -4639.1022   XYZZ     196.0613   YYZZ    -193.8157
      XZZZ      71.9190   YZZZ     -83.3984   ZZZZ    -390.4497
 -----------------------------------------------------------------
 Calculating analytic gradient of the SCF energy
 Gradient of SCF Energy
            1           2           3           4           5           6
    1  -0.0004030  -0.0002887  -0.0016482  -0.0000800   0.0020238  -0.0003920
    2   0.0003468   0.0001629  -0.0009908   0.0001560  -0.0012809  -0.0020226
    3   0.0000307   0.0001013  -0.0000486   0.0000547  -0.0004472   0.0002853
            7           8           9          10          11          12
    1   0.0003001   0.0024038  -0.0008866  -0.0009029   0.0012164  -0.0023905
    2   0.0002063   0.0040109  -0.0002321  -0.0042251   0.0024912   0.0011684
    3  -0.0003873  -0.0000981   0.0001799   0.0000855   0.0003714   0.0019545
           13          14          15          16          17          18
    1  -0.0017941   0.0004471   0.0011238   0.0012868  -0.0002664  -0.0000043
    2   0.0017288  -0.0003124   0.0012319  -0.0067223  -0.0002707   0.0074869
    3  -0.0073289   0.0000872   0.0077232  -0.0019036  -0.0000023  -0.0002175
           19          20          21          22          23
    1  -0.0009876   0.0006966   0.0000751   0.0002055   0.0002651
    2  -0.0020403   0.0000677  -0.0016463  -0.0000352   0.0007210
    3  -0.0009812   0.0010472  -0.0007677   0.0000792   0.0001826
 Max gradient component =       7.723E-03
 RMS gradient           =       2.140E-03
 Gradient time:  CPU 4.35 s  wall 4.24 s
 Geometry Optimization Parameters
   NAtoms,    NIC,     NZ,  NCons,   NDum,   NFix, NCnnct, MaxDiis
       23     166       0       1       0       0       0       0

 Cartesian Hessian Update
 Hessian Updated using BFGS Update


** CONSTRAINED OPTIMIZATION IN DELOCALIZED INTERNAL COORDINATES **
   Searching for a Minimum

   Optimization Cycle:   4

                       Coordinates (Angstroms)
     ATOM                X               Y               Z
      1  H        -0.1053950781   -0.4652400742   -0.0870600261
      2  H         0.9475073983   -2.7968989854   -0.7430210644
      3  C         0.9502938449   -0.6936322691   -0.1745442676
      4  C         1.5295624632   -1.9113006339   -0.5188271867
      5  S         2.1118023645    0.5373311285    0.1239216191
      6  C         2.9257585162   -1.8522212403   -0.5435510905
      7  H         3.5635160794   -2.6908626497   -0.7998838579
      8  C         3.4363416045   -0.5746092354   -0.2153070788
      9  H         4.6417515259    1.9704360217    0.3455194976
     10  C         4.7845604633   -0.1745201795   -0.1241796350
     11  C         5.2898412021    1.1164042377    0.1813621106
     12  S         6.1052738880   -1.3038167318   -0.3680915216
     13  C         6.6761653709    1.1678406318    0.2239971970
     14  H         7.2561152894    2.0604848957    0.4270461522
     15  C         7.2948309542   -0.0682107490   -0.0466559806
     16  C         8.7110632515   -0.3522783297   -0.2090345158
     17  H         8.9090527390   -0.5264810519   -2.3678727456
     18  C         9.4009574316   -0.5089766634   -1.4018180948
     19  S         9.8098027518   -0.3221411977    1.1529896447
     20  C        10.8023511715   -0.6278967448   -1.2143375067
     21  C        11.1653375880   -0.5653294404    0.1098177294
     22  H        11.5136218195   -0.7543410062   -2.0217144958
     23  H        12.1567673604   -0.6526631131    0.5360676573
   Point Group: c1    Number of degrees of freedom:    63


   Energy is  -1656.400357590

              Constraints and their Current Values
                                        Value     Constraint
   Dihedral:       13  15  16  18     -100.000     -100.000
 Hessian Updated using BFGS Update

 62 Hessian modes will be used to form the next step
  Hessian Eigenvalues:
     0.031020    0.045000    0.045000    0.045000    0.045000    0.045001
     0.045001    0.045002    0.045002    0.045003    0.045003    0.045005
     0.045011    0.045012    0.045022    0.045050    0.045059    0.045116
     0.045208    0.158545    0.159945    0.159968    0.159980    0.159997
     0.160019    0.160392    0.162399    0.184022    0.221330    0.223421
     0.229871    0.238051    0.241693    0.249665    0.250786    0.264621
     0.286028    0.322559    0.326725    0.327716    0.337958    0.340334
     0.341140    0.365511    0.365521    0.365825    0.366889    0.367240
     0.367912    0.370112    0.370741    0.401639    0.420509    0.435390
     0.435869    0.443145    0.463848    0.464086    0.480747    0.495476
     0.501068    0.582270

 Minimum Search - Taking Simple RFO Step
 Searching for Lamda that Minimizes Along All modes
 Value Taken    Lamda =  -0.00078194
 Step Taken.  Stepsize is  0.145095

                             Maximum     Tolerance    Cnvgd?
         Gradient           0.002774      0.000300      NO
         Displacement       0.056589      0.001200      NO
         Energy change     -0.002208      0.000001      NO


 New Cartesian Coordinates Obtained by Inverse Iteration

 Displacement from previous Coordinates is:  0.420267
 ----------------------------------------------------------------
             Standard Nuclear Orientation (Angstroms)
    I     Atom           X                Y                Z
 ----------------------------------------------------------------
    1      H      -0.1038915600    -0.4526206500    -0.1261256311
    2      H       0.9472400760    -2.7822747696    -0.7842186391
[...]
      2 H                     0.166213       0.001174
      3 C                     0.085944       0.258694
      4 C                    -0.346344      -0.037186
      5 S                    -0.055272      -0.031290
      6 C                     0.626744       0.140925
      7 H                     0.150826      -0.009393
      8 C                    -0.333556       0.066048
      9 H                     0.149607      -0.005849
     10 C                    -0.111480       0.156021
     11 C                    -0.040774       0.103251
     12 S                    -0.029919      -0.053027
     13 C                     0.152491       0.014391
     14 H                     0.178789      -0.002556
     15 C                    -0.222509       0.233997
     16 C                    -0.151332       0.037816
     17 H                     0.160411      -0.005226
     18 C                     0.177067       0.061429
     19 S                     0.165451      -0.017400
     20 C                    -0.340301      -0.015867
     21 C                    -0.009077       0.121039
     22 H                     0.153241       0.002095
     23 H                     0.227579      -0.005918
  --------------------------------------------------------
  Sum of atomic charges =     1.000000
  Sum of spin   charges =     1.000000

 -----------------------------------------------------------------
                    Cartesian Multipole Moments
 -----------------------------------------------------------------
    Charge (ESU x 10^10)
                 4.8032
    Dipole Moment (Debye)
         X      26.8555      Y      -1.7893      Z      -1.5630
       Tot      26.9604
    Quadrupole Moments (Debye-Ang)
        XX     130.0498     XY      -4.0780     YY     -94.2001
        XZ      -9.3295     YZ       6.4260     ZZ    -102.6189
    Octopole Moments (Debye-Ang^2)
       XXX     422.6920    XXY       1.1975    XYY    -610.5267
       YYY     113.3514    XXZ     -76.0826    XYZ      35.0193
       YYZ       4.3341    XZZ    -598.7495    YZZ      36.6891
       ZZZ      22.6072
    Hexadecapole Moments (Debye-Ang^3)
      XXXX   -5255.3662   XXXY     114.7842   XXYY   -5138.7544
      XYYY     684.3757   YYYY    -646.5770   XXXZ    -731.2365
      XXYZ     242.9733   XYYZ      32.3725   YYYZ     -76.8261
      XXZZ   -4668.6311   XYZZ     175.8910   YYZZ    -187.6029
      XZZZ      18.5145   YZZZ     -98.0478   ZZZZ    -389.6390
 -----------------------------------------------------------------
 Calculating analytic gradient of the SCF energy
 Gradient of SCF Energy
            1           2           3           4           5           6
    1  -0.0000014  -0.0000026  -0.0000223  -0.0000045   0.0000427   0.0000010
    2   0.0000091   0.0000088  -0.0000250   0.0000196  -0.0000159  -0.0000084
    3   0.0000017  -0.0000136  -0.0000163  -0.0000007   0.0000002  -0.0000546
            7           8           9          10          11          12
    1   0.0000030   0.0000091  -0.0000224   0.0000117   0.0000097   0.0000029
    2  -0.0000009   0.0000528  -0.0000110  -0.0000295   0.0000091   0.0000499
    3   0.0000131   0.0000713   0.0000199  -0.0000414  -0.0000225   0.0000259
           13          14          15          16          17          18
    1  -0.0014134   0.0000099   0.0033244  -0.0038888  -0.0000085   0.0019532
    2   0.0013260  -0.0000086   0.0036937  -0.0151276   0.0000320   0.0100205
    3  -0.0100683  -0.0000125   0.0156670  -0.0047575  -0.0000006  -0.0007953
           19          20          21          22          23
    1  -0.0000004  -0.0000062  -0.0000067   0.0000054   0.0000042
    2  -0.0000154   0.0000218   0.0000276  -0.0000075  -0.0000212
    3  -0.0000332  -0.0000088   0.0000103   0.0000089   0.0000065
 Max gradient component =       1.567E-02
 RMS gradient           =       3.290E-03
 Gradient time:  CPU 4.39 s  wall 4.27 s
 Geometry Optimization Parameters
   NAtoms,    NIC,     NZ,  NCons,   NDum,   NFix, NCnnct, MaxDiis
       23     166       0       1       0       0       0       0

 Cartesian Hessian Update
 Hessian Updated using BFGS Update


** CONSTRAINED OPTIMIZATION IN DELOCALIZED INTERNAL COORDINATES **
   Searching for a Minimum

   Optimization Cycle:  10

                       Coordinates (Angstroms)
     ATOM                X               Y               Z
      1  H        -0.0913592349   -0.3677631520   -0.2297565707
      2  H         0.9193979392   -2.7175353380   -0.8779926825
      3  C         0.9599873949   -0.6234350076   -0.2757298534
      4  C         1.5147636171   -1.8524492035   -0.6129456797
      5  S         2.1400222360    0.5666197036    0.0961474750
      6  C         2.9129792709   -1.8363952360   -0.5727653560
      7  H         3.5324333149   -2.6955023492   -0.8049328834
      8  C         3.4446496351   -0.5857898137   -0.2023917652
      9  H         4.7081991054    1.9275650568    0.4030751919
     10  C         4.8024347562   -0.2192134758   -0.0641554382
     11  C         5.3304973789    1.0501071827    0.2678808950
     12  S         6.1054764946   -1.3851782979   -0.2691249093
     13  C         6.7144934871    1.0685544901    0.3606246795
     14  H         7.3021384604    1.9539223134    0.5735028289
     15  C         7.3135561988   -0.1836828552    0.1173482800
     16  C         8.7098763621   -0.4714131796   -0.1122418652
     17  H         8.7745322541   -0.8720071481   -2.2531547233
     18  C         9.3309549780   -0.6882638899   -1.3407872460
     19  S         9.9045440341   -0.0973407683    1.1212319951
     20  C        10.7399789112   -0.6153132501   -1.2716693836
     21  C        11.1923782422   -0.3204314252   -0.0035572441
     22  H        11.3966128768   -0.7674409502   -2.1196861196
     23  H        12.2183322871   -0.2565367865    0.3359029149
   Point Group: c1    Number of degrees of freedom:    63


   Energy is  -1656.401721750

              Constraints and their Current Values
                                        Value     Constraint
   Dihedral:       13  15  16  18     -100.000     -100.000
 Hessian Updated using BFGS Update

 62 Hessian modes will be used to form the next step
  Hessian Eigenvalues:
     0.011663    0.026860    0.043623    0.045000    0.045000    0.045001
     0.045001    0.045002    0.045002    0.045004    0.045006    0.045010
     0.045013    0.045013    0.045026    0.045037    0.045060    0.045134
     0.045565    0.151126    0.159792    0.159917    0.159973    0.159980
     0.160207    0.160491    0.161834    0.172212    0.217001    0.221392
     0.224107    0.233560    0.238865    0.244571    0.249794    0.267943
     0.282019    0.300016    0.325621    0.326585    0.334955    0.339312
     0.341264    0.365496    0.365524    0.365855    0.366904    0.367295
     0.367966    0.370149    0.371115    0.399422    0.422918    0.434036
     0.436350    0.453834    0.462864    0.463514    0.478067    0.490235
     0.498279    0.559184

 Minimum Search - Taking Simple RFO Step
 Searching for Lamda that Minimizes Along All modes
 Value Taken    Lamda =   0.00000000
 Step Taken.  Stepsize is  0.002019

                             Maximum     Tolerance    Cnvgd?
         Gradient           0.000046      0.000300     YES
         Displacement       0.000788      0.001200     YES
         Energy change     -0.000001      0.000001     YES

 Final energy is   -1656.40172175003     


 ******************************
 **  OPTIMIZATION CONVERGED  **
 ******************************

                       Coordinates (Angstroms)
     ATOM                X               Y               Z
      1  H        -0.0913592349   -0.3677631520   -0.2297565707
      2  H         0.9193979392   -2.7175353380   -0.8779926825
      3  C         0.9599873949   -0.6234350076   -0.2757298534
      4  C         1.5147636171   -1.8524492035   -0.6129456797
      5  S         2.1400222360    0.5666197036    0.0961474750
      6  C         2.9129792709   -1.8363952360   -0.5727653560
      7  H         3.5324333149   -2.6955023492   -0.8049328834
      8  C         3.4446496351   -0.5857898137   -0.2023917652
      9  H         4.7081991054    1.9275650568    0.4030751919
     10  C         4.8024347562   -0.2192134758   -0.0641554382
     11  C         5.3304973789    1.0501071827    0.2678808950
     12  S         6.1054764946   -1.3851782979   -0.2691249093
     13  C         6.7144934871    1.0685544901    0.3606246795
     14  H         7.3021384604    1.9539223134    0.5735028289
     15  C         7.3135561988   -0.1836828552    0.1173482800
     16  C         8.7098763621   -0.4714131796   -0.1122418652
     17  H         8.7745322541   -0.8720071481   -2.2531547233
     18  C         9.3309549780   -0.6882638899   -1.3407872460
     19  S         9.9045440341   -0.0973407683    1.1212319951
     20  C        10.7399789112   -0.6153132501   -1.2716693836
     21  C        11.1923782422   -0.3204314252   -0.0035572441
     22  H        11.3966128768   -0.7674409502   -2.1196861196
     23  H        12.2183322871   -0.2565367865    0.3359029149

Z-matrix Print:
$molecule
1 2
S 
C  1 1.747115
C  2 1.409311 1 110.812632
H  3 1.083753 2 121.959016 1 -177.222418 0
C  3 1.387223 2 113.623794 1 1.329929 0
H  5 1.084189 3 123.610346 2 -178.621504 0
C  5 1.414310 3 113.586501 2 -0.549509 0
C  7 1.413177 5 127.916155 3 178.269701 0
C  8 1.408497 7 128.222768 5 177.847581 0
H  9 1.084292 8 122.967006 7 -0.123967 0
C  9 1.398885 8 113.268197 7 -179.953880 0
H  11 1.083090 9 124.445632 8 179.811766 0
C  11 1.389952 9 112.446859 8 -0.028497 0
H  13 1.082964 11 127.338969 9 179.977366 0
C  2 1.444026 1 119.763996 3 -167.406927 0
C  15 1.393588 2 127.021487 1 65.013639 0
H  16 1.084335 15 122.645126 2 -13.592876 0
C  16 1.412603 15 113.164291 2 165.169860 0
H  18 1.083256 16 123.991831 15 179.247546 0
C  18 1.378307 16 112.548355 15 -1.104869 0
H  20 1.082542 18 127.749118 16 176.585469 0
S  13 1.716684 11 113.026471 9 -0.057165 0
S  20 1.724366 18 112.500091 16 -1.086269 0
$end

 
 --------------------------------------------------------------
 
                    Orbital Energies (a.u.)
 --------------------------------------------------------------
 
 Alpha MOs
 -- Occupied --
-89.078 -89.074 -89.052 -10.413 -10.413 -10.402 -10.390 -10.378
-10.371 -10.367 -10.367 -10.360 -10.355 -10.346 -10.330  -8.137
 -8.133  -8.111  -6.101  -6.097  -6.097  -6.094  -6.093  -6.090
 -6.075  -6.072  -6.068  -1.066  -1.043  -1.021  -0.945  -0.916
 -0.900  -0.885  -0.877  -0.842  -0.771  -0.748  -0.714  -0.698
 -0.691  -0.684  -0.667  -0.644  -0.608  -0.575  -0.573  -0.572
 -0.559  -0.555  -0.547  -0.537  -0.534  -0.520  -0.518  -0.506
 -0.498  -0.482  -0.448  -0.423  -0.414  -0.394  -0.386  -0.358
 -- Virtual --
 -0.229  -0.173  -0.157  -0.142  -0.132  -0.120  -0.114  -0.105
 -0.098  -0.095  -0.089  -0.087  -0.083  -0.082  -0.075  -0.074
 -0.070  -0.062  -0.057  -0.054  -0.050  -0.043  -0.036  -0.029
 -0.027  -0.020  -0.015  -0.010  -0.005  -0.000   0.001   0.005
  0.010   0.013   0.016   0.018   0.021   0.023   0.026   0.029
  0.033   0.036   0.040   0.043   0.043   0.047   0.049   0.053
  0.055   0.058   0.061   0.064   0.067   0.073   0.075   0.080
  0.085   0.088   0.093   0.098   0.103   0.107   0.111   0.113
  0.117   0.120   0.122   0.124   0.134   0.138   0.141   0.148
  0.152   0.159   0.163   0.169   0.175   0.178   0.186   0.187
  0.195   0.201   0.208   0.221   0.226   0.231   0.234   0.242
  0.250   0.257   0.258   0.266   0.275   0.319   0.328   0.346
  0.367   0.372   0.376   0.396   0.423   0.424   0.432   0.444
  0.460   0.464   0.482   0.498   0.498   0.500   0.508   0.511
  0.515   0.530   0.546   0.554   0.558   0.574   0.579   0.583
  0.594   0.595   0.604   0.615   0.616   0.638   0.641   0.652
  0.659   0.670   0.677   0.682   0.690   0.698   0.710   0.731
  0.764   0.770   0.788   0.802   0.806   0.812   0.819   0.823
  0.834   0.838   0.845   0.851   0.859   0.860   0.876   0.880
  0.893   0.910   0.911   0.917   0.927   0.947   0.956   0.960
  0.978   0.988   1.020   1.027   1.035   1.049   1.090   1.104
  1.108   1.114   1.130   1.143   1.173   1.187   1.190   1.198
  1.205   1.217   1.223   1.253   1.271   1.306   1.324   1.334
  1.370   1.391   1.404   1.441   1.469   1.515   1.537   1.552
  1.587   1.668   1.694   1.704   1.711   1.738   1.762   1.772
  1.781   1.782   1.798   1.817   1.857   1.874   1.878   1.900
  1.907   1.945   1.954   1.988   1.989   2.016   2.021   2.038
  2.059   2.070   2.088   2.098   2.129   2.157   2.193   2.221
  2.247   2.268   2.290   2.298   2.300   2.313   2.335   2.340
  2.365   2.373   2.385   2.389   2.407   2.437   2.455   2.468
  2.476   2.511   2.534   2.560   2.564   2.609   2.643   2.712
  2.717   2.742   2.763   2.786   2.792   2.986   3.038   3.059
  3.133   3.150   3.174   3.262   3.283   3.525   3.587   3.606
  3.823   3.830   3.848   4.093   4.146   4.157   4.168   4.182
  4.199   4.248   4.332   4.392   4.506   4.551   4.572
 
 Beta MOs
 -- Occupied --
-89.078 -89.074 -89.052 -10.410 -10.410 -10.401 -10.386 -10.377
-10.369 -10.366 -10.365 -10.359 -10.355 -10.345 -10.330  -8.137
 -8.133  -8.111  -6.101  -6.097  -6.097  -6.094  -6.094  -6.090
 -6.075  -6.072  -6.069  -1.062  -1.039  -1.018  -0.939  -0.913
 -0.898  -0.881  -0.875  -0.835  -0.767  -0.745  -0.711  -0.696
 -0.688  -0.682  -0.665  -0.642  -0.607  -0.572  -0.570  -0.563
 -0.557  -0.553  -0.540  -0.536  -0.532  -0.517  -0.510  -0.503
 -0.497  -0.481  -0.428  -0.421  -0.410  -0.390  -0.372
 -- Virtual --
 -0.305  -0.212  -0.165  -0.146  -0.141  -0.130  -0.116  -0.112
 -0.099  -0.096  -0.093  -0.087  -0.084  -0.081  -0.076  -0.074
 -0.072  -0.069  -0.062  -0.056  -0.053  -0.049  -0.043  -0.035
 -0.028  -0.025  -0.019  -0.014  -0.010  -0.004   0.000   0.001
  0.006   0.011   0.014   0.017   0.020   0.021   0.024   0.027
  0.029   0.034   0.037   0.041   0.043   0.044   0.048   0.050
  0.054   0.055   0.058   0.062   0.065   0.068   0.073   0.077
  0.081   0.086   0.090   0.094   0.099   0.104   0.108   0.111
  0.113   0.118   0.120   0.123   0.126   0.135   0.140   0.142
  0.148   0.153   0.159   0.163   0.170   0.176   0.179   0.187
  0.188   0.196   0.202   0.210   0.223   0.228   0.232   0.235
  0.242   0.251   0.258   0.259   0.268   0.276   0.320   0.330
  0.347   0.368   0.374   0.376   0.396   0.423   0.425   0.434
  0.446   0.461   0.465   0.484   0.499   0.502   0.504   0.512
  0.515   0.522   0.533   0.548   0.556   0.560   0.577   0.581
  0.586   0.596   0.596   0.610   0.615   0.617   0.642   0.643
  0.655   0.663   0.672   0.680   0.684   0.692   0.701   0.712
  0.732   0.766   0.774   0.789   0.804   0.808   0.815   0.821
  0.826   0.835   0.840   0.846   0.852   0.860   0.860   0.877
  0.881   0.894   0.911   0.913   0.919   0.929   0.948   0.956
  0.961   0.978   0.989   1.022   1.029   1.038   1.052   1.093
  1.108   1.112   1.121   1.132   1.145   1.175   1.189   1.194
  1.201   1.213   1.219   1.226   1.256   1.274   1.310   1.329
  1.338   1.374   1.394   1.408   1.445   1.473   1.523   1.543
  1.562   1.593   1.672   1.696   1.705   1.716   1.742   1.763
  1.777   1.784   1.785   1.800   1.819   1.862   1.877   1.880
  1.906   1.910   1.950   1.956   1.993   1.996   2.020   2.029
  2.043   2.063   2.075   2.093   2.104   2.133   2.162   2.197
  2.223   2.249   2.271   2.293   2.302   2.304   2.317   2.337
  2.342   2.367   2.377   2.387   2.391   2.409   2.440   2.457
  2.471   2.479   2.513   2.536   2.563   2.567   2.611   2.647
  2.715   2.720   2.744   2.764   2.789   2.793   2.987   3.039
  3.060   3.133   3.151   3.175   3.263   3.284   3.526   3.589
  3.607   3.823   3.831   3.848   4.097   4.151   4.161   4.170
  4.184   4.202   4.253   4.335   4.396   4.510   4.554   4.575
 --------------------------------------------------------------
 
          Ground-State Mulliken Net Atomic Charges

     Atom                 Charge (a.u.)    Spin (a.u.)
  --------------------------------------------------------
      1 H                     0.246201      -0.013169
      2 H                     0.166213       0.001174
      3 C                     0.085944       0.258694
      4 C                    -0.346344      -0.037186
      5 S                    -0.055272      -0.031290
      6 C                     0.626744       0.140925
      7 H                     0.150826      -0.009393
      8 C                    -0.333556       0.066048
      9 H                     0.149607      -0.005849
     10 C                    -0.111480       0.156021
     11 C                    -0.040774       0.103251
     12 S                    -0.029919      -0.053027
     13 C                     0.152491       0.014391
     14 H                     0.178789      -0.002556
     15 C                    -0.222509       0.233997
     16 C                    -0.151332       0.037816
     17 H                     0.160411      -0.005226
     18 C                     0.177067       0.061429
     19 S                     0.165451      -0.017400
     20 C                    -0.340301      -0.015867
     21 C                    -0.009077       0.121039
     22 H                     0.153241       0.002095
     23 H                     0.227579      -0.005918
  --------------------------------------------------------
  Sum of atomic charges =     1.000000
  Sum of spin   charges =     1.000000

 -----------------------------------------------------------------
                    Cartesian Multipole Moments
 -----------------------------------------------------------------
    Charge (ESU x 10^10)
                 4.8032
    Dipole Moment (Debye)
         X      26.8555      Y      -1.7893      Z      -1.5630
       Tot      26.9604
    Quadrupole Moments (Debye-Ang)
        XX     130.0498     XY      -4.0780     YY     -94.2001
        XZ      -9.3295     YZ       6.4260     ZZ    -102.6189
    Octopole Moments (Debye-Ang^2)
       XXX     422.6920    XXY       1.1975    XYY    -610.5267
       YYY     113.3514    XXZ     -76.0826    XYZ      35.0193
       YYZ       4.3341    XZZ    -598.7495    YZZ      36.6891
       ZZZ      22.6072
    Hexadecapole Moments (Debye-Ang^3)
      XXXX   -5255.3662   XXXY     114.7842   XXYY   -5138.7544
      XYYY     684.3757   YYYY    -646.5770   XXXZ    -731.2365
      XXYZ     242.9733   XYYZ      32.3725   YYYZ     -76.8261
      XXZZ   -4668.6311   XYZZ     175.8910   YYZZ    -187.6029
      XZZZ      18.5145   YZZZ     -98.0478   ZZZZ    -389.6390
 -----------------------------------------------------------------
Archival summary:
1\1\nid00481\OPT\ProcedureUnspecified\BasisUnspecified\3128(1+,2)\bwood\TueMay3011:02:442017TueMay3011:02:442017\0\\#,OPT,ProcedureUnspecified,BasisUnspecified,\\1,2\S\C,1,1.74711\C,2,1.40931,1,110.813\H,3,1.08375,2,121.959,1,-177.222,0\C,3,1.38722,2,113.624,1,1.32993,0\H,5,1.08419,3,123.61,2,-178.622,0\C,5,1.41431,3,113.587,2,-0.549509,0\C,7,1.41318,5,127.916,3,178.27,0\C,8,1.4085,7,128.223,5,177.848,0\H,9,1.08429,8,122.967,7,-0.123967,0\C,9,1.39888,8,113.268,7,-179.954,0\H,11,1.08309,9,124.446,8,179.812,0\C,11,1.38995,9,112.447,8,-0.028497,0\H,13,1.08296,11,127.339,9,179.977,0\C,2,1.44403,1,119.764,3,-167.407,0\C,15,1.39359,2,127.021,1,65.0136,0\H,16,1.08433,15,122.645,2,-13.5929,0\C,16,1.4126,15,113.164,2,165.17,0\H,18,1.08326,16,123.992,15,179.248,0\C,18,1.37831,16,112.548,15,-1.10487,0\H,20,1.08254,18,127.749,16,176.585,0\S,13,1.71668,11,113.026,9,-0.0571652,0\S,20,1.72437,18,112.5,16,-1.08627,0\\\@

 Total job time:  241.36s(wall), 255.69s(cpu) 
 Tue May 30 11:02:44 2017

        *************************************************************
        *                                                           *
        *  Thank you very much for using Q-Chem.  Have a nice day.  *
        *                                                           *
        *************************************************************


0 sent ACK to 0 
now end server 0 ... 
