srun -N 1 --ntasks-per-node 22 --cpus-per-task 2 --cpu_bind=cores --nodelist nid00499 /global/project/projectdirs/jcesr/qchem/qc44/cnl_qc441/dist/exe/qcprog.cori.haswell.exe .pt_nn_cation_-70.0.in.33608.qcin.1 /dev/shm/eg_qchem/qchem33608/
Process 1 of 22 is on nid00499 - thread support 0
Process 2 of 22 is on nid00499 - thread support 0
Process 3 of 22 is on nid00499 - thread support 0
Process 4 of 22 is on nid00499 - thread support 0
Process 6 of 22 is on nid00499 - thread support 0
Process 0 of 22 is on nid00499 - thread support 0
Process 5 of 22 is on nid00499 - thread support 0
Process 21 of 22 is on nid00499 - thread support 0
initial socket setup ...start
initial socket setup ...done 
now start server 0 ... 
nid00499 10.128.1
Q-Chem Developer Version! Running on 10.128.1.*
                  Welcome to Q-Chem
     A Quantum Leap Into The Future Of Chemistry


 Q-Chem 4.4, Q-Chem, Inc., Pleasanton, CA (2016)

 Y. Shao,  Z. Gan,  E. Epifanovsky,  A. T. B. Gilbert,  M. Wormit,  
 J. Kussmann,  A. W. Lange,  A. Behn,  J. Deng,  X. Feng,  D. Ghosh,  
 M. Goldey,  P. R. Horn,  L. D. Jacobson,  I. Kaliman,  F. Rob,  
 R. Z. Khaliullin,  T. Kus,  A. Landau,  J. Liu,  E. I. Proynov,  Y. M. Rhee,  
 R. M. Richard,  M. A. Rohrdanz,  R. P. Steele,  E. J. Sundstrom,  
 H. L. Woodcock III,  P. M. Zimmerman,  D. Zuev,  B. Albrecht,  E. Alguire,  
 B. Austin,  S. A. Baeppler,  G. J. O. Beran,  Y. A. Bernard,  
 E. J. Berquist,  K. Brandhorst,  K. B. Bravaya,  S. T. Brown,  D. Casanova,  
 C.-M. Chang,  Y. Chen,  S. H. Chien,  K. D. Closser,  M. P. Coons,  
 D. L. Crittenden,  S. Dasgupta,  M. Diedenhofen,  R. A. DiStasio Jr.,  
 H. Do,  A. D. Dutoi,  R. G. Edgar,  P.-T. Fang,  S. Fatehi,  Q. Feng,  
 L. Fusti-Molnar,  A. Ghysels,  A. Golubeva-Zadorozhnaya,  J. Gomes,  
 A. Gunina,  M. W. D. Hanson-Heine,  P. H. P. Harbach,  A. W. Hauser,  
 J. E. Herr,  E. G. Hohenstein,  Z. C. Holden,  K. Hui,  T.-C. Jagau,  H. Ji,  
 B. Kaduk,  K. Khistyaev,  Jaehoon Kim,  Jihan Kim,  R. A. King,  
 P. Klunzinger,  K. Koh,  D. Kosenkov,  T. Kowalczyk,  C. M. Krauter,  
 A. Kunitsa,  K. U. Lao,  A. Laurent,  K. V. Lawler,  J. Lee,  D. Lefrancois,  
 S. Lehtola,  S. V. Levchenko,  C. Y. Lin,  Y.-S. Lin,  F. Liu,  E. Livshits,  
 R. C. Lochan,  A. Luenser,  P. Manohar,  S. F. Manzer,  S.-P. Mao,  Y. Mao,  
 N. Mardirossian,  A. V. Marenich,  L. A. Martinez-Martinez,  S. A. Maurer,  
 N. J. Mayhall,  J.-M. Mewes,  A. F. Morrison,  K. Nanda,  T. S. Nguyen-Beck,  
 C. M. Oana,  R. Olivares-Amaya,  D. P. O'Neill,  J. A. Parkhill,  
 T. M. Perrine,  R. Peverati,  P. A. Pieniazek,  F. Plasser,  A. Prociuk,  
 D. R. Rehn,  E. Rosta,  N. J. Russ,  N. Sergueev,  S. M. Sharada,  
 S. Sharma,  D. W. Small,  A. Sodt,  T. Stauch,  T. Stein,  D. Stuck,  
 Y.-C. Su,  A. J. W. Thom,  T. Tsuchimochi,  L. Vogt,  O. Vydrov,  T. Wang,  
 M. A. Watson,  J. Wenzel,  A. White,  C. F. Williams,  V. Vanovschi,  
 K. Yao,  S. Yeganeh,  S. R. Yost,  Z.-Q. You,  I. Y. Zhang,  X. Zhang,  
 Y. Zhao,  B. R. Brooks,  G. K. L. Chan,  D. M. Chipman,  C. J. Cramer,  
 W. A. Goddard III,  M. S. Gordon,  W. J. Hehre,  A. Klamt,  
 H. F. Schaefer III,  M. W. Schmidt,  C. D. Sherrill,  D. G. Truhlar,  
 A. Warshel,  X. Xu,  A. Aspuru-Guzik,  R. Baer,  A. T. Bell,  N. A. Besley,  
 J.-D. Chai,  A. Dreuw,  B. D. Dunietz,  T. R. Furlani,  S. R. Gwaltney,  
 C.-P. Hsu,  Y. Jung,  J. Kong,  D. S. Lambrecht,  W. Liang,  C. Ochsenfeld,  
 V. A. Rassolov,  L. V. Slipchenko,  J. E. Subotnik,  T. Van Voorhis,  
 J. M. Herbert,  A. I. Krylov,  P. M. W. Gill,  M. Head-Gordon

 Contributors to earlier versions of Q-Chem not listed above: 
 R. D. Adamson,  J. Baker,  E. F. C. Byrd,  A. K. Chakraborty,  C.-L. Cheng,  
 H. Dachsel,  R. J. Doerksen,  G. Hawkins,  A. Heyden,  S. Hirata,  
 G. Kedziora,  F. J. Keil,  C. Kelley,  P. P. Korambath,  W. Kurlancheek,  
 A. M. Lee,  M. S. Lee,  D. Liotard,  I. Lotan,  P. E. Maslen,  N. Nair,  
 D. Neuhauser,  R. Olson,  B. Peters,  J. Ritchie,  N. E. Schultz,  
 N. Shenvi,  A. C. Simmonett,  K. S. Thanthiriwatte,  Q. Wu,  W. Zhang

 Please cite Q-Chem as follows:
 Y. Shao et al., Mol. Phys. 113, 184-215 (2015)
 DOI: 10.1080/00268976.2014.952696

 Q-Chem 4.4.2 for Intel X86 EM64T Linux

 Parts of Q-Chem use Armadillo 5.200.1 (Boston Tea Smuggler).
 http://arma.sourceforge.net/

 Q-Chem begins on Tue May 30 10:58:48 2017  

Host: nid00444
0

     Scratch files written to /dev/shm/eg_qchem/qchem33608.0//
 Parallel job on  22  processors

Checking the input file for inconsistencies... 	...done.

--------------------------------------------------------------
User input:
--------------------------------------------------------------
$molecule
 1  2
 H           0.00000000        0.00000000        0.00000000
 H           0.66366000       -2.46828000       -0.59127000
 C           0.99103000       -0.39106000       -0.11652000
 C           1.36812000       -1.67442000       -0.42485000
 S           2.34669000        0.62586000        0.08638000
 C           2.76167000       -1.82175000       -0.50822000
 H           3.26291000       -2.73877000       -0.76199000
 C           3.44671000       -0.65043000       -0.26057000
 H           4.55645000        1.43902671        0.15704385
 C           4.88382000       -0.65043000       -0.26057000
 C           5.26091000        0.64090194        0.01245390
 S           6.23948000       -1.67253113       -0.43550939
 C           6.65446000        0.79046248        0.09175311
 H           7.15570000        1.71409653        0.32028213
 C           7.33950000       -0.38720773       -0.12368600
 C           8.77661000       -0.38720773       -0.12368600
 H           8.96041000        0.64756975       -2.00565836
 C           9.46165000        0.21802591       -1.15664977
 S           9.87663000       -0.98965437        1.05374678
 C          10.85520000        0.18051924       -0.99157417
 C          11.23229000       -0.45524785        0.16509334
 H          11.55966000        0.59176879       -1.69070414
 H          12.22332000       -0.63228655        0.53273813
$end


$rem
         jobtype = opt
        exchange = b3lyp
           basis = 6-31++g**
  max_scf_cycles = 150
      mem_static = 281
       mem_total = 2818
      sym_ignore = true
        symmetry = false
          thresh = 12
$end


$opt
CONSTRAINT
tors 13 15 16 18 -70.0
ENDCONSTRAINT
$end

--------------------------------------------------------------
 ----------------------------------------------------------------
             Standard Nuclear Orientation (Angstroms)
    I     Atom           X                Y                Z
 ----------------------------------------------------------------
    1      H       0.0000000000     0.0000000000     0.0000000000
    2      H       0.6636600000    -2.4682800000    -0.5912700000
    3      C       0.9910300000    -0.3910600000    -0.1165200000
    4      C       1.3681200000    -1.6744200000    -0.4248500000
    5      S       2.3466900000     0.6258600000     0.0863800000
    6      C       2.7616700000    -1.8217500000    -0.5082200000
    7      H       3.2629100000    -2.7387700000    -0.7619900000
    8      C       3.4467100000    -0.6504300000    -0.2605700000
    9      H       4.5564500000     1.4390267100     0.1570438500
   10      C       4.8838200000    -0.6504300000    -0.2605700000
   11      C       5.2609100000     0.6409019400     0.0124539000
   12      S       6.2394800000    -1.6725311300    -0.4355093900
   13      C       6.6544600000     0.7904624800     0.0917531100
   14      H       7.1557000000     1.7140965300     0.3202821300
   15      C       7.3395000000    -0.3872077300    -0.1236860000
   16      C       8.7766100000    -0.3872077300    -0.1236860000
   17      H       8.9604100000     0.6475697500    -2.0056583600
   18      C       9.4616500000     0.2180259100    -1.1566497700
   19      S       9.8766300000    -0.9896543700     1.0537467800
   20      C      10.8552000000     0.1805192400    -0.9915741700
   21      C      11.2322900000    -0.4552478500     0.1650933400
   22      H      11.5596600000     0.5917687900    -1.6907041400
   23      H      12.2233200000    -0.6322865500     0.5327381300
 ----------------------------------------------------------------
 Nuclear Repulsion Energy =  1184.6614885943 hartrees
 There are       64 alpha and       63 beta electrons
 Requested basis set is 6-31++G(d,p)
 There are 110 shells and 345 basis functions

 Total QAlloc Memory Limit   2818 MB
 Mega-Array Size       275 MB
 MEM_STATIC part       281 MB
 A cutoff of  1.0D-12 yielded   4719 shell pairs
 There are     48105 function pairs

 Q-Chem warning in module /project/projectdirs/jcesr/qchem/qc44/cnl_qc441/compile/cori/qc_src/libqints/qchem/aobasis.C, line 68:

 Using reconstructed effective core potential

 
 -------------------------------------------------------
 OpenMP Integral Computing Module                       
 Release: version 1.0, May 2013, Q-Chem Inc. Pittsburgh 
 -------------------------------------------------------
 Integral Job Info:
 Integral job number is                      11
 Integral operator is                         1
 short-range coefficients                     0
 long-range coefficients              100000000
 Omega coefficients                           0
 if combine SR and LR in K                    0
 Integral screening is                        0
 Integral computing path is                   2
 max size of driver memory is            800000
 size of driver memory is                593474
 size of scratch memory is             15166112
 max col of scratch BK array               1296
 max len of scratch array in speh3          155
 max len of scratch index in speh4           18
 max int batch size is                      520
 min int batch size is                       52
 fixed nKL is                                52
 max L of basis functions is                  2
 order of int derivative is                   0
 number of shells is                        110
 number of basis is                         345
 number of cartesian basis is               345
 number of contracted shell pairs          4719
 number of primitive shell pairs          14776
 maxK2 (contraction) of shell pair           36
 max number of K2 of shell pair               1
 max number of CS2 of shell pair            506
 max number of PS2 of shell pair           3036
 mem total for path MDJ                  101080
 -------------------------------------------------------
 Smallest overlap matrix eigenvalue = 1.23E-07
 Linear dependence detected in AO basis
 Number of orthogonalized atomic orbitals = 342
 Maximum deviation from orthogonality = 6.789E-11

 Scale SEOQF with 1.000000e-02/1.000000e-01/1.000000e-01

 Standard Electronic Orientation quadrupole field applied
 Nucleus-field energy     =     0.0000000271 hartrees
 Guess from superposition of atomic densities
 Warning:  Energy on first SCF cycle will be non-variational
 An unrestricted hybrid HF-DFT SCF calculation will be
 performed using Pulay DIIS extrapolation
 Exchange:     0.2000 Hartree-Fock + 0.0800 Slater + 0.7200 B88
 Correlation:  0.1900 VWN1RPA + 0.8100 LYP
 Using SG-1 standard quadrature grid
 SCF converges when DIIS error is below 1.0E-08
 Inaccurate integrated density:
   Number of electrons =   127
   Numerical integral  =   127.999872763925
   Relative error      =     0.7873013889 %
 ---------------------------------------
  Cycle       Energy         DIIS Error
 ---------------------------------------
    1   -1660.7263158009      3.84E-02
    2   -1656.1447211980      3.57E-03
    3   -1655.7556304329      5.77E-03
    4   -1656.3327253112      1.13E-03
    5   -1656.3518688992      4.93E-04
    6   -1656.3558901408      1.82E-04
    7   -1656.3564298860      7.75E-05
    8   -1656.3565527920      2.47E-05
    9   -1656.3565797055      1.15E-05
   10   -1656.3565969478      5.25E-06
   11   -1656.3566058215      5.06E-06
   12   -1656.3566092263      2.05E-06
   13   -1656.3566103998      1.24E-06
   14   -1656.3566106124      4.20E-07
   15   -1656.3566106527      1.62E-07
   16   -1656.3566106571      8.90E-08
   17   -1656.3566106562      3.20E-08
   18   -1656.3566106574      2.32E-08
   19   -1656.3566106580      1.27E-08
   20   -1656.3566106589      5.61E-09 Convergence criterion met
 ---------------------------------------
 <S^2> = 0.7630
 SCF time:  CPU 27.32 s  wall 25.56 s
 SCF   energy in the final basis set = -1656.3566106589
 Total energy in the final basis set = -1656.3566106589
 
 --------------------------------------------------------------
 
                    Orbital Energies (a.u.)
 --------------------------------------------------------------
 
 Alpha MOs
 -- Occupied --
-89.088 -89.080 -89.048 -10.410 -10.409 -10.407 -10.393 -10.366
-10.365 -10.364 -10.356 -10.356 -10.348 -10.330 -10.320  -8.147
 -8.140  -8.107  -6.112  -6.108  -6.105  -6.104  -6.101  -6.097
 -6.072  -6.068  -6.065  -1.086  -1.059  -1.026  -0.959  -0.920
 -0.905  -0.898  -0.873  -0.847  -0.774  -0.753  -0.711  -0.700
 -0.694  -0.687  -0.675  -0.648  -0.611  -0.587  -0.586  -0.578
 -0.563  -0.554  -0.552  -0.530  -0.526  -0.525  -0.522  -0.507
 -0.501  -0.477  -0.452  -0.427  -0.417  -0.385  -0.384  -0.367
 -- Virtual --
 -0.223  -0.164  -0.153  -0.146  -0.122  -0.118  -0.111  -0.105
 -0.103  -0.099  -0.094  -0.089  -0.082  -0.079  -0.075  -0.071
 -0.068  -0.062  -0.060  -0.055  -0.046  -0.042  -0.035  -0.034
 -0.029  -0.019  -0.017  -0.012  -0.007  -0.002   0.003   0.006
  0.010   0.013   0.016   0.017   0.021   0.022   0.027   0.029
  0.032   0.038   0.040   0.043   0.044   0.048   0.050   0.054
  0.056   0.059   0.062   0.063   0.066   0.074   0.077   0.083
  0.084   0.094   0.098   0.100   0.104   0.110   0.114   0.118
  0.122   0.123   0.128   0.130   0.135   0.147   0.151   0.157
  0.161   0.165   0.170   0.171   0.177   0.181   0.185   0.191
  0.207   0.214   0.218   0.226   0.231   0.239   0.247   0.251
  0.258   0.264   0.275   0.287   0.311   0.334   0.344   0.352
  0.367   0.384   0.398   0.404   0.426   0.433   0.456   0.470
  0.482   0.487   0.493   0.500   0.504   0.507   0.508   0.516
  0.531   0.546   0.550   0.554   0.569   0.574   0.586   0.593
  0.599   0.604   0.615   0.620   0.637   0.644   0.653   0.655
  0.659   0.666   0.675   0.682   0.700   0.723   0.736   0.770
  0.785   0.795   0.804   0.809   0.820   0.829   0.836   0.842
  0.849   0.857   0.862   0.863   0.870   0.886   0.893   0.897
  0.904   0.911   0.921   0.936   0.949   0.963   0.967   0.989
  1.010   1.014   1.032   1.041   1.063   1.088   1.096   1.111
  1.137   1.146   1.164   1.175   1.187   1.195   1.206   1.217
  1.221   1.242   1.252   1.262   1.272   1.315   1.324   1.352
  1.383   1.403   1.443   1.475   1.500   1.545   1.580   1.662
  1.668   1.697   1.705   1.738   1.744   1.773   1.779   1.788
  1.799   1.836   1.841   1.853   1.880   1.899   1.907   1.938
  1.950   1.969   1.990   2.032   2.042   2.066   2.074   2.078
  2.090   2.118   2.136   2.165   2.180   2.195   2.223   2.259
  2.275   2.305   2.315   2.321   2.338   2.356   2.363   2.383
  2.386   2.405   2.413   2.440   2.443   2.480   2.485   2.513
  2.529   2.535   2.565   2.584   2.623   2.677   2.690   2.722
  2.749   2.786   2.791   2.812   3.025   3.065   3.078   3.149
  3.180   3.199   3.284   3.316   3.553   3.613   3.646   3.815
  3.841   3.854   4.095   4.149   4.173   4.185   4.194   4.227
  4.245   4.338   4.406   4.506   4.557   4.582
 
 Beta MOs
 -- Occupied --
-89.089 -89.080 -89.048 -10.408 -10.405 -10.405 -10.390 -10.365
-10.364 -10.362 -10.357 -10.356 -10.347 -10.329 -10.320  -8.148
 -8.140  -8.107  -6.112  -6.108  -6.105  -6.105  -6.101  -6.097
 -6.071  -6.068  -6.065  -1.080  -1.054  -1.023  -0.953  -0.918
 -0.902  -0.893  -0.871  -0.841  -0.770  -0.750  -0.708  -0.697
 -0.692  -0.685  -0.673  -0.647  -0.609  -0.584  -0.577  -0.574
 -0.561  -0.551  -0.542  -0.528  -0.524  -0.523  -0.516  -0.505
 -0.500  -0.475  -0.431  -0.423  -0.414  -0.384  -0.367
 -- Virtual --
 -0.316  -0.206  -0.159  -0.144  -0.141  -0.119  -0.117  -0.105
 -0.101  -0.099  -0.094  -0.092  -0.088  -0.082  -0.079  -0.074
 -0.069  -0.067  -0.061  -0.059  -0.054  -0.046  -0.042  -0.035
 -0.033  -0.028  -0.018  -0.016  -0.012  -0.006  -0.002   0.003
  0.007   0.010   0.014   0.016   0.018   0.022   0.022   0.028
  0.029   0.033   0.039   0.041   0.044   0.045   0.049   0.051
  0.054   0.056   0.060   0.063   0.064   0.067   0.075   0.078
  0.083   0.085   0.095   0.099   0.101   0.105   0.111   0.115
  0.118   0.123   0.124   0.129   0.131   0.136   0.148   0.152
  0.158   0.162   0.165   0.171   0.172   0.177   0.182   0.187
  0.193   0.208   0.215   0.219   0.227   0.232   0.240   0.248
  0.253   0.259   0.265   0.277   0.288   0.312   0.336   0.346
  0.353   0.367   0.386   0.399   0.405   0.427   0.434   0.458
  0.472   0.487   0.490   0.495   0.501   0.506   0.512   0.514
  0.519   0.535   0.548   0.552   0.556   0.574   0.575   0.588
  0.595   0.604   0.606   0.618   0.624   0.638   0.646   0.655
  0.658   0.663   0.668   0.679   0.683   0.703   0.725   0.737
  0.772   0.786   0.798   0.808   0.811   0.823   0.832   0.837
  0.844   0.851   0.858   0.862   0.864   0.871   0.888   0.895
  0.898   0.906   0.912   0.923   0.938   0.950   0.964   0.969
  0.990   1.011   1.015   1.034   1.045   1.066   1.090   1.099
  1.114   1.140   1.151   1.166   1.181   1.191   1.199   1.212
  1.219   1.224   1.244   1.254   1.266   1.277   1.319   1.327
  1.355   1.386   1.407   1.446   1.482   1.504   1.557   1.583
  1.665   1.675   1.702   1.708   1.740   1.750   1.775   1.781
  1.790   1.800   1.841   1.846   1.856   1.884   1.901   1.911
  1.941   1.954   1.973   1.996   2.038   2.052   2.071   2.077
  2.084   2.096   2.120   2.142   2.169   2.185   2.200   2.226
  2.261   2.281   2.308   2.318   2.325   2.341   2.358   2.366
  2.388   2.390   2.407   2.415   2.443   2.446   2.482   2.486
  2.516   2.532   2.538   2.569   2.586   2.624   2.681   2.694
  2.724   2.750   2.788   2.793   2.814   3.026   3.066   3.079
  3.150   3.180   3.199   3.285   3.316   3.554   3.615   3.646
  3.815   3.842   3.854   4.100   4.155   4.175   4.187   4.197
  4.230   4.250   4.341   4.411   4.509   4.560   4.583
 --------------------------------------------------------------
 
          Ground-State Mulliken Net Atomic Charges

     Atom                 Charge (a.u.)    Spin (a.u.)
  --------------------------------------------------------
      1 H                     0.254104      -0.013920
      2 H                     0.161320       0.001014
      3 C                     0.099616       0.282055
      4 C                    -0.395108      -0.037927
      5 S                    -0.101487      -0.041787
      6 C                     0.565526       0.151997
      7 H                     0.149034      -0.009460
      8 C                     0.144757       0.094174
      9 H                     0.072704      -0.008851
     10 C                    -0.158128       0.146610
     11 C                    -0.423450       0.128465
     12 S                     0.294990      -0.052504
     13 C                    -0.032996      -0.023674
     14 H                     0.181946       0.000228
     15 C                    -0.214325       0.260250
     16 C                    -0.150706       0.037445
     17 H                     0.157723      -0.003050
     18 C                     0.234980       0.025008
     19 S                     0.160757      -0.006852
     20 C                    -0.367155       0.002365
     21 C                    -0.011374       0.070433
     22 H                     0.151340       0.000522
     23 H                     0.225934      -0.002543
  --------------------------------------------------------
  Sum of atomic charges =     1.000000
  Sum of spin   charges =     1.000000

 -----------------------------------------------------------------
                    Cartesian Multipole Moments
 -----------------------------------------------------------------
    Charge (ESU x 10^10)
                 4.8032
    Dipole Moment (Debye)
         X      25.6178      Y      -1.8879      Z      -1.2616
       Tot      25.7182
    Quadrupole Moments (Debye-Ang)
        XX     115.0995     XY      -4.4277     YY     -94.1987
        XZ      -7.1781     YZ       0.8708     ZZ    -104.2007
    Octopole Moments (Debye-Ang^2)
       XXX     251.1940    XXY      21.1127    XYY    -609.4518
       YYY     133.6501    XXZ     -40.6372    XYZ     -15.5988
       YYZ       7.8189    XZZ    -619.6870    YZZ      52.4838
       ZZZ      35.0972
    Hexadecapole Moments (Debye-Ang^3)
      XXXX   -7237.4378   XXXY     512.0356   XXYY   -5121.7253
      XYYY     839.5515   YYYY    -714.7587   XXXZ    -266.4448
      XXYZ    -245.4797   XYYZ      49.1833   YYYZ       4.5201
      XXZZ   -4893.5676   XYZZ     310.2105   YYZZ    -187.4984
      XZZZ     114.0245   YZZZ     -31.0635   ZZZZ    -342.4849
 -----------------------------------------------------------------
 Calculating analytic gradient of the SCF energy
 Gradient of SCF Energy
            1           2           3           4           5           6
    1   0.0071238   0.0045069  -0.0053313  -0.0040354   0.0037685   0.0288861
    2  -0.0034433   0.0049687  -0.0016267   0.0163771  -0.0288854   0.0149047
    3  -0.0012646   0.0009179  -0.0007154   0.0050180  -0.0061522   0.0045858
            7           8           9          10          11          12
    1  -0.0015208  -0.0258949  -0.0021006   0.0488121  -0.0610537   0.0023455
    2   0.0061371   0.0587206  -0.0060821  -0.0427279  -0.0339565   0.0422679
    3   0.0004790   0.0115820  -0.0017031  -0.0092154  -0.0088068   0.0044189
           13          14          15          16          17          18
    1   0.0252753  -0.0035314  -0.0025282  -0.0024396   0.0020593  -0.0035404
    2  -0.0202938  -0.0043731  -0.0104953   0.0053859  -0.0033040  -0.0074527
    3   0.0020698  -0.0004833  -0.0116686   0.0139272   0.0047519   0.0025134
           19          20          21          22          23
    1   0.0030156  -0.0063899   0.0031636  -0.0040077  -0.0065828
    2   0.0173883   0.0012237  -0.0023747  -0.0020984  -0.0002601
    3  -0.0176043   0.0026716   0.0038358   0.0049237  -0.0040812
 Max gradient component =       6.105E-02
 RMS gradient           =       1.715E-02
 Gradient time:  CPU 4.24 s  wall 4.24 s
 Geometry Optimization Parameters
   NAtoms,    NIC,     NZ,  NCons,   NDum,   NFix, NCnnct, MaxDiis
       23     166       0       1       0       0       0       0


** CONSTRAINED OPTIMIZATION IN DELOCALIZED INTERNAL COORDINATES **
   Searching for a Minimum

   Optimization Cycle:   1

                       Coordinates (Angstroms)
     ATOM                X               Y               Z
      1  H         0.0000000000    0.0000000000    0.0000000000
      2  H         0.6636600000   -2.4682800000   -0.5912700000
      3  C         0.9910300000   -0.3910600000   -0.1165200000
      4  C         1.3681200000   -1.6744200000   -0.4248500000
      5  S         2.3466900000    0.6258600000    0.0863800000
      6  C         2.7616700000   -1.8217500000   -0.5082200000
      7  H         3.2629100000   -2.7387700000   -0.7619900000
      8  C         3.4467100000   -0.6504300000   -0.2605700000
      9  H         4.5564500000    1.4390267100    0.1570438500
     10  C         4.8838200000   -0.6504300000   -0.2605700000
     11  C         5.2609100000    0.6409019400    0.0124539000
     12  S         6.2394800000   -1.6725311300   -0.4355093900
     13  C         6.6544600000    0.7904624800    0.0917531100
     14  H         7.1557000000    1.7140965300    0.3202821300
     15  C         7.3395000000   -0.3872077300   -0.1236860000
     16  C         8.7766100000   -0.3872077300   -0.1236860000
     17  H         8.9604100000    0.6475697500   -2.0056583600
     18  C         9.4616500000    0.2180259100   -1.1566497700
     19  S         9.8766300000   -0.9896543700    1.0537467800
     20  C        10.8552000000    0.1805192400   -0.9915741700
     21  C        11.2322900000   -0.4552478500    0.1650933400
     22  H        11.5596600000    0.5917687900   -1.6907041400
     23  H        12.2233200000   -0.6322865500    0.5327381300
   Point Group: c1    Number of degrees of freedom:    63


   Energy is  -1656.356610659

              Constraints and their Current Values
                                        Value     Constraint
   Dihedral:       13  15  16  18      -70.000      -70.000

 Attempting to Generate Delocalized Internal Coordinates

 62 Hessian modes will be used to form the next step
  Hessian Eigenvalues:
     0.045000    0.045000    0.045000    0.045000    0.045000    0.045000
     0.045001    0.045001    0.045001    0.045002    0.045003    0.045003
     0.045011    0.045012    0.045012    0.045025    0.045032    0.045058
     0.045059    0.159944    0.159945    0.159945    0.159992    0.159993
     0.159993    0.160000    0.160000    0.221307    0.221308    0.227041
     0.237995    0.238010    0.245411    0.249662    0.249670    0.249670
     0.249825    0.326317    0.326319    0.326962    0.340043    0.340044
     0.340629    0.365512    0.365512    0.365513    0.366888    0.366889
     0.366889    0.370099    0.370100    0.399845    0.399845    0.435419
     0.435419    0.435422    0.463117    0.463122    0.464282    0.495500
     0.495500    0.495533

 Minimum Search - Taking Simple RFO Step
 Searching for Lamda that Minimizes Along All modes
 Value Taken    Lamda =  -0.06462460
 Calculated Step too Large.  Step scaled by  0.683362
 Step Taken.  Stepsize is  0.300000

                             Maximum     Tolerance    Cnvgd?
         Gradient           0.078787      0.000300      NO
         Displacement       0.169896      0.001200      NO
         Energy change     *********      0.000001      NO


 New Cartesian Coordinates Obtained by Inverse Iteration

 Displacement from previous Coordinates is:  1.911488
 ----------------------------------------------------------------
             Standard Nuclear Orientation (Angstroms)
    I     Atom           X                Y                Z
 ----------------------------------------------------------------
    1      H      -0.1178433806    -0.3002001575    -0.0170546129
    2      H       0.7939726249    -2.7001331656    -0.6233681395
    3      C       0.9155028854    -0.5889536448    -0.1253916926
    4      C       1.4176640627    -1.8372184469    -0.4423120221
    5      S       2.1500352535     0.5804759466     0.1058580954
    6      C       2.8176619242    -1.8370668182    -0.5068357921
    7      H       3.4109356582    -2.7038839364    -0.7602046718
    8      C       3.3918171542    -0.5861277270    -0.2370122085
    9      H       4.6251444620     1.7472691397     0.2302654110
   10      C       4.8222557581    -0.3981921363    -0.2118439665
   11      C       5.2808430277     0.9089239776     0.0644739048
   12      S       6.1596250072    -1.4622091866    -0.4132845764
   13      C       6.6744705016     1.0153957969     0.1138678930
   14      H       7.2182000623     1.9221709715     0.3344559483
   15      C       7.3128698228    -0.1993177408    -0.1227793625
   16      C       8.7560441918    -0.3198760669    -0.1555531462
   17      H       9.0623241580     0.7178653799    -2.0377919196
   18      C       9.5098690087     0.2237304054    -1.1874801292
   19      S       9.7793564060    -1.0662133699     1.0253389374
   20      C      10.8959445030     0.0308060127    -1.0159803035
   21      C      11.1904961165    -0.6538451759     0.1421307624
   22      H      11.6495615475     0.3727818096    -1.7097130993
   23      H      12.1601292443    -0.9372258769     0.5182481005
 ----------------------------------------------------------------
 Nuclear Repulsion Energy =  1175.0281710219 hartrees
 There are       64 alpha and       63 beta electrons
 Applying Cartesian multipole field
    Component          Value
    ---------          -----
     (2,0,0)        1.00000E-12
     (0,2,0)        2.00000E-11
     (0,0,2)       -3.00000E-11
 Nucleus-field energy     =     0.0000000271 hartrees
 Requested basis set is 6-31++G(d,p)
 There are 110 shells and 345 basis functions
 A cutoff of  1.0D-12 yielded   4700 shell pairs
 There are     47900 function pairs

 Q-Chem warning in module /project/projectdirs/jcesr/qchem/qc44/cnl_qc441/compile/cori/qc_src/libqints/qchem/aobasis.C, line 68:

 Using reconstructed effective core potential

 Smallest overlap matrix eigenvalue = 9.99E-08
 Linear dependence detected in AO basis
 Number of orthogonalized atomic orbitals = 343
 Maximum deviation from orthogonality = 4.174E-10
 No. of orbitals has changed due to linear dependencies.  Generating new SCF guess.
 Guess from superposition of atomic densities
 Warning:  Energy on first SCF cycle will be non-variational
 An unrestricted hybrid HF-DFT SCF calculation will be
 performed using Pulay DIIS extrapolation
 Exchange:     0.2000 Hartree-Fock + 0.0800 Slater + 0.7200 B88
 Correlation:  0.1900 VWN1RPA + 0.8100 LYP
 Using SG-1 standard quadrature grid
 SCF converges when DIIS error is below 1.0E-08
 Geometry optimization detected.  Setting ReadMinima to 0
 Setting SaveMinima to 0
 Inaccurate integrated density:
   Number of electrons =   127
   Numerical integral  =   128.000133660657
   Relative error      =     0.7875068194 %
 ---------------------------------------
  Cycle       Energy         DIIS Error
 ---------------------------------------
    1   -1660.4284356597      3.72E-02
    2   -1656.1899025524      3.42E-03
    3   -1655.7859888130      5.69E-03
    4   -1656.3587275645      1.22E-03
    5   -1656.3828793116      4.53E-04
    6   -1656.3862080169      1.89E-04
    7   -1656.3867683460      8.68E-05
    8   -1656.3869224841      2.64E-05
    9   -1656.3869519020      1.15E-05
   10   -1656.3869686892      5.82E-06
   11   -1656.3869777809      5.30E-06
   12   -1656.3869816720      2.30E-06
   13   -1656.3869831202      1.26E-06
   14   -1656.3869833798      4.50E-07
   15   -1656.3869834272      1.91E-07
   16   -1656.3869834337      1.10E-07
   17   -1656.3869834345      3.74E-08
   18   -1656.3869834361      2.50E-08
   19   -1656.3869834375      1.34E-08
   20   -1656.3869834374      6.02E-09 Convergence criterion met
 ---------------------------------------
 <S^2> = 0.7645
 SCF time:  CPU 27.70 s  wall 25.65 s
 SCF   energy in the final basis set = -1656.3869834374
 Total energy in the final basis set = -1656.3869834374
 
 --------------------------------------------------------------
 
                    Orbital Energies (a.u.)
 --------------------------------------------------------------
 
 Alpha MOs
 -- Occupied --
-89.085 -89.081 -89.048 -10.416 -10.412 -10.409 -10.395 -10.371
-10.369 -10.367 -10.361 -10.358 -10.349 -10.333 -10.322  -8.144
 -8.140  -8.107  -6.108  -6.104  -6.104  -6.101  -6.100  -6.097
 -6.072  -6.068  -6.065  -1.074  -1.052  -1.020  -0.949  -0.917
 -0.903  -0.893  -0.871  -0.842  -0.771  -0.747  -0.713  -0.698
 -0.692  -0.685  -0.669  -0.645  -0.609  -0.579  -0.578  -0.575
 -0.562  -0.552  -0.549  -0.534  -0.528  -0.522  -0.520  -0.507
 -0.502  -0.478  -0.448  -0.426  -0.417  -0.385  -0.382  -0.365
 -- Virtual --
 -0.227  -0.166  -0.156  -0.142  -0.127  -0.116  -0.114  -0.105
 -0.103  -0.098  -0.095  -0.089  -0.083  -0.079  -0.074  -0.072
 -0.068  -0.062  -0.059  -0.055  -0.047  -0.042  -0.036  -0.033
 -0.028  -0.021  -0.016  -0.012  -0.007  -0.002   0.002   0.007
  0.009   0.011   0.014   0.019   0.020   0.021   0.027   0.028
  0.031   0.036   0.041   0.043   0.044   0.047   0.049   0.052
  0.054   0.058   0.060   0.061   0.066   0.071   0.077   0.081
  0.085   0.088   0.096   0.099   0.102   0.109   0.112   0.114
  0.119   0.119   0.124   0.128   0.135   0.143   0.148   0.150
  0.157   0.157   0.162   0.170   0.175   0.176   0.180   0.193
  0.198   0.204   0.211   0.220   0.222   0.230   0.237   0.242
  0.249   0.255   0.264   0.269   0.286   0.312   0.334   0.336
  0.351   0.370   0.383   0.397   0.405   0.422   0.427   0.457
  0.465   0.472   0.488   0.490   0.499   0.505   0.508   0.508
  0.518   0.531   0.544   0.553   0.554   0.568   0.572   0.576
  0.589   0.600   0.606   0.614   0.622   0.633   0.641   0.653
  0.662   0.664   0.671   0.673   0.679   0.700   0.718   0.728
  0.771   0.785   0.797   0.804   0.815   0.819   0.821   0.836
  0.841   0.844   0.851   0.859   0.861   0.864   0.878   0.889
  0.895   0.902   0.916   0.919   0.931   0.947   0.960   0.965
  0.984   1.005   1.013   1.020   1.034   1.061   1.088   1.094
  1.106   1.129   1.136   1.165   1.177   1.185   1.194   1.202
  1.207   1.223   1.244   1.253   1.260   1.282   1.314   1.325
  1.354   1.381   1.400   1.419   1.476   1.496   1.542   1.577
  1.663   1.664   1.688   1.702   1.732   1.740   1.762   1.773
  1.788   1.792   1.815   1.819   1.836   1.869   1.880   1.895
  1.922   1.929   1.956   1.976   2.021   2.026   2.053   2.058
  2.077   2.080   2.096   2.111   2.148   2.157   2.178   2.217
  2.254   2.269   2.297   2.301   2.312   2.328   2.341   2.350
  2.371   2.375   2.389   2.399   2.421   2.432   2.474   2.478
  2.485   2.512   2.527   2.555   2.578   2.614   2.675   2.685
  2.715   2.747   2.753   2.773   2.790   2.996   3.050   3.062
  3.136   3.167   3.190   3.266   3.302   3.536   3.591   3.628
  3.813   3.834   3.851   4.088   4.149   4.164   4.176   4.186
  4.215   4.245   4.331   4.396   4.501   4.550   4.575
 
 Beta MOs
 -- Occupied --
-89.085 -89.081 -89.048 -10.414 -10.408 -10.408 -10.391 -10.369
-10.367 -10.367 -10.361 -10.358 -10.348 -10.332 -10.321  -8.144
 -8.140  -8.107  -6.109  -6.105  -6.104  -6.101  -6.101  -6.097
 -6.071  -6.068  -6.065  -1.069  -1.047  -1.018  -0.942  -0.914
 -0.901  -0.888  -0.870  -0.837  -0.767  -0.744  -0.710  -0.695
 -0.690  -0.684  -0.667  -0.644  -0.607  -0.576  -0.573  -0.567
 -0.560  -0.549  -0.539  -0.532  -0.526  -0.520  -0.513  -0.505
 -0.501  -0.477  -0.426  -0.423  -0.414  -0.384  -0.366
 -- Virtual --
 -0.313  -0.209  -0.160  -0.145  -0.141  -0.125  -0.116  -0.104
 -0.102  -0.100  -0.094  -0.091  -0.087  -0.082  -0.078  -0.074
 -0.071  -0.067  -0.061  -0.058  -0.054  -0.046  -0.041  -0.035
 -0.033  -0.027  -0.019  -0.015  -0.011  -0.007  -0.001   0.002
  0.008   0.010   0.011   0.015   0.020   0.021   0.022   0.028
  0.029   0.032   0.036   0.042   0.044   0.044   0.048   0.050
  0.053   0.055   0.059   0.060   0.062   0.067   0.072   0.079
  0.082   0.086   0.089   0.097   0.100   0.102   0.110   0.112
  0.115   0.119   0.120   0.126   0.129   0.136   0.143   0.149
  0.152   0.158   0.158   0.162   0.171   0.175   0.177   0.181
  0.194   0.199   0.205   0.213   0.222   0.224   0.231   0.239
  0.242   0.251   0.255   0.265   0.271   0.287   0.313   0.336
  0.338   0.352   0.370   0.386   0.398   0.406   0.423   0.428
  0.458   0.467   0.473   0.490   0.495   0.500   0.507   0.512
  0.515   0.521   0.533   0.546   0.555   0.556   0.570   0.574
  0.579   0.592   0.606   0.607   0.616   0.625   0.634   0.643
  0.655   0.664   0.667   0.673   0.677   0.681   0.703   0.720
  0.729   0.772   0.787   0.801   0.806   0.817   0.820   0.826
  0.837   0.842   0.845   0.854   0.860   0.862   0.865   0.879
  0.891   0.896   0.903   0.918   0.921   0.932   0.948   0.960
  0.967   0.985   1.006   1.015   1.023   1.037   1.063   1.092
  1.097   1.109   1.137   1.138   1.168   1.181   1.189   1.198
  1.209   1.210   1.226   1.245   1.255   1.261   1.289   1.319
  1.328   1.357   1.384   1.404   1.422   1.480   1.504   1.553
  1.580   1.667   1.671   1.693   1.706   1.736   1.743   1.763
  1.775   1.790   1.794   1.821   1.824   1.838   1.873   1.884
  1.897   1.926   1.934   1.959   1.982   2.027   2.034   2.057
  2.063   2.082   2.085   2.100   2.116   2.152   2.163   2.182
  2.220   2.256   2.275   2.300   2.306   2.315   2.330   2.344
  2.351   2.375   2.378   2.391   2.401   2.424   2.436   2.476
  2.479   2.488   2.515   2.530   2.559   2.579   2.616   2.678
  2.690   2.717   2.749   2.755   2.775   2.793   2.997   3.051
  3.063   3.136   3.167   3.190   3.268   3.302   3.538   3.592
  3.628   3.813   3.835   3.851   4.093   4.155   4.167   4.178
  4.189   4.218   4.249   4.334   4.400   4.504   4.552   4.577
 --------------------------------------------------------------
 
          Ground-State Mulliken Net Atomic Charges

     Atom                 Charge (a.u.)    Spin (a.u.)
  --------------------------------------------------------
      1 H                     0.253221      -0.013692
      2 H                     0.166258       0.001348
      3 C                     0.091785       0.280119
      4 C                    -0.372970      -0.042878
      5 S                    -0.036692      -0.045406
      6 C                     0.497780       0.152487
      7 H                     0.142662      -0.010029
      8 C                    -0.077288       0.088146
      9 H                     0.118482      -0.009586
     10 C                     0.092821       0.160403
     11 C                    -0.552394       0.110498
     12 S                     0.192197      -0.057151
     13 C                     0.227322      -0.000962
     14 H                     0.180561       0.000336
     15 C                    -0.321117       0.263668
     16 C                    -0.230696       0.038390
     17 H                     0.163061      -0.003194
     18 C                     0.320787       0.024471
     19 S                     0.143394      -0.006087
     20 C                    -0.408874       0.000327
     21 C                     0.030595       0.070634
     22 H                     0.151339       0.000602
     23 H                     0.227768      -0.002440
  --------------------------------------------------------
  Sum of atomic charges =     1.000000
  Sum of spin   charges =     1.000000

 -----------------------------------------------------------------
                    Cartesian Multipole Moments
 -----------------------------------------------------------------
    Charge (ESU x 10^10)
                 4.8032
    Dipole Moment (Debye)
         X      25.5422      Y      -1.8046      Z      -1.2347
       Tot      25.6356
    Quadrupole Moments (Debye-Ang)
        XX     114.7268     XY      -3.6560     YY     -93.0518
        XZ      -7.5907     YZ       0.9303     ZZ    -104.4964
    Octopole Moments (Debye-Ang^2)
       XXX     257.0594    XXY       6.7154    XYY    -598.7162
       YYY     127.8162    XXZ     -50.5766    XYZ     -16.4166
       YYZ       8.6436    XZZ    -615.6911    YZZ      49.8918
       ZZZ      34.3226
    Hexadecapole Moments (Debye-Ang^3)
      XXXX   -7121.7041   XXXY     179.0230   XXYY   -5024.4321
      XYYY     815.2836   YYYY    -715.8199   XXXZ    -404.6249
      XXYZ    -256.7858   XYYZ      67.9609   YYYZ       8.1174
      XXZZ   -4845.2927   XYZZ     292.9479   YYZZ    -189.7389
      XZZZ     126.6379   YZZZ     -29.8344   ZZZZ    -342.0545
 -----------------------------------------------------------------
 Calculating analytic gradient of the SCF energy
 Gradient of SCF Energy
            1           2           3           4           5           6
    1   0.0030382   0.0013684  -0.0020458  -0.0048170   0.0005976   0.0113403
    2  -0.0012133   0.0017430  -0.0016378   0.0049493  -0.0147890   0.0054512
    3  -0.0007567   0.0003373  -0.0005853   0.0023063  -0.0025170   0.0023050
            7           8           9          10          11          12
    1  -0.0010195  -0.0293046   0.0037146   0.0342729  -0.0243296  -0.0008020
    2   0.0026765   0.0353765  -0.0026537  -0.0418720  -0.0062393   0.0266059
    3  -0.0002735   0.0068225  -0.0011176  -0.0104079  -0.0020466   0.0018262
           13          14          15          16          17          18
    1   0.0181284  -0.0012480  -0.0056246   0.0012775   0.0006818  -0.0009538
    2  -0.0058081  -0.0016057  -0.0062639   0.0004659  -0.0017428  -0.0041806
    3   0.0044316   0.0002075  -0.0077941   0.0140175   0.0016505  -0.0031123
           19          20          21          22          23
    1   0.0026864  -0.0032525   0.0004950  -0.0015095  -0.0026942
    2   0.0108509   0.0024382  -0.0016475  -0.0003737  -0.0005301
    3  -0.0083781  -0.0004504   0.0037592   0.0019808  -0.0022047
 Max gradient component =       4.187E-02
 RMS gradient           =       1.079E-02
 Gradient time:  CPU 4.26 s  wall 4.20 s
 Geometry Optimization Parameters
   NAtoms,    NIC,     NZ,  NCons,   NDum,   NFix, NCnnct, MaxDiis
       23     166       0       1       0       0       0       0

 Cartesian Hessian Update
 Hessian Updated using BFGS Update


** CONSTRAINED OPTIMIZATION IN DELOCALIZED INTERNAL COORDINATES **
   Searching for a Minimum

   Optimization Cycle:   2

                       Coordinates (Angstroms)
     ATOM                X               Y               Z
      1  H        -0.1178433806   -0.3002001575   -0.0170546129
      2  H         0.7939726249   -2.7001331656   -0.6233681395
      3  C         0.9155028854   -0.5889536448   -0.1253916926
      4  C         1.4176640627   -1.8372184469   -0.4423120221
      5  S         2.1500352535    0.5804759466    0.1058580954
      6  C         2.8176619242   -1.8370668182   -0.5068357921
      7  H         3.4109356582   -2.7038839364   -0.7602046718
      8  C         3.3918171542   -0.5861277270   -0.2370122085
      9  H         4.6251444620    1.7472691397    0.2302654110
     10  C         4.8222557581   -0.3981921363   -0.2118439665
     11  C         5.2808430277    0.9089239776    0.0644739048
     12  S         6.1596250072   -1.4622091866   -0.4132845764
     13  C         6.6744705016    1.0153957969    0.1138678930
     14  H         7.2182000623    1.9221709715    0.3344559483
     15  C         7.3128698228   -0.1993177408   -0.1227793625
     16  C         8.7560441918   -0.3198760669   -0.1555531462
     17  H         9.0623241580    0.7178653799   -2.0377919196
     18  C         9.5098690087    0.2237304054   -1.1874801292
     19  S         9.7793564060   -1.0662133699    1.0253389374
     20  C        10.8959445030    0.0308060127   -1.0159803035
     21  C        11.1904961165   -0.6538451759    0.1421307624
     22  H        11.6495615475    0.3727818096   -1.7097130993
     23  H        12.1601292443   -0.9372258769    0.5182481005
   Point Group: c1    Number of degrees of freedom:    63


   Energy is  -1656.386983437

              Constraints and their Current Values
                                        Value     Constraint
   Dihedral:       13  15  16  18      -70.000      -70.000
 Hessian Updated using BFGS Update

 62 Hessian modes will be used to form the next step
  Hessian Eigenvalues:
     0.044463    0.045000    0.045000    0.045000    0.045000    0.045001
     0.045001    0.045001    0.045001    0.045002    0.045003    0.045004
     0.045011    0.045012    0.045012    0.045027    0.045035    0.045057
     0.045065    0.159468    0.159945    0.159945    0.159978    0.159993
     0.159994    0.160000    0.160272    0.191471    0.221308    0.221841
     0.230332    0.238047    0.238698    0.246498    0.249669    0.249670
     0.283748    0.324399    0.326566    0.327233    0.338514    0.340085
     0.340390    0.365169    0.365513    0.365520    0.366519    0.366889
     0.367330    0.369904    0.370100    0.398685    0.414421    0.434641
     0.435420    0.437233    0.462728    0.463121    0.471462    0.494870
     0.495504    0.578648

 Minimum Search - Taking Simple RFO Step
 Searching for Lamda that Minimizes Along All modes
 Value Taken    Lamda =  -0.02191715
 Calculated Step too Large.  Step scaled by  0.860847
 Step Taken.  Stepsize is  0.300000

                             Maximum     Tolerance    Cnvgd?
         Gradient           0.030208      0.000300      NO
         Displacement       0.119606      0.001200      NO
         Energy change     -0.030373      0.000001      NO


 New Cartesian Coordinates Obtained by Inverse Iteration

 Displacement from previous Coordinates is:  1.466451
 ----------------------------------------------------------------
             Standard Nuclear Orientation (Angstroms)
    I     Atom           X                Y                Z
 ----------------------------------------------------------------
    1      H      -0.0955867812    -0.4663851326    -0.0061324644
    2      H       0.9326227092    -2.8264592732    -0.6210198017
    3      C       0.9558582195    -0.7032650287    -0.1162597197
    4      C       1.5184514779    -1.9337508536    -0.4388275326
    5      S       2.1203945826     0.5414145040     0.1188192381
    6      C       2.9133003982    -1.8709096868    -0.4996169236
    7      H       3.5499787232    -2.7127590830    -0.7492825498
    8      C       3.4208724586    -0.5806435358    -0.2218033946
    9      H       4.5736575558     1.9225801559     0.2825781189
   10      C       4.7887317723    -0.2276642513    -0.1786673486
   11      C       5.2451154584     1.0908439294     0.0955228219
   12      S       6.1209502987    -1.3200830924    -0.4169867978
   13      C       6.6291810704     1.1909271195     0.1077663341
   14      H       7.1815876896     2.0975324222     0.3212454345
   15      C       7.2716433400    -0.0337161808    -0.1558120617
   16      C       8.7096371373    -0.2376936053    -0.2079445503
   17      H       9.1630780454     0.8198165583    -2.0575046903
   18      C       9.5378407825     0.2556693219    -1.2110058196
   19      S       9.6234459158    -1.1414831162     0.9718041717
   20      C      10.8972554419    -0.0885384859    -1.0163611868
   21      C      11.0929521923    -0.8292935404     0.1293571611
   22      H      11.7005369464     0.1952421235    -1.6858184562
   23      H      12.0253745649    -1.2124252787     0.5239834275
 ----------------------------------------------------------------
 Nuclear Repulsion Energy =  1176.6727617521 hartrees
 There are       64 alpha and       63 beta electrons
 Applying Cartesian multipole field
    Component          Value
    ---------          -----
     (2,0,0)        1.00000E-12
     (0,2,0)        2.00000E-11
     (0,0,2)       -3.00000E-11
 Nucleus-field energy     =     0.0000000275 hartrees
 Requested basis set is 6-31++G(d,p)
 There are 110 shells and 345 basis functions
 A cutoff of  1.0D-12 yielded   4693 shell pairs
 There are     47810 function pairs

 Q-Chem warning in module /project/projectdirs/jcesr/qchem/qc44/cnl_qc441/compile/cori/qc_src/libqints/qchem/aobasis.C, line 68:

 Using reconstructed effective core potential

 Smallest overlap matrix eigenvalue = 7.05E-08
 Linear dependence detected in AO basis
 Number of orthogonalized atomic orbitals = 343
 Maximum deviation from orthogonality = 3.285E-10
 Guess MOs from SCF MO coefficient file
 Reading MOs from coefficient file
 Reading MOs from coefficient file
 An unrestricted hybrid HF-DFT SCF calculation will be
 performed using Pulay DIIS extrapolation
 Exchange:     0.2000 Hartree-Fock + 0.0800 Slater + 0.7200 B88
 Correlation:  0.1900 VWN1RPA + 0.8100 LYP
 Using SG-1 standard quadrature grid
 SCF converges when DIIS error is below 1.0E-08
 Geometry optimization detected.  Setting ReadMinima to 0
 Setting SaveMinima to 0
 Inaccurate integrated density:
   Number of electrons =   127
   Numerical integral  =   126.858247118048
   Relative error      =    -0.1116164425 %
 ---------------------------------------
  Cycle       Energy         DIIS Error
 ---------------------------------------
    1   -1656.2396230620      3.60E-03
    2   -1656.3912393849      6.41E-04
    3   -1656.3741549675      1.19E-03
    4   -1656.3986799133      1.73E-04
    5   -1656.3991084143      6.96E-05
    6   -1656.3991824462      2.66E-05
    7   -1656.3991940460      1.01E-05
    8   -1656.3991959421      3.72E-06
    9   -1656.3991963107      1.65E-06
   10   -1656.3991964403      6.48E-07
   11   -1656.3991965107      4.28E-07
   12   -1656.3991965393      2.07E-07
   13   -1656.3991965516      9.96E-08
   14   -1656.3991965559      4.72E-08
   15   -1656.3991965563      2.40E-08
   16   -1656.3991965566      1.40E-08
   17   -1656.3991965566      5.64E-09 Convergence criterion met
 ---------------------------------------
 <S^2> = 0.7656
 SCF time:  CPU 24.05 s  wall 22.21 s
 SCF   energy in the final basis set = -1656.3991965566
 Total energy in the final basis set = -1656.3991965566
 
 --------------------------------------------------------------
 
                    Orbital Energies (a.u.)
 --------------------------------------------------------------
 
 Alpha MOs
 -- Occupied --
-89.083 -89.080 -89.048 -10.414 -10.414 -10.407 -10.396 -10.374
-10.371 -10.368 -10.365 -10.359 -10.351 -10.335 -10.323  -8.141
 -8.139  -8.107  -6.106  -6.103  -6.102  -6.099  -6.098  -6.096
 -6.071  -6.067  -6.064  -1.071  -1.047  -1.016  -0.946  -0.918
 -0.904  -0.887  -0.870  -0.839  -0.771  -0.747  -0.714  -0.697
 -0.691  -0.685  -0.664  -0.642  -0.608  -0.577  -0.576  -0.574
 -0.563  -0.551  -0.547  -0.535  -0.527  -0.523  -0.518  -0.506
 -0.504  -0.478  -0.448  -0.427  -0.418  -0.385  -0.380  -0.361
 -- Virtual --
 -0.232  -0.168  -0.158  -0.144  -0.133  -0.116  -0.115  -0.105
 -0.099  -0.095  -0.094  -0.090  -0.084  -0.079  -0.074  -0.073
 -0.067  -0.062  -0.058  -0.054  -0.047  -0.041  -0.037  -0.030
 -0.027  -0.021  -0.016  -0.011  -0.007  -0.002   0.001   0.008
  0.008   0.010   0.014   0.019   0.022   0.023   0.028   0.028
  0.030   0.037   0.041   0.044   0.044   0.047   0.049   0.051
  0.053   0.057   0.059   0.061   0.068   0.071   0.077   0.081
  0.085   0.087   0.095   0.099   0.102   0.108   0.110   0.113
  0.118   0.119   0.121   0.130   0.135   0.139   0.145   0.150
  0.154   0.158   0.167   0.169   0.174   0.175   0.181   0.192
  0.197   0.202   0.208   0.216   0.220   0.231   0.234   0.240
  0.250   0.253   0.261   0.265   0.286   0.314   0.331   0.338
  0.356   0.370   0.383   0.400   0.413   0.419   0.433   0.453
  0.458   0.465   0.481   0.493   0.498   0.504   0.504   0.508
  0.522   0.527   0.546   0.553   0.556   0.568   0.572   0.576
  0.586   0.601   0.606   0.615   0.622   0.631   0.639   0.657
  0.665   0.669   0.675   0.678   0.685   0.700   0.716   0.733
  0.774   0.784   0.787   0.805   0.816   0.817   0.820   0.829
  0.838   0.843   0.848   0.856   0.858   0.864   0.876   0.885
  0.895   0.905   0.914   0.916   0.926   0.944   0.954   0.958
  0.980   1.001   1.007   1.022   1.038   1.058   1.085   1.094
  1.108   1.119   1.134   1.160   1.172   1.185   1.195   1.202
  1.205   1.225   1.243   1.254   1.277   1.298   1.326   1.331
  1.357   1.386   1.405   1.422   1.479   1.505   1.543   1.573
  1.652   1.662   1.692   1.698   1.717   1.747   1.762   1.772
  1.785   1.786   1.799   1.814   1.825   1.868   1.879   1.899
  1.913   1.923   1.956   1.975   2.012   2.022   2.046   2.048
  2.071   2.090   2.094   2.108   2.130   2.143   2.176   2.214
  2.252   2.270   2.287   2.291   2.305   2.322   2.333   2.344
  2.368   2.369   2.382   2.394   2.409   2.433   2.466   2.472
  2.481   2.506   2.525   2.554   2.570   2.604   2.665   2.703
  2.722   2.740   2.755   2.772   2.784   2.981   3.041   3.057
  3.128   3.158   3.171   3.256   3.292   3.529   3.583   3.616
  3.815   3.829   3.849   4.090   4.148   4.162   4.168   4.186
  4.208   4.249   4.331   4.394   4.502   4.551   4.574
 
 Beta MOs
 -- Occupied --
-89.083 -89.080 -89.048 -10.412 -10.410 -10.406 -10.392 -10.372
-10.369 -10.368 -10.365 -10.360 -10.350 -10.335 -10.323  -8.142
 -8.139  -8.107  -6.106  -6.103  -6.102  -6.100  -6.099  -6.096
 -6.071  -6.067  -6.064  -1.066  -1.042  -1.014  -0.940  -0.916
 -0.902  -0.882  -0.869  -0.833  -0.767  -0.744  -0.711  -0.694
 -0.689  -0.684  -0.662  -0.640  -0.607  -0.574  -0.572  -0.565
 -0.561  -0.549  -0.537  -0.533  -0.526  -0.521  -0.511  -0.504
 -0.501  -0.477  -0.427  -0.424  -0.415  -0.384  -0.366
 -- Virtual --
 -0.308  -0.213  -0.162  -0.147  -0.142  -0.130  -0.116  -0.106
 -0.101  -0.098  -0.094  -0.090  -0.084  -0.082  -0.078  -0.073
 -0.072  -0.066  -0.061  -0.057  -0.053  -0.046  -0.040  -0.036
 -0.029  -0.025  -0.020  -0.015  -0.010  -0.007  -0.001   0.001
  0.008   0.009   0.010   0.014   0.019   0.023   0.023   0.028
  0.029   0.031   0.037   0.042   0.044   0.045   0.048   0.050
  0.053   0.054   0.058   0.060   0.062   0.068   0.072   0.079
  0.082   0.086   0.088   0.095   0.099   0.103   0.109   0.111
  0.114   0.118   0.120   0.123   0.131   0.136   0.140   0.146
  0.151   0.155   0.158   0.167   0.169   0.174   0.176   0.182
  0.193   0.198   0.203   0.210   0.218   0.222   0.232   0.236
  0.240   0.251   0.254   0.262   0.267   0.287   0.315   0.332
  0.339   0.357   0.370   0.385   0.401   0.414   0.420   0.434
  0.454   0.460   0.467   0.482   0.499   0.499   0.505   0.509
  0.516   0.525   0.530   0.547   0.555   0.558   0.570   0.575
  0.578   0.589   0.607   0.608   0.616   0.624   0.634   0.640
  0.659   0.667   0.672   0.678   0.681   0.686   0.703   0.718
  0.734   0.775   0.786   0.791   0.807   0.818   0.821   0.823
  0.831   0.839   0.844   0.850   0.856   0.859   0.865   0.877
  0.886   0.896   0.907   0.915   0.917   0.928   0.945   0.955
  0.959   0.981   1.002   1.009   1.025   1.042   1.060   1.089
  1.096   1.111   1.127   1.138   1.163   1.174   1.190   1.198
  1.207   1.210   1.227   1.245   1.256   1.279   1.305   1.330
  1.335   1.361   1.389   1.409   1.426   1.483   1.514   1.553
  1.577   1.659   1.666   1.697   1.701   1.721   1.750   1.764
  1.774   1.788   1.789   1.804   1.816   1.828   1.872   1.882
  1.902   1.919   1.927   1.959   1.980   2.018   2.030   2.050
  2.052   2.075   2.095   2.101   2.112   2.134   2.149   2.180
  2.217   2.253   2.276   2.290   2.294   2.310   2.325   2.335
  2.345   2.369   2.374   2.384   2.396   2.412   2.436   2.469
  2.473   2.483   2.508   2.529   2.558   2.571   2.606   2.668
  2.707   2.725   2.743   2.756   2.774   2.786   2.982   3.042
  3.058   3.128   3.158   3.172   3.258   3.293   3.531   3.584
  3.617   3.815   3.829   3.850   4.095   4.153   4.165   4.171
  4.188   4.210   4.254   4.334   4.398   4.506   4.553   4.576
 --------------------------------------------------------------
 
          Ground-State Mulliken Net Atomic Charges

     Atom                 Charge (a.u.)    Spin (a.u.)
  --------------------------------------------------------
      1 H                     0.249854      -0.013954
      2 H                     0.168629       0.001358
      3 C                     0.077543       0.283355
      4 C                    -0.335296      -0.043290
      5 S                    -0.058958      -0.041624
      6 C                     0.540321       0.154157
      7 H                     0.148504      -0.010007
      8 C                    -0.221456       0.077957
      9 H                     0.139506      -0.008778
     10 C                     0.127797       0.157116
     11 C                    -0.392971       0.102478
     12 S                     0.038093      -0.056268
     13 C                     0.308943       0.006037
     14 H                     0.179661      -0.000271
     15 C                    -0.376986       0.269560
     16 C                    -0.253313       0.037258
     17 H                     0.166067      -0.003603
     18 C                     0.350119       0.023492
     19 S                     0.114398      -0.004433
     20 C                    -0.400723      -0.001843
     21 C                     0.049824       0.073128
     22 H                     0.151287       0.000642
     23 H                     0.229159      -0.002468
  --------------------------------------------------------
  Sum of atomic charges =     1.000000
  Sum of spin   charges =     1.000000

 -----------------------------------------------------------------
                    Cartesian Multipole Moments
 -----------------------------------------------------------------
    Charge (ESU x 10^10)
                 4.8032
    Dipole Moment (Debye)
         X      25.5812      Y      -1.7786      Z      -1.2405
       Tot      25.6730
    Quadrupole Moments (Debye-Ang)
        XX     113.0961     XY      -3.9080     YY     -91.3942
        XZ      -8.4133     YZ       0.9191     ZZ    -104.7157
    Octopole Moments (Debye-Ang^2)
       XXX     233.2308    XXY      -8.9815    XYY    -585.2138
       YYY     123.4679    XXZ     -61.7125    XYZ     -17.1241
       YYZ      10.0047    XZZ    -614.2785    YZZ      48.3991
       ZZZ      36.2471
    Hexadecapole Moments (Debye-Ang^3)
      XXXX   -7270.0623   XXXY     -88.7346   XXYY   -4875.3732
      XYYY     798.2541   YYYY    -737.5836   XXXZ    -522.7238
      XXYZ    -266.3425   XYYZ      88.8057   YYYZ       9.5903
      XXZZ   -4790.9720   XYZZ     284.7108   YYZZ    -194.3849
      XZZZ     163.7051   YZZZ     -29.5469   ZZZZ    -337.0711
 -----------------------------------------------------------------
 Calculating analytic gradient of the SCF energy
 Gradient of SCF Energy
            1           2           3           4           5           6
    1  -0.0000402   0.0002113   0.0019028  -0.0008321   0.0035834   0.0027461
    2   0.0006479  -0.0002428  -0.0014193  -0.0010042  -0.0006659  -0.0021693
    3  -0.0001422  -0.0000352  -0.0003394   0.0002397   0.0005353   0.0002905
            7           8           9          10          11          12
    1   0.0002161  -0.0089704  -0.0005430   0.0123718  -0.0053981  -0.0030799
    2  -0.0001110   0.0168603   0.0010910  -0.0189580   0.0029288   0.0045554
    3  -0.0007797   0.0030734  -0.0003082  -0.0056762   0.0004789  -0.0016820
           13          14          15          16          17          18
    1   0.0022468  -0.0006914  -0.0057244   0.0026436  -0.0002680  -0.0004005
    2   0.0008046   0.0000218  -0.0022051  -0.0025652  -0.0004811  -0.0029667
    3   0.0056224   0.0006031  -0.0050844   0.0095562  -0.0004308  -0.0054479
           19          20          21          22          23
    1   0.0011948  -0.0007028  -0.0007600   0.0002747   0.0000195
    2   0.0048336   0.0013404   0.0004474   0.0002605  -0.0010031
    3  -0.0014534  -0.0009986   0.0023931   0.0001575  -0.0005721
 Max gradient component =       1.896E-02
 RMS gradient           =       4.357E-03
 Gradient time:  CPU 4.32 s  wall 4.19 s
 Geometry Optimization Parameters
   NAtoms,    NIC,     NZ,  NCons,   NDum,   NFix, NCnnct, MaxDiis
       23     166       0       1       0       0       0       0

 Cartesian Hessian Update
 Hessian Updated using BFGS Update


** CONSTRAINED OPTIMIZATION IN DELOCALIZED INTERNAL COORDINATES **
   Searching for a Minimum

   Optimization Cycle:   3

                       Coordinates (Angstroms)
     ATOM                X               Y               Z
      1  H        -0.0955867812   -0.4663851326   -0.0061324644
      2  H         0.9326227092   -2.8264592732   -0.6210198017
      3  C         0.9558582195   -0.7032650287   -0.1162597197
      4  C         1.5184514779   -1.9337508536   -0.4388275326
      5  S         2.1203945826    0.5414145040    0.1188192381
      6  C         2.9133003982   -1.8709096868   -0.4996169236
      7  H         3.5499787232   -2.7127590830   -0.7492825498
      8  C         3.4208724586   -0.5806435358   -0.2218033946
      9  H         4.5736575558    1.9225801559    0.2825781189
     10  C         4.7887317723   -0.2276642513   -0.1786673486
     11  C         5.2451154584    1.0908439294    0.0955228219
     12  S         6.1209502987   -1.3200830924   -0.4169867978
     13  C         6.6291810704    1.1909271195    0.1077663341
     14  H         7.1815876896    2.0975324222    0.3212454345
     15  C         7.2716433400   -0.0337161808   -0.1558120617
     16  C         8.7096371373   -0.2376936053   -0.2079445503
     17  H         9.1630780454    0.8198165583   -2.0575046903
     18  C         9.5378407825    0.2556693219   -1.2110058196
     19  S         9.6234459158   -1.1414831162    0.9718041717
     20  C        10.8972554419   -0.0885384859   -1.0163611868
     21  C        11.0929521923   -0.8292935404    0.1293571611
     22  H        11.7005369464    0.1952421235   -1.6858184562
     23  H        12.0253745649   -1.2124252787    0.5239834275
   Point Group: c1    Number of degrees of freedom:    63


   Energy is  -1656.399196557

              Constraints and their Current Values
                                        Value     Constraint
   Dihedral:       13  15  16  18      -70.000      -70.000
 Hessian Updated using BFGS Update

 61 Hessian modes will be used to form the next step
  Hessian Eigenvalues:
     0.040692    0.045000    0.045000    0.045000    0.045001    0.045001
     0.045001    0.045002    0.045003    0.045003    0.045009    0.045011
     0.045012    0.045012    0.045027    0.045055    0.045059    0.045154
     0.155192    0.159945    0.159955    0.159980    0.159993    0.159998
     0.160034    0.160502    0.172364    0.221310    0.223046    0.230442
     0.238080    0.240439    0.249204    0.249670    0.262363    0.279557
     0.323299    0.326554    0.328211    0.338036    0.340095    0.341500
     0.365512    0.365515    0.365829    0.366889    0.367245    0.367983
     0.370099    0.370986    0.402303    0.424014    0.435413    0.435455
     0.442870    0.463030    0.464483    0.482895    0.494863    0.497572
     0.581195

 Minimum Search - Taking Simple RFO Step
 Searching for Lamda that Minimizes Along All modes
 Value Taken    Lamda =  -0.00519233
 Step Taken.  Stepsize is  0.262868

                             Maximum     Tolerance    Cnvgd?
         Gradient           0.010538      0.000300      NO
         Displacement       0.087745      0.001200      NO
         Energy change     -0.012213      0.000001      NO


 New Cartesian Coordinates Obtained by Inverse Iteration

 Displacement from previous Coordinates is:  1.085970
 ----------------------------------------------------------------
             Standard Nuclear Orientation (Angstroms)
    I     Atom           X                Y                Z
 ----------------------------------------------------------------
    1      H      -0.1101689591    -0.5913659828    -0.0078042482
    2      H       1.0140099227    -2.9088884381    -0.5918558865
    3      C       0.9511375676    -0.7847950560    -0.1114949781
    4      C       1.5676584004    -1.9941346522    -0.4178320620
    5      S       2.0724844041     0.4982006953     0.1113142098
    6      C       2.9605789672    -1.8875166977    -0.4701975020
    7      H       3.6234755930    -2.7140201349    -0.7013409252
    8      C       3.4306231213    -0.5808500573    -0.2033822389
    9      H       4.5548290718     2.0151938110     0.3080182013
   10      C       4.7632144484    -0.1258504054    -0.1571978326
   11      C       5.2287140030     1.1909163395     0.1004173849
   12      S       6.1152493608    -1.2109893621    -0.4266337831
   13      C       6.6117543300     1.2993671090     0.0741947556
   14      H       7.1649516651     2.2088587882     0.2767628709
   15      C       7.2678069168     0.0854125961    -0.2103448313
   16      C       8.6967743011    -0.1578261062    -0.2528251349
   17      H       9.2876862695     0.9474961389    -2.0309225933
   18      C       9.5892117851     0.3123251204    -1.2056192048
   19      S       9.5002559315    -1.2110476193     0.8951254898
   20      C      10.9113934603    -0.1550745066    -0.9971693593
   21      C      11.0164460823    -0.9677916059     0.1085494540
   22      H      11.7524156924     0.0972366320    -1.6321046313
   23      H      11.9063776647    -1.4359006160     0.5103762552
 ----------------------------------------------------------------
 Nuclear Repulsion Energy =  1177.5653132728 hartrees
 There are       64 alpha and       63 beta electrons
 Applying Cartesian multipole field
    Component          Value
    ---------          -----
     (2,0,0)        1.00000E-12
     (0,2,0)        2.00000E-11
     (0,0,2)       -3.00000E-11
 Nucleus-field energy     =     0.0000000281 hartrees
 Requested basis set is 6-31++G(d,p)
 There are 110 shells and 345 basis functions
 A cutoff of  1.0D-12 yielded   4687 shell pairs
 There are     47821 function pairs

 Q-Chem warning in module /project/projectdirs/jcesr/qchem/qc44/cnl_qc441/compile/cori/qc_src/libqints/qchem/aobasis.C, line 68:

 Using reconstructed effective core potential

 Smallest overlap matrix eigenvalue = 7.50E-08
 Linear dependence detected in AO basis
 Number of orthogonalized atomic orbitals = 343
 Maximum deviation from orthogonality = 4.372E-10
 Guess MOs from SCF MO coefficient file
 Reading MOs from coefficient file
 Reading MOs from coefficient file
 An unrestricted hybrid HF-DFT SCF calculation will be
 performed using Pulay DIIS extrapolation
 Exchange:     0.2000 Hartree-Fock + 0.0800 Slater + 0.7200 B88
 Correlation:  0.1900 VWN1RPA + 0.8100 LYP
 Using SG-1 standard quadrature grid
 SCF converges when DIIS error is below 1.0E-08
 Geometry optimization detected.  Setting ReadMinima to 0
 Setting SaveMinima to 0
 ---------------------------------------
  Cycle       Energy         DIIS Error
 ---------------------------------------
    1   -1656.3083851040      2.61E-03
    2   -1656.3964379015      5.64E-04
    3   -1656.3810721446      1.11E-03
    4   -1656.4018512235      1.77E-04
    5   -1656.4023450380      6.03E-05
    6   -1656.4024080380      2.06E-05
    7   -1656.4024154579      8.54E-06
    8   -1656.4024170029      3.65E-06
    9   -1656.4024174825      1.77E-06
   10   -1656.4024176760      7.21E-07
   11   -1656.4024178032      5.83E-07
   12   -1656.4024178464      1.98E-07
   13   -1656.4024178572      9.51E-08
   14   -1656.4024178601      3.55E-08
   15   -1656.4024178619      1.95E-08
   16   -1656.4024178619      1.05E-08
   17   -1656.4024178625      3.40E-09 Convergence criterion met
 ---------------------------------------
 <S^2> = 0.7647
 SCF time:  CPU 23.68 s  wall 22.15 s
 SCF   energy in the final basis set = -1656.4024178625
 Total energy in the final basis set = -1656.4024178625
 
 --------------------------------------------------------------
 
                    Orbital Energies (a.u.)
 --------------------------------------------------------------
 
 Alpha MOs
 -- Occupied --
-89.079 -89.077 -89.050 -10.414 -10.414 -10.406 -10.394 -10.374
-10.372 -10.371 -10.366 -10.358 -10.355 -10.339 -10.326  -8.138
 -8.136  -8.109  -6.102  -6.100  -6.098  -6.096  -6.095  -6.093
 -6.073  -6.069  -6.066  -1.068  -1.044  -1.018  -0.946  -0.917
 -0.902  -0.886  -0.872  -0.841  -0.772  -0.748  -0.715  -0.697
 -0.691  -0.684  -0.664  -0.642  -0.609  -0.576  -0.575  -0.574
 -0.562  -0.554  -0.546  -0.536  -0.530  -0.519  -0.518  -0.506
 -0.500  -0.480  -0.448  -0.425  -0.416  -0.388  -0.383  -0.360
 -- Virtual --
 -0.231  -0.170  -0.158  -0.141  -0.132  -0.116  -0.114  -0.107
 -0.098  -0.095  -0.092  -0.088  -0.083  -0.079  -0.074  -0.073
 -0.067  -0.062  -0.058  -0.054  -0.047  -0.041  -0.038  -0.029
 -0.026  -0.021  -0.016  -0.011  -0.006  -0.002   0.001   0.006
  0.008   0.010   0.013   0.019   0.023   0.024   0.027   0.029
  0.031   0.037   0.041   0.044   0.045   0.047   0.048   0.051
  0.053   0.057   0.059   0.061   0.069   0.071   0.076   0.081
  0.084   0.087   0.094   0.097   0.102   0.106   0.108   0.115
  0.119   0.120   0.121   0.131   0.135   0.140   0.143   0.150
  0.154   0.157   0.167   0.170   0.171   0.175   0.183   0.189
  0.199   0.199   0.206   0.215   0.221   0.232   0.233   0.240
  0.252   0.254   0.261   0.266   0.288   0.311   0.332   0.338
  0.360   0.373   0.380   0.398   0.410   0.422   0.436   0.452
  0.452   0.461   0.477   0.493   0.497   0.500   0.506   0.510
  0.522   0.529   0.547   0.552   0.557   0.570   0.572   0.578
  0.585   0.601   0.602   0.614   0.622   0.632   0.640   0.655
  0.662   0.668   0.677   0.679   0.686   0.701   0.714   0.735
  0.776   0.783   0.787   0.806   0.814   0.820   0.823   0.828
  0.834   0.842   0.845   0.851   0.856   0.864   0.877   0.885
  0.892   0.908   0.910   0.919   0.927   0.946   0.956   0.959
  0.977   0.996   1.006   1.020   1.041   1.056   1.077   1.091
  1.106   1.115   1.133   1.156   1.174   1.186   1.194   1.202
  1.203   1.222   1.241   1.249   1.291   1.309   1.325   1.338
  1.354   1.392   1.411   1.431   1.484   1.512   1.547   1.568
  1.634   1.658   1.692   1.700   1.710   1.750   1.762   1.769
  1.777   1.782   1.794   1.812   1.820   1.867   1.875   1.902
  1.908   1.923   1.958   1.976   2.006   2.018   2.034   2.046
  2.066   2.091   2.095   2.108   2.122   2.142   2.180   2.216
  2.248   2.272   2.282   2.287   2.306   2.321   2.328   2.341
  2.370   2.373   2.381   2.392   2.403   2.437   2.463   2.470
  2.484   2.505   2.527   2.557   2.568   2.600   2.657   2.704
  2.736   2.739   2.756   2.787   2.794   2.982   3.040   3.059
  3.131   3.155   3.170   3.258   3.290   3.527   3.583   3.612
  3.816   3.828   3.849   4.092   4.147   4.160   4.167   4.188
  4.203   4.251   4.331   4.393   4.503   4.551   4.574
 
 Beta MOs
 -- Occupied --
-89.079 -89.077 -89.050 -10.412 -10.410 -10.405 -10.390 -10.372
-10.372 -10.369 -10.366 -10.358 -10.354 -10.338 -10.326  -8.138
 -8.136  -8.109  -6.102  -6.100  -6.099  -6.096  -6.095  -6.093
 -6.073  -6.069  -6.066  -1.063  -1.040  -1.015  -0.940  -0.914
 -0.900  -0.881  -0.871  -0.835  -0.768  -0.745  -0.711  -0.694
 -0.689  -0.683  -0.662  -0.640  -0.608  -0.573  -0.572  -0.563
 -0.560  -0.552  -0.538  -0.534  -0.528  -0.517  -0.510  -0.502
 -0.499  -0.479  -0.428  -0.422  -0.413  -0.386  -0.369
 -- Virtual --
 -0.307  -0.214  -0.164  -0.147  -0.140  -0.129  -0.115  -0.107
 -0.101  -0.097  -0.094  -0.090  -0.083  -0.079  -0.078  -0.073
 -0.073  -0.066  -0.061  -0.057  -0.053  -0.046  -0.040  -0.038
 -0.028  -0.025  -0.020  -0.015  -0.010  -0.006  -0.001   0.002
  0.007   0.009   0.010   0.014   0.019   0.024   0.024   0.029
  0.030   0.032   0.038   0.041   0.044   0.046   0.048   0.050
  0.051   0.054   0.058   0.060   0.062   0.070   0.072   0.078
  0.082   0.086   0.088   0.095   0.098   0.103   0.107   0.109
  0.115   0.120   0.121   0.123   0.132   0.136   0.140   0.144
  0.151   0.155   0.158   0.168   0.171   0.172   0.176   0.184
  0.190   0.200   0.201   0.208   0.217   0.223   0.234   0.235
  0.240   0.253   0.255   0.262   0.268   0.289   0.312   0.333
  0.339   0.361   0.373   0.381   0.399   0.412   0.423   0.437
  0.453   0.454   0.462   0.478   0.495   0.501   0.503   0.512
  0.518   0.526   0.530   0.548   0.554   0.559   0.572   0.575
  0.579   0.588   0.603   0.608   0.615   0.625   0.636   0.641
  0.657   0.664   0.671   0.680   0.683   0.687   0.704   0.715
  0.737   0.777   0.786   0.789   0.807   0.818   0.822   0.825
  0.830   0.835   0.843   0.846   0.852   0.857   0.866   0.878
  0.886   0.894   0.910   0.912   0.921   0.928   0.947   0.957
  0.960   0.978   0.997   1.007   1.023   1.045   1.057   1.081
  1.093   1.109   1.122   1.137   1.159   1.175   1.190   1.196
  1.206   1.210   1.225   1.242   1.251   1.294   1.314   1.330
  1.341   1.358   1.395   1.415   1.435   1.487   1.522   1.557
  1.572   1.641   1.662   1.695   1.702   1.716   1.753   1.763
  1.773   1.780   1.785   1.798   1.814   1.822   1.871   1.879
  1.905   1.913   1.927   1.962   1.981   2.011   2.024   2.039
  2.052   2.071   2.097   2.101   2.112   2.125   2.147   2.184
  2.219   2.250   2.275   2.284   2.293   2.311   2.324   2.331
  2.342   2.372   2.378   2.383   2.394   2.406   2.440   2.465
  2.473   2.487   2.507   2.530   2.561   2.570   2.602   2.660
  2.707   2.740   2.741   2.758   2.789   2.796   2.983   3.041
  3.060   3.131   3.155   3.170   3.259   3.291   3.528   3.585
  3.613   3.816   3.829   3.850   4.096   4.151   4.163   4.170
  4.192   4.205   4.256   4.335   4.397   4.506   4.554   4.576
 --------------------------------------------------------------
 
          Ground-State Mulliken Net Atomic Charges

     Atom                 Charge (a.u.)    Spin (a.u.)
  --------------------------------------------------------
      1 H                     0.249877      -0.013469
      2 H                     0.168318       0.001126
      3 C                     0.093676       0.273080
      4 C                    -0.331576      -0.039357
      5 S                    -0.073239      -0.035712
      6 C                     0.608986       0.146555
      7 H                     0.151234      -0.009498
      8 C                    -0.341621       0.072373
      9 H                     0.150833      -0.007693
     10 C                     0.096210       0.160098
     11 C                    -0.220527       0.091601
     12 S                    -0.099477      -0.053041
     13 C                     0.265637       0.016284
     14 H                     0.177951      -0.001204
     15 C                    -0.339939       0.255839
     16 C                    -0.210987       0.041611
     17 H                     0.170096      -0.004281
     18 C                     0.328721       0.029050
     19 S                     0.089800      -0.005552
     20 C                    -0.372324      -0.004966
     21 C                     0.054585       0.089970
     22 H                     0.152381       0.000649
     23 H                     0.231383      -0.003462
  --------------------------------------------------------
  Sum of atomic charges =     1.000000
  Sum of spin   charges =     1.000000

 -----------------------------------------------------------------
                    Cartesian Multipole Moments
 -----------------------------------------------------------------
    Charge (ESU x 10^10)
                 4.8032
    Dipole Moment (Debye)
         X      26.0638      Y      -1.7718      Z      -1.2623
       Tot      26.1545
    Quadrupole Moments (Debye-Ang)
        XX     119.1917     XY      -4.1583     YY     -90.3505
        XZ      -9.3338     YZ       0.5339     ZZ    -105.1228
    Octopole Moments (Debye-Ang^2)
       XXX     302.9238    XXY     -20.8046    XYY    -573.2077
       YYY     120.9203    XXZ     -73.3339    XYZ     -19.4925
       YYZ      12.0106    XZZ    -614.6874    YZZ      47.9480
       ZZZ      40.4003
    Hexadecapole Moments (Debye-Ang^3)
      XXXX   -6447.8751   XXXY    -286.8832   XXYY   -4739.5691
      XYYY     778.9353   YYYY    -761.5831   XXXZ    -639.8414
      XXYZ    -284.5174   XYYZ     108.9789   YYYZ      10.1655
      XXZZ   -4770.7625   XYZZ     280.9759   YYZZ    -197.5676
      XZZZ     213.2960   YZZZ     -26.4438   ZZZZ    -324.3429
 -----------------------------------------------------------------
 Calculating analytic gradient of the SCF energy
 Gradient of SCF Energy
            1           2           3           4           5           6
    1  -0.0005156  -0.0003345  -0.0015561   0.0001996   0.0020085  -0.0006678
    2   0.0003687   0.0000979  -0.0008682  -0.0001010  -0.0009991  -0.0022971
    3  -0.0000323   0.0001007   0.0001715  -0.0000245   0.0000605  -0.0000424
            7           8           9          10          11          12
    1   0.0003437   0.0034086  -0.0009431  -0.0019630   0.0017811  -0.0027043
    2   0.0001496   0.0035795   0.0000255  -0.0035328   0.0028960   0.0013492
    3  -0.0004593   0.0003382  -0.0004828  -0.0017010   0.0003536  -0.0015512
           13          14          15          16          17          18
    1  -0.0015277   0.0004534  -0.0004752   0.0039336  -0.0002844  -0.0027057
    2  -0.0008831  -0.0003483   0.0014860   0.0008394  -0.0003114  -0.0043857
    3   0.0064803   0.0005037  -0.0057265   0.0046384  -0.0003790  -0.0036421
           19          20          21          22          23
    1  -0.0000497   0.0006631   0.0005915   0.0002784   0.0000655
    2   0.0028042  -0.0009941   0.0018856   0.0000665  -0.0008272
    3   0.0004323   0.0010910   0.0000246   0.0000846  -0.0002386
 Max gradient component =       6.480E-03
 RMS gradient           =       1.931E-03
 Gradient time:  CPU 4.30 s  wall 4.19 s
 Geometry Optimization Parameters
   NAtoms,    NIC,     NZ,  NCons,   NDum,   NFix, NCnnct, MaxDiis
       23     166       0       1       0       0       0       0

 Cartesian Hessian Update
 Hessian Updated using BFGS Update


** CONSTRAINED OPTIMIZATION IN DELOCALIZED INTERNAL COORDINATES **
   Searching for a Minimum

   Optimization Cycle:   4

                       Coordinates (Angstroms)
     ATOM                X               Y               Z
      1  H        -0.1101689591   -0.5913659828   -0.0078042482
      2  H         1.0140099227   -2.9088884381   -0.5918558865
      3  C         0.9511375676   -0.7847950560   -0.1114949781
      4  C         1.5676584004   -1.9941346522   -0.4178320620
      5  S         2.0724844041    0.4982006953    0.1113142098
      6  C         2.9605789672   -1.8875166977   -0.4701975020
      7  H         3.6234755930   -2.7140201349   -0.7013409252
      8  C         3.4306231213   -0.5808500573   -0.2033822389
      9  H         4.5548290718    2.0151938110    0.3080182013
     10  C         4.7632144484   -0.1258504054   -0.1571978326
     11  C         5.2287140030    1.1909163395    0.1004173849
     12  S         6.1152493608   -1.2109893621   -0.4266337831
     13  C         6.6117543300    1.2993671090    0.0741947556
     14  H         7.1649516651    2.2088587882    0.2767628709
     15  C         7.2678069168    0.0854125961   -0.2103448313
     16  C         8.6967743011   -0.1578261062   -0.2528251349
     17  H         9.2876862695    0.9474961389   -2.0309225933
     18  C         9.5892117851    0.3123251204   -1.2056192048
     19  S         9.5002559315   -1.2110476193    0.8951254898
     20  C        10.9113934603   -0.1550745066   -0.9971693593
     21  C        11.0164460823   -0.9677916059    0.1085494540
     22  H        11.7524156924    0.0972366320   -1.6321046313
     23  H        11.9063776647   -1.4359006160    0.5103762552
   Point Group: c1    Number of degrees of freedom:    63


   Energy is  -1656.402417862

              Constraints and their Current Values
                                        Value     Constraint
   Dihedral:       13  15  16  18      -70.000      -70.000
 Hessian Updated using BFGS Update

 62 Hessian modes will be used to form the next step
  Hessian Eigenvalues:
     0.026076    0.045000    0.045000    0.045000    0.045001    0.045001
     0.045001    0.045002    0.045002    0.045003    0.045006    0.045010
     0.045012    0.045012    0.045015    0.045035    0.045055    0.045096
     0.045194    0.159402    0.159945    0.159973    0.159979    0.159997
     0.160018    0.160369    0.162389    0.198401    0.221411    0.223100
     0.230294    0.238087    0.241701    0.249668    0.251840    0.263082
     0.287295    0.322530    0.326802    0.327950    0.338091    0.340261
     0.341315    0.365511    0.365519    0.365827    0.366890    0.367247
     0.367974    0.370111    0.370911    0.402649    0.422728    0.435438
     0.436274    0.442390    0.463514    0.464323    0.481292    0.496032
     0.499742    0.586144

 Minimum Search - Taking Simple RFO Step
 Searching for Lamda that Minimizes Along All modes
 Value Taken    Lamda =  -0.00155923
 Step Taken.  Stepsize is  0.225897

                             Maximum     Tolerance    Cnvgd?
         Gradient           0.004510      0.000300      NO
         Displacement       0.106550      0.001200      NO
         Energy change     -0.003221      0.000001      NO


 New Cartesian Coordinates Obtained by Inverse Iteration

 Displacement from previous Coordinates is:  0.673998
 ----------------------------------------------------------------
             Standard Nuclear Orientation (Angstroms)
[...]
      2 H                     0.165766       0.001225
      3 C                     0.068115       0.248224
      4 C                    -0.265779      -0.036578
      5 S                    -0.051530      -0.026911
      6 C                     0.509445       0.138246
      7 H                     0.146761      -0.009178
      8 C                    -0.319820       0.050988
      9 H                     0.148762      -0.005840
     10 C                     0.003166       0.176220
     11 C                    -0.086977       0.072150
     12 S                    -0.181436      -0.051889
     13 C                     0.040899       0.034529
     14 H                     0.181185      -0.003140
     15 C                    -0.463046       0.212282
     16 C                     0.442133       0.041136
     17 H                     0.173107      -0.007143
     18 C                    -0.035565       0.075980
     19 S                     0.101992      -0.015782
     20 C                    -0.202818      -0.020210
     21 C                    -0.010457       0.143931
     22 H                     0.155953       0.001505
     23 H                     0.235683      -0.007060
  --------------------------------------------------------
  Sum of atomic charges =     1.000000
  Sum of spin   charges =     1.000000

 -----------------------------------------------------------------
                    Cartesian Multipole Moments
 -----------------------------------------------------------------
    Charge (ESU x 10^10)
                 4.8032
    Dipole Moment (Debye)
         X      27.4473      Y      -1.8179      Z      -1.3463
       Tot      27.5404
    Quadrupole Moments (Debye-Ang)
        XX     136.4373     XY      -5.6522     YY     -88.3313
        XZ     -10.9491     YZ      -0.6646     ZZ    -106.6376
    Octopole Moments (Debye-Ang^2)
       XXX     495.2227    XXY     -38.5860    XYY    -550.3700
       YYY     121.5090    XXZ     -93.2999    XYZ     -24.7667
       YYZ      16.6167    XZZ    -624.7217    YZZ      50.4966
       ZZZ      53.2565
    Hexadecapole Moments (Debye-Ang^3)
      XXXX   -4293.8403   XXXY    -475.5144   XXYY   -4492.5652
      XYYY     781.1692   YYYY    -817.3599   XXXZ    -851.3498
      XXYZ    -311.4810   XYYZ     134.2119   YYYZ       9.9964
      XXZZ   -4835.7535   XYZZ     300.6482   YYZZ    -204.6164
      XZZZ     318.3902   YZZZ     -12.8337   ZZZZ    -283.3473
 -----------------------------------------------------------------
 Calculating analytic gradient of the SCF energy
 Gradient of SCF Energy
            1           2           3           4           5           6
    1   0.0000034  -0.0000022  -0.0000443   0.0000408   0.0000595  -0.0000297
    2   0.0000039  -0.0000085  -0.0000430   0.0000150  -0.0000175  -0.0000564
    3   0.0000087  -0.0000099  -0.0000117   0.0000107   0.0000248  -0.0000543
            7           8           9          10          11          12
    1   0.0000039  -0.0000289  -0.0000162   0.0000420   0.0000957  -0.0000951
    2  -0.0000007   0.0000277  -0.0000189  -0.0001010   0.0001160   0.0000381
    3   0.0000034   0.0000329   0.0000042  -0.0000217  -0.0000369   0.0000552
           13          14          15          16          17          18
    1  -0.0010193   0.0000148   0.0009932   0.0009299  -0.0000111  -0.0009074
    2  -0.0026957  -0.0000014  -0.0002434   0.0107839   0.0000028  -0.0078653
    3   0.0094584  -0.0000186  -0.0183934   0.0149183   0.0000011  -0.0059314
           19          20          21          22          23
    1  -0.0000300  -0.0000142   0.0000082   0.0000057   0.0000012
    2   0.0000402   0.0000013   0.0000136   0.0000065   0.0000028
    3  -0.0000301  -0.0000127   0.0000016   0.0000045  -0.0000030
 Max gradient component =       1.839E-02
 RMS gradient           =       3.561E-03
 Gradient time:  CPU 4.28 s  wall 4.19 s
 Geometry Optimization Parameters
   NAtoms,    NIC,     NZ,  NCons,   NDum,   NFix, NCnnct, MaxDiis
       23     166       0       1       0       0       0       0

 Cartesian Hessian Update
 Hessian Updated using BFGS Update


** CONSTRAINED OPTIMIZATION IN DELOCALIZED INTERNAL COORDINATES **
   Searching for a Minimum

   Optimization Cycle:  11

                       Coordinates (Angstroms)
     ATOM                X               Y               Z
      1  H        -0.1015562988   -0.6282250952   -0.0894676979
      2  H         1.0631699463   -2.9689836799   -0.4462789893
      3  C         0.9638167599   -0.8130474400   -0.1483648670
      4  C         1.5988984867   -2.0342247261   -0.3350222025
      5  S         2.0620440721    0.4985474401   -0.0008946029
      6  C         2.9931210798   -1.9136636541   -0.3587904491
      7  H         3.6678648129   -2.7521745056   -0.4901073915
      8  C         3.4399533523   -0.5899801817   -0.1883326496
      9  H         4.5311419589    2.0337668521    0.2586941879
     10  C         4.7697890582   -0.1107490193   -0.1614821971
     11  C         5.2106347072    1.2177833928    0.0405534498
     12  S         6.1448039113   -1.1773075945   -0.4260512404
     13  C         6.5880333452    1.3599455713   -0.0255874380
     14  H         7.1157785504    2.2914303998    0.1424386906
     15  C         7.2706746691    0.1575191904   -0.3051451710
     16  C         8.6899457142   -0.0650542719   -0.2313606829
     17  H         9.4396195513    1.2452745717   -1.8044754212
     18  C         9.6585605390    0.4611114343   -1.0884069819
     19  S         9.3635414761   -1.3949031125    0.7057924677
     20  C        10.9236881296   -0.1435031993   -0.9385294541
     21  C        10.9184962141   -1.1499878604    0.0064243190
     22  H        11.8046943915    0.1414362326   -1.5006968431
     23  H        11.7601655728   -1.7360547546    0.3531245744
   Point Group: c1    Number of degrees of freedom:    63


   Energy is  -1656.404678847

              Constraints and their Current Values
                                        Value     Constraint
   Dihedral:       13  15  16  18      -70.000      -70.000
 Hessian Updated using BFGS Update

 62 Hessian modes will be used to form the next step
  Hessian Eigenvalues:
     0.008508    0.012470    0.043004    0.045000    0.045001    0.045001
     0.045001    0.045002    0.045005    0.045007    0.045009    0.045012
     0.045015    0.045017    0.045042    0.045052    0.045119    0.045240
     0.045672    0.148342    0.159935    0.159962    0.159982    0.160035
     0.160287    0.160436    0.161246    0.176797    0.221305    0.223309
     0.229366    0.240934    0.245019    0.249104    0.251947    0.267367
     0.283399    0.316010    0.326842    0.328997    0.335053    0.340978
     0.342343    0.365518    0.365551    0.365864    0.366897    0.367387
     0.368040    0.370133    0.371126    0.400502    0.426412    0.434923
     0.436965    0.449544    0.462019    0.463525    0.478577    0.490982
     0.498365    0.602700

 Minimum Search - Taking Simple RFO Step
 Searching for Lamda that Minimizes Along All modes
 Value Taken    Lamda =   0.00000000
 Step Taken.  Stepsize is  0.008600

                             Maximum     Tolerance    Cnvgd?
         Gradient           0.000071      0.000300     YES
         Displacement       0.005943      0.001200      NO
         Energy change     -0.000001      0.000001     YES

 Final energy is   -1656.40467884666     


 ******************************
 **  OPTIMIZATION CONVERGED  **
 ******************************

                       Coordinates (Angstroms)
     ATOM                X               Y               Z
      1  H        -0.1015562988   -0.6282250952   -0.0894676979
      2  H         1.0631699463   -2.9689836799   -0.4462789893
      3  C         0.9638167599   -0.8130474400   -0.1483648670
      4  C         1.5988984867   -2.0342247261   -0.3350222025
      5  S         2.0620440721    0.4985474401   -0.0008946029
      6  C         2.9931210798   -1.9136636541   -0.3587904491
      7  H         3.6678648129   -2.7521745056   -0.4901073915
      8  C         3.4399533523   -0.5899801817   -0.1883326496
      9  H         4.5311419589    2.0337668521    0.2586941879
     10  C         4.7697890582   -0.1107490193   -0.1614821971
     11  C         5.2106347072    1.2177833928    0.0405534498
     12  S         6.1448039113   -1.1773075945   -0.4260512404
     13  C         6.5880333452    1.3599455713   -0.0255874380
     14  H         7.1157785504    2.2914303998    0.1424386906
     15  C         7.2706746691    0.1575191904   -0.3051451710
     16  C         8.6899457142   -0.0650542719   -0.2313606829
     17  H         9.4396195513    1.2452745717   -1.8044754212
     18  C         9.6585605390    0.4611114343   -1.0884069819
     19  S         9.3635414761   -1.3949031125    0.7057924677
     20  C        10.9236881296   -0.1435031993   -0.9385294541
     21  C        10.9184962141   -1.1499878604    0.0064243190
     22  H        11.8046943915    0.1414362326   -1.5006968431
     23  H        11.7601655728   -1.7360547546    0.3531245744

Z-matrix Print:
$molecule
1 2
S 
C  1 1.750419
C  2 1.410667 1 110.636631
H  3 1.083703 2 121.851784 1 176.476621 0
C  3 1.386294 2 113.756681 1 -2.100349 0
H  5 1.084032 3 123.725001 2 179.146027 0
C  5 1.414271 3 113.529922 2 1.105572 0
C  7 1.413806 5 127.903104 3 -178.423649 0
C  8 1.407428 7 128.295827 5 -178.437906 0
H  9 1.084262 8 122.985654 7 0.327429 0
C  9 1.399627 8 113.279162 7 -179.951264 0
H  11 1.083124 9 124.423047 8 -179.826972 0
C  11 1.389044 9 112.457377 8 0.044377 0
H  13 1.082889 11 127.385169 9 -179.830207 0
C  2 1.438511 1 121.342419 3 168.236048 0
C  15 1.396278 2 126.487280 1 123.786844 0
H  16 1.084251 15 122.536229 2 11.231376 0
C  16 1.410167 15 113.300590 2 -167.793925 0
H  18 1.083233 16 124.174874 15 -178.800717 0
C  18 1.380571 16 112.454542 15 1.422378 0
H  20 1.082628 18 127.656301 16 -176.454422 0
S  13 1.717012 11 112.996243 9 0.051857 0
S  20 1.722493 18 112.641335 16 1.083623 0
$end

 
 --------------------------------------------------------------
 
                    Orbital Energies (a.u.)
 --------------------------------------------------------------
 
 Alpha MOs
 -- Occupied --
-89.077 -89.071 -89.056 -10.411 -10.411 -10.399 -10.387 -10.381
-10.369 -10.366 -10.365 -10.364 -10.352 -10.348 -10.334  -8.136
 -8.130  -8.115  -6.100  -6.096  -6.095  -6.092  -6.091  -6.088
 -6.080  -6.076  -6.072  -1.065  -1.042  -1.023  -0.944  -0.914
 -0.897  -0.887  -0.879  -0.842  -0.771  -0.747  -0.711  -0.702
 -0.690  -0.681  -0.667  -0.643  -0.609  -0.574  -0.571  -0.570
 -0.559  -0.555  -0.547  -0.539  -0.532  -0.519  -0.517  -0.509
 -0.496  -0.486  -0.448  -0.422  -0.411  -0.396  -0.390  -0.355
 -- Virtual --
 -0.228  -0.177  -0.156  -0.139  -0.129  -0.114  -0.111  -0.109
 -0.099  -0.094  -0.093  -0.084  -0.082  -0.079  -0.077  -0.073
 -0.066  -0.063  -0.058  -0.054  -0.046  -0.043  -0.038  -0.029
 -0.024  -0.022  -0.017  -0.011  -0.005  -0.002   0.003   0.005
  0.007   0.011   0.014   0.019   0.023   0.026   0.028   0.033
  0.034   0.038   0.040   0.041   0.043   0.045   0.050   0.053
  0.054   0.057   0.060   0.062   0.069   0.072   0.075   0.080
  0.085   0.088   0.096   0.098   0.101   0.106   0.112   0.116
  0.119   0.120   0.126   0.130   0.136   0.143   0.147   0.150
  0.153   0.159   0.167   0.172   0.173   0.180   0.183   0.189
  0.200   0.203   0.209   0.217   0.225   0.231   0.235   0.245
  0.249   0.255   0.263   0.271   0.286   0.313   0.334   0.346
  0.353   0.376   0.377   0.388   0.399   0.423   0.433   0.436
  0.448   0.459   0.475   0.485   0.500   0.503   0.511   0.512
  0.515   0.528   0.541   0.551   0.554   0.572   0.580   0.585
  0.588   0.596   0.604   0.609   0.627   0.636   0.643   0.648
  0.653   0.665   0.674   0.683   0.689   0.699   0.707   0.733
  0.767   0.786   0.790   0.805   0.814   0.817   0.820   0.821
  0.830   0.836   0.844   0.848   0.851   0.870   0.872   0.881
  0.890   0.905   0.913   0.929   0.934   0.942   0.961   0.964
  0.974   0.982   1.015   1.022   1.048   1.057   1.076   1.092
  1.110   1.117   1.148   1.158   1.165   1.192   1.193   1.197
  1.204   1.211   1.221   1.241   1.267   1.313   1.326   1.341
  1.347   1.393   1.420   1.461   1.484   1.518   1.540   1.554
  1.584   1.666   1.698   1.704   1.718   1.756   1.765   1.773
  1.774   1.787   1.804   1.812   1.824   1.864   1.874   1.896
  1.909   1.921   1.958   1.975   1.999   2.013   2.037   2.042
  2.060   2.076   2.093   2.113   2.130   2.143   2.178   2.222
  2.242   2.269   2.283   2.291   2.310   2.317   2.325   2.340
  2.364   2.378   2.383   2.388   2.408   2.440   2.457   2.470
  2.491   2.511   2.533   2.562   2.568   2.600   2.643   2.706
  2.737   2.745   2.760   2.792   2.793   2.987   3.036   3.063
  3.137   3.147   3.174   3.265   3.280   3.525   3.591   3.603
  3.804   3.833   3.856   4.099   4.150   4.165   4.172   4.186
  4.197   4.250   4.334   4.395   4.505   4.552   4.569
 
 Beta MOs
 -- Occupied --
-89.077 -89.071 -89.056 -10.409 -10.408 -10.398 -10.383 -10.380
-10.368 -10.365 -10.363 -10.362 -10.352 -10.347 -10.334  -8.136
 -8.131  -8.115  -6.100  -6.096  -6.095  -6.093  -6.091  -6.088
 -6.080  -6.076  -6.072  -1.060  -1.038  -1.020  -0.938  -0.912
 -0.896  -0.883  -0.878  -0.835  -0.767  -0.743  -0.708  -0.700
 -0.688  -0.679  -0.666  -0.641  -0.607  -0.570  -0.569  -0.561
 -0.557  -0.553  -0.541  -0.536  -0.531  -0.516  -0.509  -0.506
 -0.496  -0.485  -0.428  -0.420  -0.408  -0.393  -0.375
 -- Virtual --
 -0.302  -0.212  -0.169  -0.147  -0.136  -0.125  -0.113  -0.109
 -0.099  -0.098  -0.093  -0.091  -0.082  -0.078  -0.076  -0.074
 -0.073  -0.065  -0.062  -0.057  -0.053  -0.045  -0.042  -0.037
 -0.029  -0.023  -0.021  -0.016  -0.011  -0.004  -0.001   0.004
  0.006   0.007   0.012   0.015   0.020   0.024   0.027   0.029
  0.034   0.035   0.039   0.041   0.042   0.044   0.046   0.051
  0.054   0.055   0.058   0.062   0.063   0.069   0.073   0.077
  0.081   0.086   0.089   0.096   0.099   0.102   0.107   0.113
  0.117   0.119   0.121   0.126   0.131   0.137   0.144   0.148
  0.151   0.154   0.160   0.167   0.173   0.174   0.181   0.183
  0.189   0.201   0.204   0.211   0.219   0.226   0.231   0.237
  0.246   0.251   0.256   0.265   0.273   0.287   0.314   0.335
  0.347   0.354   0.377   0.378   0.389   0.401   0.424   0.434
  0.437   0.449   0.460   0.476   0.486   0.502   0.508   0.514
  0.516   0.523   0.530   0.543   0.555   0.556   0.575   0.581
  0.586   0.590   0.597   0.609   0.611   0.631   0.638   0.645
  0.652   0.655   0.668   0.677   0.687   0.690   0.703   0.710
  0.734   0.768   0.789   0.792   0.806   0.816   0.818   0.822
  0.824   0.833   0.837   0.845   0.849   0.852   0.871   0.874
  0.881   0.891   0.906   0.915   0.930   0.935   0.943   0.962
  0.965   0.975   0.983   1.017   1.025   1.051   1.059   1.079
  1.095   1.112   1.124   1.153   1.160   1.169   1.195   1.197
  1.199   1.208   1.217   1.225   1.243   1.270   1.317   1.330
  1.344   1.352   1.396   1.423   1.467   1.488   1.526   1.546
  1.563   1.591   1.669   1.700   1.707   1.725   1.757   1.767
  1.776   1.778   1.789   1.808   1.815   1.829   1.868   1.878
  1.900   1.912   1.926   1.961   1.980   2.006   2.017   2.044
  2.047   2.065   2.080   2.098   2.119   2.134   2.147   2.183
  2.225   2.244   2.272   2.286   2.296   2.315   2.322   2.327
  2.341   2.366   2.383   2.385   2.390   2.410   2.443   2.459
  2.472   2.494   2.513   2.536   2.566   2.570   2.602   2.646
  2.710   2.739   2.749   2.762   2.794   2.795   2.988   3.037
  3.064   3.137   3.148   3.174   3.266   3.281   3.526   3.592
  3.604   3.804   3.833   3.856   4.103   4.153   4.168   4.175
  4.190   4.200   4.255   4.338   4.399   4.508   4.554   4.572
 --------------------------------------------------------------
 
          Ground-State Mulliken Net Atomic Charges

     Atom                 Charge (a.u.)    Spin (a.u.)
  --------------------------------------------------------
      1 H                     0.244461      -0.012686
      2 H                     0.165766       0.001225
      3 C                     0.068115       0.248224
      4 C                    -0.265779      -0.036578
      5 S                    -0.051530      -0.026911
      6 C                     0.509445       0.138246
      7 H                     0.146761      -0.009178
      8 C                    -0.319820       0.050988
      9 H                     0.148762      -0.005840
     10 C                     0.003166       0.176220
     11 C                    -0.086977       0.072150
     12 S                    -0.181436      -0.051889
     13 C                     0.040899       0.034529
     14 H                     0.181185      -0.003140
     15 C                    -0.463046       0.212282
     16 C                     0.442133       0.041136
     17 H                     0.173107      -0.007143
     18 C                    -0.035565       0.075980
     19 S                     0.101992      -0.015782
     20 C                    -0.202818      -0.020210
     21 C                    -0.010457       0.143931
     22 H                     0.155953       0.001505
     23 H                     0.235683      -0.007060
  --------------------------------------------------------
  Sum of atomic charges =     1.000000
  Sum of spin   charges =     1.000000

 -----------------------------------------------------------------
                    Cartesian Multipole Moments
 -----------------------------------------------------------------
    Charge (ESU x 10^10)
                 4.8032
    Dipole Moment (Debye)
         X      27.4473      Y      -1.8179      Z      -1.3463
       Tot      27.5404
    Quadrupole Moments (Debye-Ang)
        XX     136.4373     XY      -5.6522     YY     -88.3313
        XZ     -10.9491     YZ      -0.6646     ZZ    -106.6376
    Octopole Moments (Debye-Ang^2)
       XXX     495.2227    XXY     -38.5860    XYY    -550.3700
       YYY     121.5090    XXZ     -93.2999    XYZ     -24.7667
       YYZ      16.6167    XZZ    -624.7217    YZZ      50.4966
       ZZZ      53.2565
    Hexadecapole Moments (Debye-Ang^3)
      XXXX   -4293.8403   XXXY    -475.5144   XXYY   -4492.5652
      XYYY     781.1692   YYYY    -817.3599   XXXZ    -851.3498
      XXYZ    -311.4810   XYYZ     134.2119   YYYZ       9.9964
      XXZZ   -4835.7535   XYZZ     300.6482   YYZZ    -204.6164
      XZZZ     318.3902   YZZZ     -12.8337   ZZZZ    -283.3473
 -----------------------------------------------------------------
Archival summary:
1\1\nid00499\OPT\ProcedureUnspecified\BasisUnspecified\3128(1+,2)\bwood\TueMay3011:03:232017TueMay3011:03:232017\0\\#,OPT,ProcedureUnspecified,BasisUnspecified,\\1,2\S\C,1,1.75042\C,2,1.41067,1,110.637\H,3,1.0837,2,121.852,1,176.477,0\C,3,1.38629,2,113.757,1,-2.10035,0\H,5,1.08403,3,123.725,2,179.146,0\C,5,1.41427,3,113.53,2,1.10557,0\C,7,1.41381,5,127.903,3,-178.424,0\C,8,1.40743,7,128.296,5,-178.438,0\H,9,1.08426,8,122.986,7,0.327429,0\C,9,1.39963,8,113.279,7,-179.951,0\H,11,1.08312,9,124.423,8,-179.827,0\C,11,1.38904,9,112.457,8,0.0443774,0\H,13,1.08289,11,127.385,9,-179.83,0\C,2,1.43851,1,121.342,3,168.236,0\C,15,1.39628,2,126.487,1,123.787,0\H,16,1.08425,15,122.536,2,11.2314,0\C,16,1.41017,15,113.301,2,-167.794,0\H,18,1.08323,16,124.175,15,-178.801,0\C,18,1.38057,16,112.455,15,1.42238,0\H,20,1.08263,18,127.656,16,-176.454,0\S,13,1.71701,11,112.996,9,0.0518566,0\S,20,1.72249,18,112.641,16,1.08362,0\\\@

 Total job time:  274.32s(wall), 291.36s(cpu) 
 Tue May 30 11:03:23 2017

        *************************************************************
        *                                                           *
        *  Thank you very much for using Q-Chem.  Have a nice day.  *
        *                                                           *
        *************************************************************


0 sent ACK to 0 
now end server 0 ... 
