srun -N 1 --ntasks-per-node 22 --cpus-per-task 2 --cpu_bind=cores --nodelist nid00475 /global/project/projectdirs/jcesr/qchem/qc44/cnl_qc441/dist/exe/qcprog.cori.haswell.exe .pt_nn_cation_10.0.in.33223.qcin.1 /dev/shm/eg_qchem/qchem33223/
Process 1 of 22 is on nid00475 - thread support 0
Process 2 of 22 is on nid00475 - thread support 0
Process 3 of 22 is on nid00475 - thread support 0
Process 4 of 22 is on nid00475 - thread support 0
Process 5 of 22 is on nid00475 - thread support 0
Process 6 of 22 is on nid00475 - thread support 0
Process 21 of 22 is on nid00475 - thread support 0
Process 0 of 22 is on nid00475 - thread support 0
initial socket setup ...start
initial socket setup ...done 
now start server 0 ... 
nid00475 10.128.1
Q-Chem Developer Version! Running on 10.128.1.*
                  Welcome to Q-Chem
     A Quantum Leap Into The Future Of Chemistry


 Q-Chem 4.4, Q-Chem, Inc., Pleasanton, CA (2016)

 Y. Shao,  Z. Gan,  E. Epifanovsky,  A. T. B. Gilbert,  M. Wormit,  
 J. Kussmann,  A. W. Lange,  A. Behn,  J. Deng,  X. Feng,  D. Ghosh,  
 M. Goldey,  P. R. Horn,  L. D. Jacobson,  I. Kaliman,  F. Rob,  
 R. Z. Khaliullin,  T. Kus,  A. Landau,  J. Liu,  E. I. Proynov,  Y. M. Rhee,  
 R. M. Richard,  M. A. Rohrdanz,  R. P. Steele,  E. J. Sundstrom,  
 H. L. Woodcock III,  P. M. Zimmerman,  D. Zuev,  B. Albrecht,  E. Alguire,  
 B. Austin,  S. A. Baeppler,  G. J. O. Beran,  Y. A. Bernard,  
 E. J. Berquist,  K. Brandhorst,  K. B. Bravaya,  S. T. Brown,  D. Casanova,  
 C.-M. Chang,  Y. Chen,  S. H. Chien,  K. D. Closser,  M. P. Coons,  
 D. L. Crittenden,  S. Dasgupta,  M. Diedenhofen,  R. A. DiStasio Jr.,  
 H. Do,  A. D. Dutoi,  R. G. Edgar,  P.-T. Fang,  S. Fatehi,  Q. Feng,  
 L. Fusti-Molnar,  A. Ghysels,  A. Golubeva-Zadorozhnaya,  J. Gomes,  
 A. Gunina,  M. W. D. Hanson-Heine,  P. H. P. Harbach,  A. W. Hauser,  
 J. E. Herr,  E. G. Hohenstein,  Z. C. Holden,  K. Hui,  T.-C. Jagau,  H. Ji,  
 B. Kaduk,  K. Khistyaev,  Jaehoon Kim,  Jihan Kim,  R. A. King,  
 P. Klunzinger,  K. Koh,  D. Kosenkov,  T. Kowalczyk,  C. M. Krauter,  
 A. Kunitsa,  K. U. Lao,  A. Laurent,  K. V. Lawler,  J. Lee,  D. Lefrancois,  
 S. Lehtola,  S. V. Levchenko,  C. Y. Lin,  Y.-S. Lin,  F. Liu,  E. Livshits,  
 R. C. Lochan,  A. Luenser,  P. Manohar,  S. F. Manzer,  S.-P. Mao,  Y. Mao,  
 N. Mardirossian,  A. V. Marenich,  L. A. Martinez-Martinez,  S. A. Maurer,  
 N. J. Mayhall,  J.-M. Mewes,  A. F. Morrison,  K. Nanda,  T. S. Nguyen-Beck,  
 C. M. Oana,  R. Olivares-Amaya,  D. P. O'Neill,  J. A. Parkhill,  
 T. M. Perrine,  R. Peverati,  P. A. Pieniazek,  F. Plasser,  A. Prociuk,  
 D. R. Rehn,  E. Rosta,  N. J. Russ,  N. Sergueev,  S. M. Sharada,  
 S. Sharma,  D. W. Small,  A. Sodt,  T. Stauch,  T. Stein,  D. Stuck,  
 Y.-C. Su,  A. J. W. Thom,  T. Tsuchimochi,  L. Vogt,  O. Vydrov,  T. Wang,  
 M. A. Watson,  J. Wenzel,  A. White,  C. F. Williams,  V. Vanovschi,  
 K. Yao,  S. Yeganeh,  S. R. Yost,  Z.-Q. You,  I. Y. Zhang,  X. Zhang,  
 Y. Zhao,  B. R. Brooks,  G. K. L. Chan,  D. M. Chipman,  C. J. Cramer,  
 W. A. Goddard III,  M. S. Gordon,  W. J. Hehre,  A. Klamt,  
 H. F. Schaefer III,  M. W. Schmidt,  C. D. Sherrill,  D. G. Truhlar,  
 A. Warshel,  X. Xu,  A. Aspuru-Guzik,  R. Baer,  A. T. Bell,  N. A. Besley,  
 J.-D. Chai,  A. Dreuw,  B. D. Dunietz,  T. R. Furlani,  S. R. Gwaltney,  
 C.-P. Hsu,  Y. Jung,  J. Kong,  D. S. Lambrecht,  W. Liang,  C. Ochsenfeld,  
 V. A. Rassolov,  L. V. Slipchenko,  J. E. Subotnik,  T. Van Voorhis,  
 J. M. Herbert,  A. I. Krylov,  P. M. W. Gill,  M. Head-Gordon

 Contributors to earlier versions of Q-Chem not listed above: 
 R. D. Adamson,  J. Baker,  E. F. C. Byrd,  A. K. Chakraborty,  C.-L. Cheng,  
 H. Dachsel,  R. J. Doerksen,  G. Hawkins,  A. Heyden,  S. Hirata,  
 G. Kedziora,  F. J. Keil,  C. Kelley,  P. P. Korambath,  W. Kurlancheek,  
 A. M. Lee,  M. S. Lee,  D. Liotard,  I. Lotan,  P. E. Maslen,  N. Nair,  
 D. Neuhauser,  R. Olson,  B. Peters,  J. Ritchie,  N. E. Schultz,  
 N. Shenvi,  A. C. Simmonett,  K. S. Thanthiriwatte,  Q. Wu,  W. Zhang

 Please cite Q-Chem as follows:
 Y. Shao et al., Mol. Phys. 113, 184-215 (2015)
 DOI: 10.1080/00268976.2014.952696

 Q-Chem 4.4.2 for Intel X86 EM64T Linux

 Parts of Q-Chem use Armadillo 5.200.1 (Boston Tea Smuggler).
 http://arma.sourceforge.net/

 Q-Chem begins on Tue May 30 10:58:45 2017  

Host: nid00444
0

     Scratch files written to /dev/shm/eg_qchem/qchem33223.0//
 Parallel job on  22  processors

Checking the input file for inconsistencies... 	...done.

--------------------------------------------------------------
User input:
--------------------------------------------------------------
$molecule
 1  2
 H           0.00000000        0.00000000        0.00000000
 H           0.66366000       -2.46828000       -0.59127000
 C           0.99103000       -0.39106000       -0.11652000
 C           1.36812000       -1.67442000       -0.42485000
 S           2.34669000        0.62586000        0.08638000
 C           2.76167000       -1.82175000       -0.50822000
 H           3.26291000       -2.73877000       -0.76199000
 C           3.44671000       -0.65043000       -0.26057000
 H           4.55645000        1.43902671        0.15704385
 C           4.88382000       -0.65043000       -0.26057000
 C           5.26091000        0.64090194        0.01245390
 S           6.23948000       -1.67253113       -0.43550939
 C           6.65446000        0.79046248        0.09175311
 H           7.15570000        1.71409653        0.32028213
 C           7.33950000       -0.38720773       -0.12368600
 C           8.77661000       -0.38720773       -0.12368600
 H           8.96041000        1.64586047        0.56856982
 C           9.46165000        0.73516073        0.29298050
 S           9.87663000       -1.65136641       -0.51252107
 C          10.85520000        0.56608003        0.28470872
 C          11.23229000       -0.68341490       -0.14054643
 H          11.55966000        1.32600138        0.56830782
 H          12.22332000       -1.07621679       -0.25105467
$end


$rem
         jobtype = opt
        exchange = b3lyp
           basis = 6-31++g**
  max_scf_cycles = 150
      mem_static = 281
       mem_total = 2818
      sym_ignore = true
        symmetry = false
          thresh = 12
$end


$opt
CONSTRAINT
tors 13 15 16 18 10.0
ENDCONSTRAINT
$end

--------------------------------------------------------------
 ----------------------------------------------------------------
             Standard Nuclear Orientation (Angstroms)
    I     Atom           X                Y                Z
 ----------------------------------------------------------------
    1      H       0.0000000000     0.0000000000     0.0000000000
    2      H       0.6636600000    -2.4682800000    -0.5912700000
    3      C       0.9910300000    -0.3910600000    -0.1165200000
    4      C       1.3681200000    -1.6744200000    -0.4248500000
    5      S       2.3466900000     0.6258600000     0.0863800000
    6      C       2.7616700000    -1.8217500000    -0.5082200000
    7      H       3.2629100000    -2.7387700000    -0.7619900000
    8      C       3.4467100000    -0.6504300000    -0.2605700000
    9      H       4.5564500000     1.4390267100     0.1570438500
   10      C       4.8838200000    -0.6504300000    -0.2605700000
   11      C       5.2609100000     0.6409019400     0.0124539000
   12      S       6.2394800000    -1.6725311300    -0.4355093900
   13      C       6.6544600000     0.7904624800     0.0917531100
   14      H       7.1557000000     1.7140965300     0.3202821300
   15      C       7.3395000000    -0.3872077300    -0.1236860000
   16      C       8.7766100000    -0.3872077300    -0.1236860000
   17      H       8.9604100000     1.6458604700     0.5685698200
   18      C       9.4616500000     0.7351607300     0.2929805000
   19      S       9.8766300000    -1.6513664100    -0.5125210700
   20      C      10.8552000000     0.5660800300     0.2847087200
   21      C      11.2322900000    -0.6834149000    -0.1405464300
   22      H      11.5596600000     1.3260013800     0.5683078200
   23      H      12.2233200000    -1.0762167900    -0.2510546700
 ----------------------------------------------------------------
 Nuclear Repulsion Energy =  1186.9577041892 hartrees
 There are       64 alpha and       63 beta electrons
 Requested basis set is 6-31++G(d,p)
 There are 110 shells and 345 basis functions

 Total QAlloc Memory Limit   2818 MB
 Mega-Array Size       275 MB
 MEM_STATIC part       281 MB
 A cutoff of  1.0D-12 yielded   4720 shell pairs
 There are     48067 function pairs

 Q-Chem warning in module /project/projectdirs/jcesr/qchem/qc44/cnl_qc441/compile/cori/qc_src/libqints/qchem/aobasis.C, line 68:

 Using reconstructed effective core potential

 
 -------------------------------------------------------
 OpenMP Integral Computing Module                       
 Release: version 1.0, May 2013, Q-Chem Inc. Pittsburgh 
 -------------------------------------------------------
 Integral Job Info:
 Integral job number is                      11
 Integral operator is                         1
 short-range coefficients                     0
 long-range coefficients              100000000
 Omega coefficients                           0
 if combine SR and LR in K                    0
 Integral screening is                        0
 Integral computing path is                   2
 max size of driver memory is            800000
 size of driver memory is                593474
 size of scratch memory is             15166112
 max col of scratch BK array               1296
 max len of scratch array in speh3          155
 max len of scratch index in speh4           18
 max int batch size is                      520
 min int batch size is                       52
 fixed nKL is                                52
 max L of basis functions is                  2
 order of int derivative is                   0
 number of shells is                        110
 number of basis is                         345
 number of cartesian basis is               345
 number of contracted shell pairs          4720
 number of primitive shell pairs          14801
 maxK2 (contraction) of shell pair           36
 max number of K2 of shell pair               1
 max number of CS2 of shell pair            509
 max number of PS2 of shell pair           3054
 mem total for path MDJ                  100872
 -------------------------------------------------------
 Smallest overlap matrix eigenvalue = 1.03E-07
 Linear dependence detected in AO basis
 Number of orthogonalized atomic orbitals = 342
 Maximum deviation from orthogonality = 1.328E-10

 Scale SEOQF with 1.000000e-02/1.000000e-01/1.000000e-01

 Standard Electronic Orientation quadrupole field applied
 Nucleus-field energy     =     0.0000000334 hartrees
 Guess from superposition of atomic densities
 Warning:  Energy on first SCF cycle will be non-variational
 An unrestricted hybrid HF-DFT SCF calculation will be
 performed using Pulay DIIS extrapolation
 Exchange:     0.2000 Hartree-Fock + 0.0800 Slater + 0.7200 B88
 Correlation:  0.1900 VWN1RPA + 0.8100 LYP
 Using SG-1 standard quadrature grid
 SCF converges when DIIS error is below 1.0E-08
 Inaccurate integrated density:
   Number of electrons =   127
   Numerical integral  =   127.999911744521
   Relative error      =     0.7873320823 %
 ---------------------------------------
  Cycle       Energy         DIIS Error
 ---------------------------------------
    1   -1660.7504039528      3.85E-02
    2   -1656.1691569661      3.50E-03
    3   -1655.8544415176      5.43E-03
    4   -1656.3586309310      7.96E-04
    5   -1656.3654888774      5.26E-04
    6   -1656.3696802810      2.08E-04
    7   -1656.3704370784      6.58E-05
    8   -1656.3705386105      1.39E-05
    9   -1656.3705551186      6.22E-06
   10   -1656.3705665535      3.87E-06
   11   -1656.3705742412      1.91E-06
   12   -1656.3705779103      1.30E-06
   13   -1656.3705789591      5.05E-07
   14   -1656.3705790184      3.02E-07
   15   -1656.3705790315      9.02E-08
   16   -1656.3705790336      4.43E-08
   17   -1656.3705790327      1.45E-08
   18   -1656.3705790340      8.11E-09 Convergence criterion met
 ---------------------------------------
 <S^2> = 0.7673
 SCF time:  CPU 24.51 s  wall 23.34 s
 SCF   energy in the final basis set = -1656.3705790340
 Total energy in the final basis set = -1656.3705790340
 
 --------------------------------------------------------------
 
                    Orbital Energies (a.u.)
 --------------------------------------------------------------
 
 Alpha MOs
 -- Occupied --
-89.086 -89.066 -89.064 -10.408 -10.403 -10.389 -10.388 -10.375
-10.373 -10.358 -10.357 -10.352 -10.348 -10.340 -10.339  -8.145
 -8.126  -8.124  -6.109  -6.105  -6.101  -6.090  -6.088  -6.086
 -6.084  -6.083  -6.081  -1.080  -1.052  -1.039  -0.957  -0.918
 -0.901  -0.893  -0.888  -0.848  -0.775  -0.751  -0.716  -0.703
 -0.693  -0.679  -0.675  -0.658  -0.607  -0.584  -0.582  -0.571
 -0.565  -0.552  -0.551  -0.544  -0.537  -0.526  -0.518  -0.508
 -0.492  -0.489  -0.461  -0.423  -0.407  -0.403  -0.399  -0.352
 -- Virtual --
 -0.223  -0.171  -0.149  -0.130  -0.126  -0.114  -0.111  -0.104
 -0.097  -0.093  -0.090  -0.089  -0.081  -0.078  -0.070  -0.068
 -0.065  -0.065  -0.061  -0.051  -0.046  -0.042  -0.039  -0.033
 -0.029  -0.024  -0.016  -0.014  -0.007  -0.003   0.001   0.003
  0.011   0.014   0.018   0.020   0.024   0.027   0.029   0.031
  0.034   0.038   0.044   0.046   0.047   0.048   0.051   0.058
  0.058   0.061   0.067   0.069   0.074   0.082   0.084   0.085
  0.087   0.094   0.098   0.102   0.103   0.111   0.116   0.119
  0.123   0.127   0.134   0.138   0.143   0.147   0.151   0.159
  0.160   0.171   0.175   0.182   0.186   0.189   0.195   0.205
  0.211   0.215   0.228   0.231   0.241   0.246   0.256   0.264
  0.267   0.286   0.292   0.300   0.306   0.328   0.355   0.366
  0.376   0.379   0.393   0.416   0.433   0.441   0.457   0.472
  0.475   0.493   0.499   0.505   0.513   0.516   0.522   0.523
  0.525   0.540   0.541   0.555   0.572   0.575   0.584   0.590
  0.595   0.600   0.604   0.606   0.626   0.641   0.656   0.660
  0.666   0.673   0.675   0.681   0.693   0.708   0.747   0.760
  0.795   0.802   0.807   0.812   0.814   0.825   0.831   0.839
  0.858   0.865   0.867   0.879   0.882   0.893   0.906   0.921
  0.925   0.939   0.944   0.954   0.966   0.974   0.981   0.998
  1.032   1.034   1.036   1.061   1.070   1.082   1.108   1.127
  1.136   1.153   1.156   1.186   1.194   1.197   1.201   1.216
  1.220   1.226   1.243   1.269   1.277   1.314   1.321   1.378
  1.385   1.430   1.473   1.474   1.497   1.544   1.561   1.565
  1.672   1.699   1.717   1.732   1.759   1.772   1.789   1.796
  1.829   1.834   1.859   1.866   1.871   1.900   1.919   1.947
  1.957   1.963   1.999   2.016   2.024   2.053   2.060   2.090
  2.095   2.098   2.154   2.174   2.189   2.217   2.235   2.239
  2.268   2.295   2.323   2.330   2.336   2.344   2.382   2.391
  2.399   2.407   2.414   2.443   2.453   2.467   2.484   2.516
  2.527   2.565   2.577   2.581   2.588   2.678   2.698   2.728
  2.773   2.789   2.839   2.845   3.011   3.063   3.125   3.163
  3.164   3.207   3.298   3.301   3.561   3.626   3.637   3.809
  3.853   3.867   4.105   4.119   4.167   4.170   4.192   4.199
  4.233   4.324   4.415   4.504   4.566   4.588
 
 Beta MOs
 -- Occupied --
-89.086 -89.066 -89.064 -10.406 -10.400 -10.389 -10.388 -10.372
-10.370 -10.358 -10.356 -10.350 -10.346 -10.340 -10.340  -8.145
 -8.126  -8.124  -6.110  -6.106  -6.102  -6.091  -6.088  -6.087
 -6.084  -6.083  -6.081  -1.076  -1.049  -1.035  -0.951  -0.916
 -0.896  -0.892  -0.887  -0.841  -0.771  -0.748  -0.713  -0.700
 -0.692  -0.676  -0.674  -0.656  -0.605  -0.582  -0.572  -0.569
 -0.563  -0.549  -0.543  -0.542  -0.536  -0.517  -0.515  -0.507
 -0.491  -0.488  -0.442  -0.421  -0.402  -0.400  -0.380
 -- Virtual --
 -0.299  -0.208  -0.161  -0.148  -0.127  -0.117  -0.113  -0.104
 -0.101  -0.096  -0.092  -0.089  -0.082  -0.080  -0.077  -0.068
 -0.066  -0.064  -0.060  -0.057  -0.051  -0.045  -0.041  -0.039
 -0.032  -0.028  -0.022  -0.016  -0.013  -0.006  -0.002   0.002
  0.005   0.012   0.014   0.018   0.021   0.025   0.027   0.029
  0.031   0.034   0.039   0.045   0.047   0.048   0.049   0.051
  0.059   0.059   0.062   0.068   0.070   0.074   0.082   0.085
  0.086   0.088   0.095   0.099   0.103   0.104   0.111   0.117
  0.120   0.124   0.128   0.135   0.138   0.144   0.148   0.151
  0.159   0.160   0.172   0.176   0.183   0.187   0.191   0.196
  0.206   0.213   0.217   0.229   0.232   0.242   0.247   0.257
  0.265   0.269   0.289   0.293   0.301   0.308   0.329   0.356
  0.366   0.377   0.379   0.393   0.417   0.436   0.442   0.459
  0.473   0.476   0.496   0.504   0.510   0.517   0.520   0.525
  0.526   0.529   0.541   0.542   0.560   0.573   0.577   0.588
  0.592   0.595   0.602   0.607   0.610   0.627   0.648   0.659
  0.661   0.667   0.674   0.679   0.683   0.697   0.712   0.748
  0.761   0.796   0.803   0.809   0.815   0.815   0.828   0.833
  0.841   0.860   0.866   0.868   0.880   0.883   0.894   0.907
  0.922   0.927   0.940   0.946   0.955   0.967   0.976   0.983
  0.999   1.034   1.036   1.039   1.063   1.073   1.087   1.111
  1.131   1.140   1.157   1.159   1.190   1.197   1.200   1.205
  1.221   1.224   1.230   1.244   1.270   1.283   1.315   1.325
  1.383   1.390   1.436   1.477   1.477   1.503   1.548   1.571
  1.574   1.675   1.701   1.722   1.734   1.760   1.773   1.790
  1.798   1.833   1.838   1.861   1.869   1.875   1.904   1.922
  1.950   1.958   1.971   2.005   2.022   2.031   2.058   2.067
  2.096   2.100   2.104   2.160   2.177   2.194   2.220   2.237
  2.242   2.273   2.298   2.326   2.333   2.338   2.349   2.384
  2.395   2.402   2.410   2.418   2.445   2.455   2.469   2.487
  2.518   2.531   2.566   2.579   2.584   2.591   2.680   2.702
  2.732   2.775   2.790   2.840   2.848   3.012   3.064   3.126
  3.163   3.164   3.207   3.300   3.302   3.562   3.627   3.638
  3.809   3.854   3.867   4.109   4.122   4.170   4.176   4.194
  4.201   4.238   4.328   4.420   4.507   4.569   4.591
 --------------------------------------------------------------
 
          Ground-State Mulliken Net Atomic Charges

     Atom                 Charge (a.u.)    Spin (a.u.)
  --------------------------------------------------------
      1 H                     0.248108      -0.011174
      2 H                     0.154687       0.001490
      3 C                     0.064881       0.228467
      4 C                    -0.327806      -0.044410
      5 S                    -0.065198      -0.028180
      6 C                     0.485384       0.145540
      7 H                     0.136310      -0.009026
      8 C                     0.227482       0.033778
      9 H                     0.052186      -0.005217
     10 C                    -0.027861       0.181973
     11 C                    -0.573603       0.047631
     12 S                     0.078626      -0.047691
     13 C                    -0.179160       0.032608
     14 H                     0.098164      -0.002696
     15 C                     0.076959       0.184493
     16 C                    -0.056141       0.039388
     17 H                     0.089311      -0.010190
     18 C                     0.352163       0.133744
     19 S                     0.076645      -0.032655
     20 C                    -0.337199      -0.044553
     21 C                     0.025857       0.215956
     22 H                     0.162764       0.002460
     23 H                     0.237441      -0.011736
  --------------------------------------------------------
  Sum of atomic charges =     1.000000
  Sum of spin   charges =     1.000000

 -----------------------------------------------------------------
                    Cartesian Multipole Moments
 -----------------------------------------------------------------
    Charge (ESU x 10^10)
                 4.8032
    Dipole Moment (Debye)
         X      29.1941      Y      -1.6063      Z      -0.4623
       Tot      29.2419
    Quadrupole Moments (Debye-Ang)
        XX     161.4494     XY      -4.4734     YY     -90.1810
        XZ      -0.6453     YZ       5.3887     ZZ    -109.0333
    Octopole Moments (Debye-Ang^2)
       XXX     783.8719    XXY      11.7177    XYY    -558.5408
       YYY     146.7214    XXZ      18.7913    XYZ      33.3655
       YYZ      12.1857    XZZ    -665.1281    YZZ      54.6550
       ZZZ      53.6235
    Hexadecapole Moments (Debye-Ang^3)
      XXXX   -1270.4947   XXXY     376.4536   XXYY   -4583.5339
      XYYY     955.0169   YYYY    -882.9566   XXXZ     306.0546
      XXYZ     253.0853   XYYZ      86.8429   YYYZ     -84.5947
      XXZZ   -5334.7068   XYZZ     330.4101   YYZZ    -194.1972
      XZZZ     290.4027   YZZZ    -118.3318   ZZZZ    -201.7301
 -----------------------------------------------------------------
 Calculating analytic gradient of the SCF energy
 Gradient of SCF Energy
            1           2           3           4           5           6
    1   0.0068351   0.0045602  -0.0045354   0.0001124   0.0026763   0.0234482
    2  -0.0034334   0.0048221   0.0021469   0.0118482  -0.0264797   0.0106251
    3  -0.0011511   0.0010232   0.0000093   0.0037865  -0.0056759   0.0034203
            7           8           9          10          11          12
    1  -0.0015554  -0.0211557  -0.0024646   0.0464889  -0.0667810   0.0027098
    2   0.0061724   0.0630339  -0.0060159  -0.0465346  -0.0322712   0.0397310
    3   0.0005602   0.0116117  -0.0007741  -0.0082203  -0.0086240   0.0082812
           13          14          15          16          17          18
    1   0.0346714   0.0032539  -0.0252088   0.0245846  -0.0045633  -0.0210854
    2  -0.0227992  -0.0040215  -0.0006119   0.0072259  -0.0034616  -0.0145242
    3  -0.0063864   0.0011500   0.0049147  -0.0020951  -0.0032769  -0.0033551
           19          20          21          22          23
    1   0.0025213   0.0030496   0.0032775  -0.0039327  -0.0069070
    2   0.0252112  -0.0095563   0.0006219  -0.0048892   0.0031601
    3   0.0085870  -0.0021125  -0.0008126  -0.0019138   0.0010539
 Max gradient component =       6.678E-02
 RMS gradient           =       1.815E-02
 Gradient time:  CPU 4.24 s  wall 4.23 s
 Geometry Optimization Parameters
   NAtoms,    NIC,     NZ,  NCons,   NDum,   NFix, NCnnct, MaxDiis
       23     166       0       1       0       0       0       0


** CONSTRAINED OPTIMIZATION IN DELOCALIZED INTERNAL COORDINATES **
   Searching for a Minimum

   Optimization Cycle:   1

                       Coordinates (Angstroms)
     ATOM                X               Y               Z
      1  H         0.0000000000    0.0000000000    0.0000000000
      2  H         0.6636600000   -2.4682800000   -0.5912700000
      3  C         0.9910300000   -0.3910600000   -0.1165200000
      4  C         1.3681200000   -1.6744200000   -0.4248500000
      5  S         2.3466900000    0.6258600000    0.0863800000
      6  C         2.7616700000   -1.8217500000   -0.5082200000
      7  H         3.2629100000   -2.7387700000   -0.7619900000
      8  C         3.4467100000   -0.6504300000   -0.2605700000
      9  H         4.5564500000    1.4390267100    0.1570438500
     10  C         4.8838200000   -0.6504300000   -0.2605700000
     11  C         5.2609100000    0.6409019400    0.0124539000
     12  S         6.2394800000   -1.6725311300   -0.4355093900
     13  C         6.6544600000    0.7904624800    0.0917531100
     14  H         7.1557000000    1.7140965300    0.3202821300
     15  C         7.3395000000   -0.3872077300   -0.1236860000
     16  C         8.7766100000   -0.3872077300   -0.1236860000
     17  H         8.9604100000    1.6458604700    0.5685698200
     18  C         9.4616500000    0.7351607300    0.2929805000
     19  S         9.8766300000   -1.6513664100   -0.5125210700
     20  C        10.8552000000    0.5660800300    0.2847087200
     21  C        11.2322900000   -0.6834149000   -0.1405464300
     22  H        11.5596600000    1.3260013800    0.5683078200
     23  H        12.2233200000   -1.0762167900   -0.2510546700
   Point Group: c1    Number of degrees of freedom:    63


   Energy is  -1656.370579034

              Constraints and their Current Values
                                        Value     Constraint
   Dihedral:       13  15  16  18       10.000       10.000

 Attempting to Generate Delocalized Internal Coordinates

 61 Hessian modes will be used to form the next step
  Hessian Eigenvalues:
     0.045000    0.045000    0.045000    0.045000    0.045000    0.045000
     0.045001    0.045001    0.045001    0.045002    0.045003    0.045003
     0.045011    0.045012    0.045012    0.045025    0.045032    0.045058
     0.045059    0.159944    0.159945    0.159945    0.159992    0.159993
     0.160000    0.160000    0.221307    0.221308    0.227041    0.237995
     0.238010    0.245411    0.249662    0.249670    0.249670    0.249825
     0.326317    0.326319    0.326962    0.340043    0.340044    0.340629
     0.365512    0.365512    0.365513    0.366888    0.366889    0.366889
     0.370099    0.370100    0.399845    0.399845    0.435419    0.435419
     0.435422    0.463117    0.463122    0.464282    0.495500    0.495500
     0.495533

 Minimum Search - Taking Simple RFO Step
 Searching for Lamda that Minimizes Along All modes
 Value Taken    Lamda =  -0.07471348
 Calculated Step too Large.  Step scaled by  0.649118
 Step Taken.  Stepsize is  0.300000

                             Maximum     Tolerance    Cnvgd?
         Gradient           0.100837      0.000300      NO
         Displacement       0.198038      0.001200      NO
         Energy change     *********      0.000001      NO


 New Cartesian Coordinates Obtained by Inverse Iteration

 Displacement from previous Coordinates is:  2.421324
 ----------------------------------------------------------------
             Standard Nuclear Orientation (Angstroms)
    I     Atom           X                Y                Z
 ----------------------------------------------------------------
    1      H      -0.1309474736    -0.3542250722    -0.0848428176
    2      H       0.8242155851    -2.7444923534    -0.6480759933
    3      C       0.9070420877    -0.6301786070    -0.1734503102
    4      C       1.4322406144    -1.8710227284    -0.4670392498
    5      S       2.1244920266     0.5553762755     0.0625644083
    6      C       2.8356567511    -1.8518552630    -0.5099764382
    7      H       3.4447550750    -2.7126079428    -0.7444201943
    8      C       3.3870314303    -0.5941327585    -0.2474906511
    9      H       4.5632012899     1.7512894326     0.2059651338
   10      C       4.8162295243    -0.3883190694    -0.2029415974
   11      C       5.2407894450     0.9264424148     0.0658851451
   12      S       6.1783972581    -1.4223410386    -0.3677943773
   13      C       6.6274645242     1.0648191785     0.1434332508
   14      H       7.1270133423     1.9935977052     0.3607590848
   15      C       7.3055996826    -0.1399592691    -0.0655271195
   16      C       8.7396084889    -0.2619966063    -0.0848422120
   17      H       9.2738260210     1.7452566921     0.5904026269
   18      C       9.6089183737     0.7639488756     0.3004475969
   19      S       9.6382998632    -1.6846046306    -0.5004186809
   20      C      10.9613138821     0.3926653625     0.2445110847
   21      C      11.1321851601    -0.9081713379    -0.1809109212
   22      H      11.7832331445     1.0452704083     0.4968760139
   23      H      12.0563139035    -1.4443940879    -0.3216274925
 ----------------------------------------------------------------
 Nuclear Repulsion Energy =  1179.0977673860 hartrees
 There are       64 alpha and       63 beta electrons
 Applying Cartesian multipole field
    Component          Value
    ---------          -----
     (2,0,0)        1.00000E-12
     (0,2,0)        2.00000E-11
     (0,0,2)       -3.00000E-11
 Nucleus-field energy     =     0.0000000333 hartrees
 Requested basis set is 6-31++G(d,p)
 There are 110 shells and 345 basis functions
 A cutoff of  1.0D-12 yielded   4696 shell pairs
 There are     47867 function pairs

 Q-Chem warning in module /project/projectdirs/jcesr/qchem/qc44/cnl_qc441/compile/cori/qc_src/libqints/qchem/aobasis.C, line 68:

 Using reconstructed effective core potential

 Smallest overlap matrix eigenvalue = 1.12E-07
 Linear dependence detected in AO basis
 Number of orthogonalized atomic orbitals = 342
 Maximum deviation from orthogonality = 1.033E-10
 Guess MOs from SCF MO coefficient file
 Reading MOs from coefficient file
 Reading MOs from coefficient file
 An unrestricted hybrid HF-DFT SCF calculation will be
 performed using Pulay DIIS extrapolation
 Exchange:     0.2000 Hartree-Fock + 0.0800 Slater + 0.7200 B88
 Correlation:  0.1900 VWN1RPA + 0.8100 LYP
 Using SG-1 standard quadrature grid
 SCF converges when DIIS error is below 1.0E-08
 Geometry optimization detected.  Setting ReadMinima to 0
 Setting SaveMinima to 0
 ---------------------------------------
  Cycle       Energy         DIIS Error
 ---------------------------------------
    1   -1656.2398017804      7.97E-03
    2   -1656.3564139356      1.59E-03
    3   -1656.1770873143      3.47E-03
    4   -1656.3985200932      5.10E-04
    5   -1656.4027781959      1.83E-04
    6   -1656.4033181265      5.72E-05
    7   -1656.4033680896      2.55E-05
    8   -1656.4033795836      6.63E-06
    9   -1656.4033809172      3.04E-06
   10   -1656.4033814564      2.09E-06
   11   -1656.4033817832      7.53E-07
   12   -1656.4033818651      3.99E-07
   13   -1656.4033818964      1.83E-07
   14   -1656.4033819033      1.09E-07
   15   -1656.4033819056      5.04E-08
   16   -1656.4033819061      2.32E-08
   17   -1656.4033819071      9.64E-09 Convergence criterion met
 ---------------------------------------
 <S^2> = 0.7688
 SCF time:  CPU 24.19 s  wall 22.47 s
 SCF   energy in the final basis set = -1656.4033819071
 Total energy in the final basis set = -1656.4033819071
 
 --------------------------------------------------------------
 
                    Orbital Energies (a.u.)
 --------------------------------------------------------------
 
 Alpha MOs
 -- Occupied --
-89.081 -89.066 -89.064 -10.410 -10.409 -10.391 -10.390 -10.376
-10.376 -10.362 -10.361 -10.356 -10.353 -10.342 -10.341  -8.140
 -8.126  -8.124  -6.105  -6.101  -6.097  -6.090  -6.088  -6.086
 -6.084  -6.083  -6.081  -1.070  -1.045  -1.033  -0.946  -0.913
 -0.896  -0.892  -0.888  -0.845  -0.771  -0.746  -0.712  -0.705
 -0.689  -0.679  -0.674  -0.652  -0.608  -0.576  -0.575  -0.568
 -0.563  -0.549  -0.547  -0.545  -0.533  -0.524  -0.523  -0.511
 -0.494  -0.489  -0.457  -0.421  -0.406  -0.403  -0.398  -0.350
 -- Virtual --
 -0.226  -0.174  -0.150  -0.131  -0.125  -0.113  -0.111  -0.103
 -0.099  -0.092  -0.090  -0.087  -0.081  -0.079  -0.071  -0.069
 -0.064  -0.064  -0.060  -0.052  -0.046  -0.041  -0.039  -0.034
 -0.029  -0.023  -0.015  -0.013  -0.008  -0.004   0.002   0.004
  0.012   0.013   0.017   0.020   0.025   0.027   0.029   0.030
  0.032   0.037   0.044   0.045   0.047   0.049   0.050   0.053
  0.058   0.061   0.065   0.068   0.073   0.076   0.083   0.084
  0.088   0.091   0.094   0.099   0.100   0.110   0.114   0.119
  0.120   0.124   0.130   0.134   0.143   0.144   0.152   0.153
  0.163   0.165   0.174   0.183   0.184   0.191   0.194   0.203
  0.210   0.213   0.225   0.233   0.237   0.243   0.252   0.260
  0.263   0.277   0.281   0.291   0.305   0.324   0.352   0.361
  0.370   0.381   0.398   0.402   0.430   0.436   0.444   0.467
  0.472   0.481   0.501   0.506   0.509   0.513   0.517   0.523
  0.524   0.530   0.538   0.559   0.563   0.570   0.582   0.586
  0.593   0.595   0.598   0.605   0.627   0.634   0.650   0.654
  0.658   0.669   0.677   0.684   0.694   0.706   0.734   0.758
  0.793   0.801   0.803   0.809   0.817   0.823   0.828   0.840
  0.848   0.854   0.867   0.871   0.880   0.884   0.898   0.913
  0.925   0.931   0.938   0.943   0.965   0.967   0.978   0.989
  1.018   1.027   1.032   1.050   1.067   1.076   1.098   1.117
  1.130   1.142   1.152   1.185   1.193   1.197   1.204   1.209
  1.216   1.220   1.221   1.275   1.292   1.321   1.326   1.376
  1.387   1.427   1.448   1.460   1.506   1.528   1.558   1.561
  1.667   1.690   1.700   1.740   1.761   1.771   1.783   1.788
  1.814   1.817   1.838   1.860   1.865   1.875   1.905   1.929
  1.941   1.947   1.980   2.002   2.009   2.039   2.050   2.072
  2.084   2.101   2.120   2.135   2.168   2.191   2.228   2.233
  2.260   2.296   2.313   2.324   2.325   2.338   2.363   2.376
  2.384   2.397   2.399   2.411   2.436   2.452   2.479   2.494
  2.524   2.549   2.570   2.577   2.587   2.659   2.696   2.732
  2.754   2.781   2.818   2.840   3.000   3.049   3.092   3.151
  3.154   3.199   3.282   3.288   3.535   3.608   3.620   3.803
  3.845   3.872   4.107   4.114   4.153   4.171   4.183   4.197
  4.230   4.320   4.406   4.494   4.560   4.589
 
 Beta MOs
 -- Occupied --
-89.081 -89.066 -89.064 -10.408 -10.406 -10.391 -10.390 -10.373
-10.373 -10.362 -10.360 -10.353 -10.351 -10.342 -10.342  -8.141
 -8.126  -8.124  -6.105  -6.101  -6.097  -6.090  -6.088  -6.086
 -6.084  -6.083  -6.081  -1.066  -1.042  -1.029  -0.941  -0.911
 -0.891  -0.891  -0.886  -0.837  -0.767  -0.743  -0.710  -0.702
 -0.688  -0.677  -0.672  -0.650  -0.606  -0.574  -0.566  -0.565
 -0.561  -0.548  -0.544  -0.538  -0.532  -0.523  -0.512  -0.510
 -0.493  -0.488  -0.438  -0.419  -0.402  -0.400  -0.379
 -- Virtual --
 -0.297  -0.211  -0.163  -0.149  -0.125  -0.119  -0.112  -0.103
 -0.102  -0.098  -0.091  -0.089  -0.081  -0.079  -0.078  -0.069
 -0.065  -0.063  -0.060  -0.059  -0.051  -0.044  -0.041  -0.039
 -0.033  -0.028  -0.022  -0.014  -0.012  -0.007  -0.003   0.004
  0.005   0.012   0.014   0.017   0.020   0.026   0.028   0.029
  0.031   0.032   0.038   0.045   0.046   0.048   0.050   0.051
  0.053   0.060   0.062   0.066   0.068   0.074   0.077   0.084
  0.085   0.089   0.093   0.095   0.100   0.101   0.110   0.115
  0.120   0.120   0.125   0.132   0.135   0.144   0.146   0.153
  0.154   0.164   0.166   0.175   0.184   0.185   0.193   0.195
  0.204   0.211   0.214   0.226   0.234   0.238   0.244   0.253
  0.261   0.264   0.278   0.283   0.292   0.306   0.325   0.353
  0.361   0.370   0.381   0.398   0.404   0.431   0.437   0.446
  0.468   0.473   0.482   0.506   0.511   0.512   0.518   0.520
  0.526   0.529   0.532   0.539   0.563   0.565   0.571   0.585
  0.588   0.593   0.596   0.601   0.610   0.628   0.641   0.651
  0.656   0.662   0.670   0.682   0.686   0.698   0.710   0.735
  0.758   0.794   0.802   0.805   0.811   0.818   0.827   0.830
  0.841   0.849   0.855   0.868   0.873   0.881   0.885   0.899
  0.914   0.927   0.932   0.939   0.944   0.966   0.969   0.978
  0.990   1.019   1.030   1.035   1.053   1.070   1.080   1.101
  1.121   1.134   1.145   1.157   1.190   1.196   1.200   1.206
  1.211   1.221   1.222   1.227   1.276   1.298   1.324   1.329
  1.379   1.394   1.431   1.453   1.464   1.513   1.532   1.567
  1.571   1.670   1.691   1.704   1.742   1.763   1.772   1.785
  1.790   1.819   1.822   1.842   1.863   1.870   1.878   1.908
  1.937   1.944   1.948   1.986   2.008   2.016   2.045   2.056
  2.079   2.089   2.106   2.124   2.141   2.171   2.195   2.231
  2.236   2.265   2.299   2.317   2.326   2.327   2.342   2.365
  2.378   2.388   2.399   2.402   2.414   2.438   2.454   2.482
  2.496   2.527   2.550   2.573   2.580   2.589   2.662   2.700
  2.735   2.755   2.783   2.820   2.843   3.001   3.049   3.093
  3.151   3.155   3.199   3.283   3.289   3.536   3.609   3.621
  3.803   3.845   3.872   4.111   4.117   4.156   4.176   4.186
  4.199   4.235   4.323   4.411   4.497   4.562   4.592
 --------------------------------------------------------------
 
          Ground-State Mulliken Net Atomic Charges

     Atom                 Charge (a.u.)    Spin (a.u.)
  --------------------------------------------------------
      1 H                     0.245896      -0.011234
      2 H                     0.159741       0.001694
      3 C                     0.063858       0.222043
      4 C                    -0.279059      -0.043017
      5 S                    -0.006170      -0.027592
      6 C                     0.460857       0.141679
      7 H                     0.140862      -0.009204
      8 C                    -0.027217       0.030931
      9 H                     0.109017      -0.005499
     10 C                     0.003670       0.187353
     11 C                    -0.419394       0.053925
     12 S                    -0.173740      -0.056515
     13 C                    -0.029172       0.035174
     14 H                     0.124183      -0.003150
     15 C                     0.107519       0.185661
     16 C                    -0.128140       0.031390
     17 H                     0.113346      -0.009977
     18 C                     0.347016       0.141869
     19 S                     0.072737      -0.031790
     20 C                    -0.341708      -0.047330
     21 C                     0.052139       0.223072
     22 H                     0.161996       0.002320
     23 H                     0.241764      -0.011803
  --------------------------------------------------------
  Sum of atomic charges =     1.000000
  Sum of spin   charges =     1.000000

 -----------------------------------------------------------------
                    Cartesian Multipole Moments
 -----------------------------------------------------------------
    Charge (ESU x 10^10)
                 4.8032
    Dipole Moment (Debye)
         X      29.1664      Y      -1.5277      Z      -0.4378
       Tot      29.2096
    Quadrupole Moments (Debye-Ang)
        XX     162.0072     XY      -3.3291     YY     -88.6407
        XZ      -0.1363     YZ       5.6144     ZZ    -109.5288
    Octopole Moments (Debye-Ang^2)
       XXX     805.9538    XXY       4.4443    XYY    -541.7648
       YYY     136.1753    XXZ      20.9922    XYZ      34.9279
       YYZ      10.8563    XZZ    -661.4894    YZZ      51.2125
       ZZZ      50.5300
    Hexadecapole Moments (Debye-Ang^3)
      XXXX    -895.0416   XXXY     138.6855   XXYY   -4411.8695
      XYYY     862.8694   YYYY    -876.9331   XXXZ     297.7064
      XXYZ     270.6234   XYYZ      73.8003   YYYZ     -76.7519
      XXZZ   -5280.4674   XYZZ     299.1461   YYZZ    -196.5155
      XZZZ     256.3798   YZZZ    -114.9321   ZZZZ    -198.7355
 -----------------------------------------------------------------
 Calculating analytic gradient of the SCF energy
 Gradient of SCF Energy
            1           2           3           4           5           6
    1   0.0031967   0.0014377  -0.0024428  -0.0027363   0.0003482   0.0094691
    2  -0.0014309   0.0020648   0.0002378   0.0039914  -0.0156856   0.0040292
    3  -0.0006064   0.0004732  -0.0002888   0.0017811  -0.0028471   0.0021518
            7           8           9          10          11          12
    1  -0.0010095  -0.0278559   0.0032923   0.0352744  -0.0294461   0.0008947
    2   0.0030264   0.0393953  -0.0029956  -0.0433690  -0.0075730   0.0281524
    3  -0.0001671   0.0063157  -0.0002794  -0.0079537  -0.0028950   0.0054271
           13          14          15          16          17          18
    1   0.0197508  -0.0010890  -0.0204297   0.0185141   0.0005080  -0.0077229
    2  -0.0055914  -0.0035313  -0.0020324  -0.0038567  -0.0032717  -0.0022324
    3  -0.0032485   0.0004349   0.0041520  -0.0050627  -0.0023411   0.0014775
           19          20          21          22          23
    1   0.0018595   0.0017085   0.0011785  -0.0018514  -0.0028487
    2   0.0141718  -0.0042050   0.0006235  -0.0017854   0.0018679
    3   0.0048366  -0.0005359  -0.0007000  -0.0007127   0.0005886
 Max gradient component =       4.337E-02
 RMS gradient           =       1.166E-02
 Gradient time:  CPU 4.22 s  wall 4.16 s
 Geometry Optimization Parameters
   NAtoms,    NIC,     NZ,  NCons,   NDum,   NFix, NCnnct, MaxDiis
       23     166       0       1       0       0       0       0

 Cartesian Hessian Update
 Hessian Updated using BFGS Update


** CONSTRAINED OPTIMIZATION IN DELOCALIZED INTERNAL COORDINATES **
   Searching for a Minimum

   Optimization Cycle:   2

                       Coordinates (Angstroms)
     ATOM                X               Y               Z
      1  H        -0.1309474736   -0.3542250722   -0.0848428176
      2  H         0.8242155851   -2.7444923534   -0.6480759933
      3  C         0.9070420877   -0.6301786070   -0.1734503102
      4  C         1.4322406144   -1.8710227284   -0.4670392498
      5  S         2.1244920266    0.5553762755    0.0625644083
      6  C         2.8356567511   -1.8518552630   -0.5099764382
      7  H         3.4447550750   -2.7126079428   -0.7444201943
      8  C         3.3870314303   -0.5941327585   -0.2474906511
      9  H         4.5632012899    1.7512894326    0.2059651338
     10  C         4.8162295243   -0.3883190694   -0.2029415974
     11  C         5.2407894450    0.9264424148    0.0658851451
     12  S         6.1783972581   -1.4223410386   -0.3677943773
     13  C         6.6274645242    1.0648191785    0.1434332508
     14  H         7.1270133423    1.9935977052    0.3607590848
     15  C         7.3055996826   -0.1399592691   -0.0655271195
     16  C         8.7396084889   -0.2619966063   -0.0848422120
     17  H         9.2738260210    1.7452566921    0.5904026269
     18  C         9.6089183737    0.7639488756    0.3004475969
     19  S         9.6382998632   -1.6846046306   -0.5004186809
     20  C        10.9613138821    0.3926653625    0.2445110847
     21  C        11.1321851601   -0.9081713379   -0.1809109212
     22  H        11.7832331445    1.0452704083    0.4968760139
     23  H        12.0563139035   -1.4443940879   -0.3216274925
   Point Group: c1    Number of degrees of freedom:    63


   Energy is  -1656.403381907

              Constraints and their Current Values
                                        Value     Constraint
   Dihedral:       13  15  16  18       10.000       10.000
 Hessian Updated using BFGS Update

 62 Hessian modes will be used to form the next step
  Hessian Eigenvalues:
     0.044977    0.045000    0.045000    0.045000    0.045000    0.045000
     0.045001    0.045001    0.045002    0.045003    0.045003    0.045007
     0.045011    0.045012    0.045014    0.045028    0.045039    0.045052
     0.045059    0.159698    0.159944    0.159951    0.159988    0.159993
     0.159996    0.160000    0.160949    0.201309    0.221308    0.221703
     0.228240    0.238002    0.239096    0.247146    0.249670    0.249706
     0.294823    0.323648    0.326449    0.327492    0.338951    0.340096
     0.340529    0.365158    0.365512    0.365796    0.366561    0.366889
     0.367383    0.369896    0.370100    0.399784    0.419466    0.434879
     0.435419    0.437262    0.463022    0.463458    0.470168    0.495105
     0.495501    0.568119

 Minimum Search - Taking Simple RFO Step
 Searching for Lamda that Minimizes Along All modes
 Value Taken    Lamda =  -0.02183287
 Calculated Step too Large.  Step scaled by  0.977340
 Step Taken.  Stepsize is  0.300000

                             Maximum     Tolerance    Cnvgd?
         Gradient           0.031807      0.000300      NO
         Displacement       0.115606      0.001200      NO
         Energy change     -0.032803      0.000001      NO


 New Cartesian Coordinates Obtained by Inverse Iteration

 Displacement from previous Coordinates is:  1.491816
 ----------------------------------------------------------------
             Standard Nuclear Orientation (Angstroms)
    I     Atom           X                Y                Z
 ----------------------------------------------------------------
    1      H      -0.0950541578    -0.5207264400    -0.1420119064
    2      H       0.9824931463    -2.8759391463    -0.6811549369
    3      C       0.9619840822    -0.7477377481    -0.2116493827
    4      C       1.5495943399    -1.9719933993    -0.4933844190
    5      S       2.1040588092     0.5156976530     0.0418500770
    6      C       2.9491979862    -1.8909206687    -0.5085168052
    7      H       3.6037471090    -2.7293836355    -0.7231885002
    8      C       3.4278854827    -0.5937877029    -0.2373455541
    9      H       4.5383518462     1.9455638515     0.2454583293
   10      C       4.7872102202    -0.2111376268    -0.1520531920
   11      C       5.2242902562     1.1150252374     0.1123081125
   12      S       6.1313286217    -1.2993406262    -0.3201003692
   13      C       6.5975339200     1.2332056366     0.1811850242
   14      H       7.1159452380     2.1630106397     0.3845300191
   15      C       7.2644101792     0.0024089074    -0.0290666273
   16      C       8.6673482370    -0.1902421559    -0.0650077459
   17      H       9.3829287311     1.7809899657     0.5986716374
   18      C       9.6306557220     0.7690872834     0.2974919716
   19      S       9.4283758345    -1.7065010031    -0.5007030054
   20      C      10.9422843321     0.2796907580     0.2103795984
   21      C      10.9889452414    -1.0416536761    -0.2106332212
   22      H      11.8265247760     0.8615282369     0.4423419651
   23      H      11.8668400468    -1.6564787609    -0.3679147792
 ----------------------------------------------------------------
 Nuclear Repulsion Energy =  1183.1586840137 hartrees
 There are       64 alpha and       63 beta electrons
 Applying Cartesian multipole field
    Component          Value
    ---------          -----
     (2,0,0)        1.00000E-12
     (0,2,0)        2.00000E-11
     (0,0,2)       -3.00000E-11
 Nucleus-field energy     =     0.0000000335 hartrees
 Requested basis set is 6-31++G(d,p)
 There are 110 shells and 345 basis functions
 A cutoff of  1.0D-12 yielded   4686 shell pairs
 There are     47704 function pairs

 Q-Chem warning in module /project/projectdirs/jcesr/qchem/qc44/cnl_qc441/compile/cori/qc_src/libqints/qchem/aobasis.C, line 68:

 Using reconstructed effective core potential

 Smallest overlap matrix eigenvalue = 8.55E-08
 Linear dependence detected in AO basis
 Number of orthogonalized atomic orbitals = 342
 Maximum deviation from orthogonality = 9.659E-11
 Guess MOs from SCF MO coefficient file
 Reading MOs from coefficient file
 Reading MOs from coefficient file
 An unrestricted hybrid HF-DFT SCF calculation will be
 performed using Pulay DIIS extrapolation
 Exchange:     0.2000 Hartree-Fock + 0.0800 Slater + 0.7200 B88
 Correlation:  0.1900 VWN1RPA + 0.8100 LYP
 Using SG-1 standard quadrature grid
 SCF converges when DIIS error is below 1.0E-08
 Geometry optimization detected.  Setting ReadMinima to 0
 Setting SaveMinima to 0
 ---------------------------------------
  Cycle       Energy         DIIS Error
 ---------------------------------------
    1   -1656.3561539646      4.42E-03
    2   -1656.4033514091      8.15E-04
    3   -1656.3621381031      1.73E-03
    4   -1656.4146133420      2.30E-04
    5   -1656.4154476345      8.12E-05
    6   -1656.4155606674      2.14E-05
    7   -1656.4155676706      9.84E-06
    8   -1656.4155692252      3.09E-06
    9   -1656.4155694070      1.41E-06
   10   -1656.4155694652      2.88E-07
   11   -1656.4155694878      1.98E-07
   12   -1656.4155694959      8.62E-08
   13   -1656.4155695022      5.40E-08
   14   -1656.4155695025      2.42E-08
   15   -1656.4155695030      1.53E-08
   16   -1656.4155695036      6.41E-09 Convergence criterion met
 ---------------------------------------
 <S^2> = 0.7717
 SCF time:  CPU 22.59 s  wall 20.97 s
 SCF   energy in the final basis set = -1656.4155695036
 Total energy in the final basis set = -1656.4155695036
 
 --------------------------------------------------------------
 
                    Orbital Energies (a.u.)
 --------------------------------------------------------------
 
 Alpha MOs
 -- Occupied --
-89.077 -89.065 -89.065 -10.409 -10.408 -10.389 -10.388 -10.378
-10.378 -10.366 -10.365 -10.358 -10.357 -10.344 -10.343  -8.136
 -8.125  -8.124  -6.101  -6.097  -6.093  -6.089  -6.088  -6.085
 -6.084  -6.082  -6.081  -1.066  -1.042  -1.027  -0.944  -0.916
 -0.894  -0.893  -0.884  -0.839  -0.771  -0.748  -0.711  -0.706
 -0.689  -0.677  -0.674  -0.643  -0.606  -0.574  -0.573  -0.568
 -0.559  -0.549  -0.546  -0.545  -0.534  -0.522  -0.519  -0.514
 -0.496  -0.491  -0.455  -0.423  -0.407  -0.405  -0.395  -0.344
 -- Virtual --
 -0.231  -0.176  -0.157  -0.132  -0.127  -0.113  -0.112  -0.103
 -0.096  -0.093  -0.091  -0.083  -0.081  -0.079  -0.071  -0.068
 -0.064  -0.063  -0.060  -0.050  -0.045  -0.041  -0.039  -0.032
 -0.029  -0.022  -0.014  -0.011  -0.007  -0.004   0.003   0.005
  0.011   0.013   0.016   0.019   0.024   0.028   0.028   0.031
  0.033   0.036   0.042   0.045   0.047   0.049   0.050   0.053
  0.058   0.061   0.066   0.067   0.072   0.078   0.083   0.086
  0.087   0.091   0.094   0.098   0.099   0.108   0.114   0.118
  0.120   0.125   0.130   0.132   0.138   0.140   0.153   0.153
  0.162   0.164   0.173   0.178   0.185   0.193   0.197   0.200
  0.209   0.213   0.224   0.234   0.240   0.243   0.251   0.257
  0.263   0.268   0.277   0.290   0.310   0.324   0.349   0.363
  0.375   0.381   0.399   0.402   0.426   0.440   0.449   0.463
  0.471   0.473   0.500   0.507   0.507   0.512   0.514   0.524
  0.525   0.530   0.540   0.558   0.562   0.571   0.581   0.589
  0.592   0.594   0.596   0.607   0.626   0.633   0.645   0.651
  0.665   0.672   0.682   0.694   0.701   0.708   0.737   0.758
  0.792   0.793   0.801   0.806   0.818   0.820   0.828   0.837
  0.844   0.849   0.864   0.869   0.880   0.884   0.893   0.907
  0.916   0.926   0.936   0.942   0.961   0.969   0.972   0.984
  1.013   1.026   1.035   1.054   1.072   1.078   1.095   1.110
  1.131   1.137   1.150   1.185   1.189   1.198   1.201   1.211
  1.214   1.217   1.221   1.306   1.314   1.336   1.345   1.379
  1.394   1.424   1.444   1.463   1.518   1.531   1.555   1.561
  1.658   1.681   1.713   1.730   1.755   1.772   1.781   1.794
  1.794   1.820   1.822   1.856   1.863   1.871   1.909   1.916
  1.936   1.942   1.973   2.004   2.007   2.036   2.048   2.068
  2.087   2.093   2.117   2.124   2.161   2.184   2.224   2.230
  2.257   2.292   2.300   2.309   2.322   2.335   2.350   2.366
  2.378   2.387   2.394   2.409   2.429   2.441   2.475   2.486
  2.521   2.543   2.564   2.573   2.584   2.655   2.719   2.732
  2.755   2.782   2.817   2.839   2.984   3.039   3.084   3.141
  3.142   3.175   3.269   3.274   3.524   3.598   3.608   3.799
  3.841   3.876   4.113   4.121   4.153   4.171   4.181   4.198
  4.234   4.324   4.406   4.494   4.561   4.594
 
 Beta MOs
 -- Occupied --
-89.077 -89.065 -89.065 -10.406 -10.405 -10.389 -10.388 -10.375
-10.374 -10.365 -10.364 -10.356 -10.355 -10.345 -10.344  -8.137
 -8.125  -8.124  -6.101  -6.097  -6.093  -6.089  -6.088  -6.085
 -6.085  -6.082  -6.081  -1.062  -1.038  -1.023  -0.939  -0.914
 -0.892  -0.890  -0.882  -0.831  -0.767  -0.745  -0.708  -0.704
 -0.687  -0.674  -0.672  -0.641  -0.605  -0.572  -0.567  -0.563
 -0.556  -0.548  -0.545  -0.536  -0.533  -0.520  -0.514  -0.508
 -0.495  -0.490  -0.437  -0.421  -0.402  -0.401  -0.378
 -- Virtual --
 -0.291  -0.215  -0.165  -0.156  -0.127  -0.121  -0.113  -0.103
 -0.102  -0.095  -0.092  -0.091  -0.081  -0.078  -0.074  -0.069
 -0.065  -0.063  -0.059  -0.058  -0.049  -0.043  -0.041  -0.038
 -0.031  -0.028  -0.021  -0.013  -0.011  -0.006  -0.003   0.004
  0.005   0.011   0.014   0.017   0.020   0.025   0.028   0.029
  0.031   0.033   0.037   0.043   0.046   0.047   0.050   0.051
  0.054   0.060   0.061   0.066   0.068   0.073   0.078   0.085
  0.087   0.088   0.092   0.095   0.099   0.100   0.109   0.114
  0.118   0.121   0.126   0.132   0.134   0.139   0.141   0.153
  0.155   0.163   0.166   0.174   0.179   0.186   0.194   0.198
  0.201   0.210   0.214   0.225   0.235   0.241   0.244   0.252
  0.257   0.264   0.269   0.279   0.291   0.311   0.325   0.350
  0.362   0.376   0.382   0.401   0.402   0.428   0.441   0.451
  0.464   0.472   0.473   0.502   0.512   0.512   0.516   0.519
  0.526   0.531   0.532   0.541   0.562   0.564   0.572   0.584
  0.590   0.592   0.595   0.599   0.614   0.627   0.639   0.646
  0.652   0.669   0.674   0.687   0.697   0.703   0.712   0.738
  0.759   0.794   0.796   0.802   0.808   0.819   0.823   0.830
  0.838   0.845   0.850   0.865   0.870   0.881   0.886   0.894
  0.908   0.917   0.927   0.937   0.943   0.962   0.970   0.973
  0.985   1.014   1.029   1.038   1.056   1.076   1.082   1.098
  1.114   1.134   1.142   1.155   1.187   1.192   1.202   1.204
  1.213   1.215   1.223   1.227   1.308   1.320   1.339   1.348
  1.382   1.400   1.428   1.449   1.467   1.525   1.535   1.564
  1.569   1.664   1.682   1.714   1.732   1.756   1.773   1.782
  1.796   1.799   1.823   1.827   1.859   1.867   1.874   1.915
  1.919   1.940   1.943   1.980   2.010   2.013   2.043   2.053
  2.075   2.092   2.096   2.122   2.131   2.165   2.189   2.227
  2.232   2.261   2.297   2.303   2.312   2.324   2.339   2.352
  2.368   2.383   2.388   2.399   2.412   2.432   2.444   2.477
  2.489   2.525   2.544   2.568   2.577   2.585   2.658   2.723
  2.734   2.757   2.783   2.820   2.841   2.985   3.040   3.085
  3.141   3.142   3.175   3.270   3.275   3.525   3.599   3.609
  3.799   3.841   3.876   4.117   4.124   4.156   4.176   4.184
  4.200   4.239   4.327   4.411   4.497   4.563   4.597
 --------------------------------------------------------------
 
          Ground-State Mulliken Net Atomic Charges

     Atom                 Charge (a.u.)    Spin (a.u.)
  --------------------------------------------------------
      1 H                     0.241263      -0.011516
      2 H                     0.162631       0.001744
      3 C                     0.042477       0.225506
      4 C                    -0.208477      -0.042646
      5 S                    -0.017471      -0.023229
      6 C                     0.483009       0.146150
      7 H                     0.148591      -0.009350
      8 C                    -0.148947       0.019676
      9 H                     0.136494      -0.005160
     10 C                    -0.066973       0.186587
     11 C                    -0.247584       0.050665
     12 S                    -0.410090      -0.064112
     13 C                     0.137033       0.046362
     14 H                     0.135967      -0.003831
     15 C                     0.090890       0.182396
     16 C                    -0.144376       0.016083
     17 H                     0.124239      -0.010168
     18 C                     0.357816       0.154353
     19 S                     0.055444      -0.028342
     20 C                    -0.348609      -0.054258
     21 C                     0.072319       0.232750
     22 H                     0.161022       0.002464
     23 H                     0.243332      -0.012126
  --------------------------------------------------------
  Sum of atomic charges =     1.000000
  Sum of spin   charges =     1.000000

 -----------------------------------------------------------------
                    Cartesian Multipole Moments
 -----------------------------------------------------------------
    Charge (ESU x 10^10)
                 4.8032
    Dipole Moment (Debye)
         X      29.1159      Y      -1.4880      Z      -0.4381
       Tot      29.1572
    Quadrupole Moments (Debye-Ang)
        XX     158.5617     XY      -3.0698     YY     -86.8255
        XZ       0.0068     YZ       5.9000     ZZ    -109.7314
    Octopole Moments (Debye-Ang^2)
       XXX     755.4674    XXY      -0.5298    XYY    -527.4461
       YYY     129.4201    XXZ      20.5443    XYZ      36.6641
       YYZ       9.6980    XZZ    -659.4878    YZZ      49.4165
       ZZZ      48.7238
    Hexadecapole Moments (Debye-Ang^3)
      XXXX   -1341.5637   XXXY      26.9298   XXYY   -4254.0633
      XYYY     807.5893   YYYY    -890.6628   XXXZ     277.3190
      XXYZ     282.6314   XYYZ      63.9854   YYYZ     -72.8641
      XXZZ   -5207.0612   XYZZ     283.9138   YYZZ    -202.2975
      XZZZ     239.8834   YZZZ    -115.8808   ZZZZ    -197.6893
 -----------------------------------------------------------------
 Calculating analytic gradient of the SCF energy
 Gradient of SCF Energy
            1           2           3           4           5           6
    1  -0.0002681   0.0000279   0.0025943  -0.0002223   0.0035776   0.0018187
    2   0.0006970  -0.0004440  -0.0009122  -0.0016924   0.0004333  -0.0031466
    3  -0.0000288  -0.0000412  -0.0002122  -0.0000733   0.0005377   0.0004345
            7           8           9          10          11          12
    1   0.0004686  -0.0077297  -0.0005646   0.0118797  -0.0026243  -0.0007734
    2  -0.0003188   0.0159816   0.0013371  -0.0176466   0.0028627   0.0017543
    3  -0.0007231   0.0018877   0.0002774  -0.0028669   0.0000929   0.0002145
           13          14          15          16          17          18
    1   0.0013724  -0.0000213  -0.0065482   0.0030751  -0.0001735  -0.0021848
    2   0.0017637   0.0010471  -0.0012857  -0.0043790   0.0013928   0.0015386
    3  -0.0020324   0.0010921   0.0039084  -0.0050705  -0.0004318   0.0028666
           19          20          21          22          23
    1  -0.0019639  -0.0004934  -0.0014125  -0.0000096   0.0001752
    2   0.0008140   0.0009915  -0.0007863   0.0005449  -0.0005469
    3   0.0003534   0.0005029  -0.0008144   0.0002065  -0.0000799
 Max gradient component =       1.765E-02
 RMS gradient           =       3.792E-03
 Gradient time:  CPU 4.24 s  wall 4.20 s
 Geometry Optimization Parameters
   NAtoms,    NIC,     NZ,  NCons,   NDum,   NFix, NCnnct, MaxDiis
       23     166       0       1       0       0       0       0

 Cartesian Hessian Update
 Hessian Updated using BFGS Update


** CONSTRAINED OPTIMIZATION IN DELOCALIZED INTERNAL COORDINATES **
   Searching for a Minimum

   Optimization Cycle:   3

                       Coordinates (Angstroms)
     ATOM                X               Y               Z
      1  H        -0.0950541578   -0.5207264400   -0.1420119064
      2  H         0.9824931463   -2.8759391463   -0.6811549369
      3  C         0.9619840822   -0.7477377481   -0.2116493827
      4  C         1.5495943399   -1.9719933993   -0.4933844190
      5  S         2.1040588092    0.5156976530    0.0418500770
      6  C         2.9491979862   -1.8909206687   -0.5085168052
      7  H         3.6037471090   -2.7293836355   -0.7231885002
      8  C         3.4278854827   -0.5937877029   -0.2373455541
      9  H         4.5383518462    1.9455638515    0.2454583293
     10  C         4.7872102202   -0.2111376268   -0.1520531920
     11  C         5.2242902562    1.1150252374    0.1123081125
     12  S         6.1313286217   -1.2993406262   -0.3201003692
     13  C         6.5975339200    1.2332056366    0.1811850242
     14  H         7.1159452380    2.1630106397    0.3845300191
     15  C         7.2644101792    0.0024089074   -0.0290666273
     16  C         8.6673482370   -0.1902421559   -0.0650077459
     17  H         9.3829287311    1.7809899657    0.5986716374
     18  C         9.6306557220    0.7690872834    0.2974919716
     19  S         9.4283758345   -1.7065010031   -0.5007030054
     20  C        10.9422843321    0.2796907580    0.2103795984
     21  C        10.9889452414   -1.0416536761   -0.2106332212
     22  H        11.8265247760    0.8615282369    0.4423419651
     23  H        11.8668400468   -1.6564787609   -0.3679147792
   Point Group: c1    Number of degrees of freedom:    63


   Energy is  -1656.415569504

              Constraints and their Current Values
                                        Value     Constraint
   Dihedral:       13  15  16  18       10.000       10.000
 Hessian Updated using BFGS Update

 62 Hessian modes will be used to form the next step
  Hessian Eigenvalues:
     0.044739    0.045000    0.045000    0.045000    0.045000    0.045001
     0.045001    0.045001    0.045002    0.045003    0.045006    0.045007
     0.045011    0.045012    0.045013    0.045024    0.045034    0.045048
     0.045060    0.153638    0.159950    0.159954    0.159992    0.159995
     0.160000    0.160089    0.160229    0.176457    0.221350    0.222524
     0.229614    0.238039    0.240440    0.249507    0.249693    0.272663
     0.285142    0.322396    0.326439    0.327673    0.338964    0.340107
     0.341804    0.365512    0.365644    0.366102    0.366888    0.367215
     0.368127    0.370099    0.370887    0.399953    0.426895    0.435399
     0.435531    0.450728    0.462984    0.463819    0.479607    0.495500
     0.497962    0.564259

 Minimum Search - Taking Simple RFO Step
 Searching for Lamda that Minimizes Along All modes
 Value Taken    Lamda =  -0.00269419
 Step Taken.  Stepsize is  0.125475

                             Maximum     Tolerance    Cnvgd?
         Gradient           0.015323      0.000300      NO
         Displacement       0.055001      0.001200      NO
         Energy change     -0.012188      0.000001      NO


 New Cartesian Coordinates Obtained by Inverse Iteration

 Displacement from previous Coordinates is:  0.404233
 ----------------------------------------------------------------
             Standard Nuclear Orientation (Angstroms)
    I     Atom           X                Y                Z
 ----------------------------------------------------------------
    1      H      -0.1252677583    -0.5729576786    -0.1889635617
    2      H       1.0008453195    -2.9059521326    -0.6993349317
    3      C       0.9365251853    -0.7811762702    -0.2403979784
    4      C       1.5526570415    -1.9940453645    -0.5065637621
    5      S       2.0627521621     0.4918937582     0.0228389121
    6      C       2.9527121927    -1.8993164073    -0.4977348571
    7      H       3.6156667482    -2.7348912499    -0.6939109220
    8      C       3.4194592299    -0.6005745959    -0.2237468265
    9      H       4.5356938394     1.9937533767     0.2657334643
   10      C       4.7573388487    -0.1576540854    -0.1203863345
   11      C       5.2162948857     1.1592582325     0.1369984564
   12      S       6.1116216995    -1.2535208594    -0.2873897759
   13      C       6.5936431282     1.2654386866     0.1958725230
   14      H       7.1196716630     2.1936626480     0.3832126588
   15      C       7.2699348849     0.0372762416    -0.0132911497
   16      C       8.6706158818    -0.1674267047    -0.0562632952
   17      H       9.4382165503     1.7807571931     0.6017249058
   18      C       9.6637828660     0.7667650263     0.2925837232
   19      S       9.4110255677    -1.7003134448    -0.4991581479
   20      C      10.9665553849     0.2541104308     0.1935078669
   21      C      10.9881891711    -1.0669940416    -0.2233653829
   22      H      11.8642919896     0.8179847285     0.4167630271
   23      H      11.8546535182    -1.6957119074    -0.3872423219
 ----------------------------------------------------------------
 Nuclear Repulsion Energy =  1180.5928347866 hartrees
 There are       64 alpha and       63 beta electrons
 Applying Cartesian multipole field
    Component          Value
    ---------          -----
     (2,0,0)        1.00000E-12
     (0,2,0)        2.00000E-11
     (0,0,2)       -3.00000E-11
 Nucleus-field energy     =     0.0000000335 hartrees
 Requested basis set is 6-31++G(d,p)
 There are 110 shells and 345 basis functions
 A cutoff of  1.0D-12 yielded   4681 shell pairs
 There are     47723 function pairs

 Q-Chem warning in module /project/projectdirs/jcesr/qchem/qc44/cnl_qc441/compile/cori/qc_src/libqints/qchem/aobasis.C, line 68:

 Using reconstructed effective core potential

 Smallest overlap matrix eigenvalue = 8.06E-08
 Linear dependence detected in AO basis
 Number of orthogonalized atomic orbitals = 342
 Maximum deviation from orthogonality = 1.073E-10
 Guess MOs from SCF MO coefficient file
 Reading MOs from coefficient file
 Reading MOs from coefficient file
 An unrestricted hybrid HF-DFT SCF calculation will be
 performed using Pulay DIIS extrapolation
 Exchange:     0.2000 Hartree-Fock + 0.0800 Slater + 0.7200 B88
 Correlation:  0.1900 VWN1RPA + 0.8100 LYP
 Using SG-1 standard quadrature grid
 SCF converges when DIIS error is below 1.0E-08
 Geometry optimization detected.  Setting ReadMinima to 0
 Setting SaveMinima to 0
 ---------------------------------------
  Cycle       Energy         DIIS Error
 ---------------------------------------
    1   -1656.3883671455      1.28E-03
    2   -1656.4155737769      2.66E-04
    3   -1656.4118235247      5.27E-04
    4   -1656.4168328895      8.58E-05
    5   -1656.4169465913      2.43E-05
    6   -1656.4169560665      8.73E-06
    7   -1656.4169572700      3.52E-06
    8   -1656.4169574983      1.23E-06
    9   -1656.4169575475      5.98E-07
   10   -1656.4169575680      2.03E-07
   11   -1656.4169575794      1.07E-07
   12   -1656.4169575846      7.62E-08
   13   -1656.4169575883      3.13E-08
   14   -1656.4169575872      1.33E-08
   15   -1656.4169575889      6.69E-09 Convergence criterion met
 ---------------------------------------
 <S^2> = 0.7709
 SCF time:  CPU 20.57 s  wall 19.28 s
 SCF   energy in the final basis set = -1656.4169575889
 Total energy in the final basis set = -1656.4169575889
 
 --------------------------------------------------------------
 
                    Orbital Energies (a.u.)
 --------------------------------------------------------------
 
 Alpha MOs
 -- Occupied --
-89.074 -89.065 -89.064 -10.410 -10.409 -10.391 -10.390 -10.378
-10.378 -10.367 -10.366 -10.359 -10.358 -10.345 -10.344  -8.134
 -8.124  -8.124  -6.098  -6.094  -6.090  -6.088  -6.088  -6.084
 -6.084  -6.081  -6.081  -1.064  -1.041  -1.026  -0.945  -0.914
 -0.894  -0.892  -0.883  -0.841  -0.772  -0.749  -0.711  -0.707
 -0.688  -0.677  -0.673  -0.643  -0.608  -0.572  -0.572  -0.570
 -0.562  -0.550  -0.547  -0.545  -0.535  -0.520  -0.519  -0.511
 -0.494  -0.488  -0.456  -0.422  -0.407  -0.404  -0.395  -0.345
 -- Virtual --
 -0.232  -0.177  -0.156  -0.132  -0.127  -0.113  -0.112  -0.102
 -0.097  -0.092  -0.091  -0.082  -0.081  -0.079  -0.071  -0.068
 -0.064  -0.063  -0.061  -0.050  -0.045  -0.042  -0.039  -0.032
 -0.029  -0.022  -0.014  -0.011  -0.008  -0.004   0.002   0.005
  0.011   0.012   0.016   0.019   0.024   0.027   0.028   0.031
  0.033   0.036   0.042   0.045   0.047   0.048   0.050   0.054
  0.058   0.060   0.066   0.066   0.071   0.078   0.083   0.085
  0.087   0.091   0.094   0.098   0.099   0.108   0.112   0.118
  0.120   0.125   0.130   0.132   0.135   0.139   0.152   0.156
  0.161   0.166   0.173   0.178   0.183   0.192   0.196   0.200
  0.208   0.211   0.226   0.233   0.241   0.243   0.252   0.257
  0.264   0.268   0.277   0.290   0.310   0.325   0.347   0.363
  0.376   0.382   0.398   0.403   0.425   0.440   0.450   0.462
  0.470   0.473   0.498   0.507   0.508   0.512   0.514   0.522
  0.525   0.526   0.541   0.560   0.561   0.571   0.580   0.588
  0.591   0.592   0.596   0.608   0.624   0.631   0.644   0.651
  0.666   0.672   0.683   0.694   0.699   0.708   0.738   0.756
  0.792   0.793   0.802   0.805   0.818   0.820   0.828   0.836
  0.845   0.848   0.863   0.867   0.881   0.883   0.894   0.904
  0.914   0.925   0.937   0.941   0.961   0.966   0.975   0.984
  1.011   1.025   1.033   1.052   1.070   1.076   1.092   1.108
  1.124   1.135   1.147   1.183   1.191   1.198   1.200   1.209
  1.215   1.218   1.220   1.314   1.322   1.342   1.346   1.378
  1.394   1.424   1.445   1.463   1.522   1.530   1.554   1.563
  1.653   1.679   1.710   1.723   1.751   1.773   1.778   1.780
  1.792   1.815   1.820   1.851   1.857   1.869   1.902   1.918
  1.929   1.940   1.971   1.999   2.008   2.033   2.045   2.063
  2.084   2.087   2.117   2.122   2.157   2.187   2.225   2.230
  2.259   2.291   2.293   2.309   2.323   2.336   2.345   2.362
  2.380   2.390   2.395   2.408   2.429   2.442   2.469   2.490
  2.521   2.545   2.564   2.574   2.585   2.650   2.716   2.730
  2.766   2.793   2.818   2.842   2.983   3.041   3.086   3.142
  3.143   3.174   3.269   3.275   3.522   3.597   3.606   3.799
  3.840   3.875   4.112   4.122   4.150   4.174   4.180   4.197
  4.235   4.326   4.403   4.492   4.559   4.592
 
 Beta MOs
 -- Occupied --
-89.075 -89.065 -89.064 -10.408 -10.407 -10.391 -10.390 -10.375
-10.375 -10.366 -10.365 -10.356 -10.356 -10.345 -10.344  -8.134
 -8.124  -8.124  -6.098  -6.095  -6.091  -6.088  -6.088  -6.084
 -6.084  -6.081  -6.081  -1.060  -1.038  -1.023  -0.939  -0.912
 -0.891  -0.890  -0.881  -0.833  -0.769  -0.746  -0.708  -0.705
 -0.686  -0.674  -0.672  -0.641  -0.607  -0.570  -0.569  -0.562
 -0.559  -0.549  -0.546  -0.536  -0.534  -0.519  -0.511  -0.508
 -0.493  -0.487  -0.438  -0.420  -0.402  -0.400  -0.379
 -- Virtual --
 -0.293  -0.216  -0.166  -0.155  -0.126  -0.121  -0.112  -0.103
 -0.102  -0.096  -0.091  -0.090  -0.081  -0.078  -0.073  -0.070
 -0.065  -0.062  -0.060  -0.058  -0.049  -0.043  -0.041  -0.038
 -0.031  -0.028  -0.021  -0.014  -0.011  -0.006  -0.003   0.004
  0.005   0.011   0.012   0.016   0.019   0.025   0.028   0.029
  0.031   0.034   0.037   0.042   0.046   0.047   0.049   0.052
  0.054   0.060   0.061   0.066   0.067   0.072   0.078   0.084
  0.086   0.088   0.092   0.095   0.099   0.100   0.108   0.113
  0.119   0.121   0.126   0.132   0.134   0.136   0.139   0.153
  0.157   0.161   0.167   0.173   0.179   0.184   0.194   0.196
  0.201   0.209   0.212   0.227   0.234   0.242   0.244   0.253
  0.258   0.265   0.269   0.279   0.291   0.311   0.326   0.348
  0.363   0.377   0.383   0.400   0.404   0.426   0.441   0.452
  0.463   0.471   0.474   0.500   0.512   0.513   0.516   0.518
  0.524   0.528   0.532   0.542   0.560   0.565   0.572   0.584
  0.589   0.592   0.593   0.599   0.614   0.626   0.637   0.645
  0.652   0.670   0.673   0.687   0.697   0.702   0.711   0.739
  0.757   0.793   0.796   0.802   0.807   0.820   0.823   0.830
  0.837   0.846   0.849   0.863   0.869   0.882   0.884   0.894
  0.905   0.916   0.927   0.938   0.942   0.962   0.967   0.976
  0.984   1.012   1.028   1.036   1.054   1.074   1.080   1.094
  1.112   1.128   1.141   1.151   1.186   1.193   1.201   1.203
  1.211   1.219   1.222   1.226   1.316   1.328   1.345   1.349
  1.381   1.401   1.427   1.450   1.466   1.527   1.536   1.564
  1.571   1.659   1.680   1.711   1.726   1.752   1.774   1.781
  1.783   1.794   1.818   1.824   1.855   1.862   1.872   1.908
  1.921   1.933   1.942   1.978   2.006   2.014   2.039   2.049
  2.069   2.088   2.091   2.124   2.128   2.160   2.192   2.227
  2.232   2.263   2.292   2.297   2.314   2.325   2.341   2.347
  2.364   2.384   2.391   2.399   2.412   2.432   2.445   2.471
  2.494   2.524   2.546   2.568   2.578   2.586   2.652   2.719
  2.733   2.768   2.795   2.821   2.844   2.984   3.042   3.087
  3.142   3.143   3.175   3.270   3.276   3.523   3.598   3.608
  3.799   3.841   3.875   4.115   4.125   4.153   4.177   4.184
  4.199   4.240   4.329   4.408   4.495   4.562   4.596
 --------------------------------------------------------------
 
          Ground-State Mulliken Net Atomic Charges

     Atom                 Charge (a.u.)    Spin (a.u.)
  --------------------------------------------------------
      1 H                     0.242414      -0.011274
      2 H                     0.162860       0.001521
      3 C                     0.060370       0.221124
      4 C                    -0.218574      -0.038694
      5 S                    -0.025961      -0.020616
      6 C                     0.530475       0.140249
      7 H                     0.150855      -0.008993
      8 C                    -0.217969       0.022266
      9 H                     0.143485      -0.004860
     10 C                    -0.084150       0.186702
     11 C                    -0.165148       0.048054
     12 S                    -0.469953      -0.065644
     13 C                     0.169215       0.054118
     14 H                     0.139605      -0.004506
     15 C                     0.077853       0.179495
     16 C                    -0.150889       0.018505
     17 H                     0.127439      -0.009934
     18 C                     0.342944       0.152741
     19 S                     0.055060      -0.028250
     20 C                    -0.356724      -0.052074
     21 C                     0.080929       0.229681
     22 H                     0.161270       0.002317
     23 H                     0.244593      -0.011929
  --------------------------------------------------------
  Sum of atomic charges =     1.000000
  Sum of spin   charges =     1.000000

 -----------------------------------------------------------------
                    Cartesian Multipole Moments
 -----------------------------------------------------------------
    Charge (ESU x 10^10)
                 4.8032
    Dipole Moment (Debye)
         X      29.1300      Y      -1.4581      Z      -0.4494
       Tot      29.1700
    Quadrupole Moments (Debye-Ang)
        XX     159.9181     XY      -2.6483     YY     -86.8392
        XZ       0.1188     YZ       5.8336     ZZ    -109.8329
    Octopole Moments (Debye-Ang^2)
       XXX     780.9810    XXY      -0.0009    XYY    -526.7304
       YYY     127.7813    XXZ      19.5558    XYZ      36.2083
       YYZ       9.3802    XZZ    -659.1667    YZZ      48.8841
       ZZZ      47.6465
    Hexadecapole Moments (Debye-Ang^3)
      XXXX    -996.7994   XXXY      -3.4187   XXYY   -4249.2963
      XYYY     790.3905   YYYY    -890.6180   XXXZ     249.5717
      XXYZ     281.2035   XYYZ      60.6931   YYYZ     -71.6945
      XXZZ   -5206.3227   XYZZ     278.1015   YYZZ    -202.8449
      XZZZ     229.8363   YZZZ    -115.0852   ZZZZ    -196.4471
 -----------------------------------------------------------------
 Calculating analytic gradient of the SCF energy
 Gradient of SCF Energy
            1           2           3           4           5           6
    1  -0.0003938  -0.0002812  -0.0012274  -0.0005137   0.0021991   0.0003644
    2   0.0003645   0.0001573  -0.0011972   0.0003117  -0.0013789  -0.0014904
    3  -0.0000314   0.0000902   0.0000098   0.0000749  -0.0001887   0.0003997
            7           8           9          10          11          12
    1   0.0003319   0.0010866  -0.0009683  -0.0005058   0.0004706  -0.0022697
    2   0.0001470   0.0043238  -0.0000436  -0.0047215   0.0019635   0.0019583
    3  -0.0004045   0.0000366  -0.0001639  -0.0006472   0.0002330   0.0002865
           13          14          15          16          17          18
    1  -0.0006245   0.0004579   0.0022915  -0.0013807  -0.0002417  -0.0003698
    2   0.0004181  -0.0000597  -0.0004540  -0.0007424   0.0004519  -0.0002946
    3  -0.0017198   0.0005259   0.0035807  -0.0037399  -0.0003719   0.0018485
           19          20          21          22          23
    1  -0.0005498   0.0002946   0.0013180   0.0002290   0.0002828
    2   0.0010925  -0.0003523  -0.0002217  -0.0000767  -0.0001556
    3   0.0003705  -0.0001172  -0.0001375   0.0000411   0.0000246
 Max gradient component =       4.722E-03
 RMS gradient           =       1.302E-03
 Gradient time:  CPU 4.17 s  wall 4.18 s
 Geometry Optimization Parameters
   NAtoms,    NIC,     NZ,  NCons,   NDum,   NFix, NCnnct, MaxDiis
       23     166       0       1       0       0       0       0

 Cartesian Hessian Update
 Hessian Updated using BFGS Update


** CONSTRAINED OPTIMIZATION IN DELOCALIZED INTERNAL COORDINATES **
   Searching for a Minimum

   Optimization Cycle:   4

                       Coordinates (Angstroms)
     ATOM                X               Y               Z
      1  H        -0.1252677583   -0.5729576786   -0.1889635617
      2  H         1.0008453195   -2.9059521326   -0.6993349317
      3  C         0.9365251853   -0.7811762702   -0.2403979784
      4  C         1.5526570415   -1.9940453645   -0.5065637621
      5  S         2.0627521621    0.4918937582    0.0228389121
      6  C         2.9527121927   -1.8993164073   -0.4977348571
      7  H         3.6156667482   -2.7348912499   -0.6939109220
      8  C         3.4194592299   -0.6005745959   -0.2237468265
      9  H         4.5356938394    1.9937533767    0.2657334643
     10  C         4.7573388487   -0.1576540854   -0.1203863345
     11  C         5.2162948857    1.1592582325    0.1369984564
     12  S         6.1116216995   -1.2535208594   -0.2873897759
     13  C         6.5936431282    1.2654386866    0.1958725230
     14  H         7.1196716630    2.1936626480    0.3832126588
     15  C         7.2699348849    0.0372762416   -0.0132911497
     16  C         8.6706158818   -0.1674267047   -0.0562632952
     17  H         9.4382165503    1.7807571931    0.6017249058
     18  C         9.6637828660    0.7667650263    0.2925837232
     19  S         9.4110255677   -1.7003134448   -0.4991581479
     20  C        10.9665553849    0.2541104308    0.1935078669
     21  C        10.9881891711   -1.0669940416   -0.2233653829
     22  H        11.8642919896    0.8179847285    0.4167630271
     23  H        11.8546535182   -1.6957119074   -0.3872423219
   Point Group: c1    Number of degrees of freedom:    63


   Energy is  -1656.416957589

              Constraints and their Current Values
                                        Value     Constraint
   Dihedral:       13  15  16  18       10.000       10.000
 Hessian Updated using BFGS Update

 62 Hessian modes will be used to form the next step
  Hessian Eigenvalues:
     0.042786    0.045000    0.045000    0.045000    0.045000    0.045001
     0.045001    0.045001    0.045003    0.045003    0.045007    0.045011
     0.045012    0.045013    0.045022    0.045027    0.045045    0.045059
     0.045064    0.152769    0.159954    0.159969    0.159993    0.159999
     0.160014    0.160207    0.162764    0.166451    0.221496    0.222587
     0.229344    0.238045    0.241372    0.249670    0.250042    0.279774
     0.293822    0.322122    0.326429    0.327339    0.340001    0.340697
     0.340833    0.365513    0.365637    0.366093    0.366892    0.367222
     0.367564    0.370111    0.370375    0.400609    0.421843    0.435424
     0.435452    0.452973    0.462806    0.463767    0.480181    0.495497
     0.499596    0.569366

 Minimum Search - Taking Simple RFO Step
 Searching for Lamda that Minimizes Along All modes
 Value Taken    Lamda =  -0.00016341
 Step Taken.  Stepsize is  0.037580

                             Maximum     Tolerance    Cnvgd?
         Gradient           0.001798      0.000300      NO
         Displacement       0.012700      0.001200      NO
         Energy change     -0.001388      0.000001      NO


 New Cartesian Coordinates Obtained by Inverse Iteration

 Displacement from previous Coordinates is:  0.087201
 ----------------------------------------------------------------
             Standard Nuclear Orientation (Angstroms)
    I     Atom           X                Y                Z
 ----------------------------------------------------------------
    1      H      -0.1246800107    -0.5726614776    -0.2108773072
    2      H       1.0040600279    -2.9064776612    -0.7051709538
    3      C       0.9372214147    -0.7788829230    -0.2531180310
    4      C       1.5536836448    -1.9936925338    -0.5103799980
    5      S       2.0587565813     0.4947641079     0.0170884693
    6      C       2.9521266913    -1.9010672838    -0.4897361242
    7      H       3.6134772849    -2.7398978123    -0.6756044680
    8      C       3.4180315260    -0.6040733908    -0.2151603083
    9      H       4.5441189341     1.9968260622     0.2740917780
   10      C       4.7564037875    -0.1558750614    -0.1086683232
[...]
      2 H                     0.162725       0.001450
      3 C                     0.057408       0.220418
      4 C                    -0.216549      -0.037219
      5 S                    -0.023990      -0.019029
      6 C                     0.531657       0.138135
      7 H                     0.150015      -0.008884
      8 C                    -0.221884       0.023462
      9 H                     0.143284      -0.004699
     10 C                    -0.079591       0.187065
     11 C                    -0.143818       0.045550
     12 S                    -0.461154      -0.064460
     13 C                     0.165608       0.057286
     14 H                     0.139886      -0.004724
     15 C                     0.056792       0.176934
     16 C                    -0.162769       0.019530
     17 H                     0.129174      -0.009664
     18 C                     0.341797       0.150503
     19 S                     0.055494      -0.027669
     20 C                    -0.351432      -0.050623
     21 C                     0.080683       0.227481
     22 H                     0.161005       0.002238
     23 H                     0.243827      -0.011820
  --------------------------------------------------------
  Sum of atomic charges =     1.000000
  Sum of spin   charges =     1.000000

 -----------------------------------------------------------------
                    Cartesian Multipole Moments
 -----------------------------------------------------------------
    Charge (ESU x 10^10)
                 4.8032
    Dipole Moment (Debye)
         X      29.1160      Y      -1.4503      Z      -0.4710
       Tot      29.1559
    Quadrupole Moments (Debye-Ang)
        XX     159.7044     XY      -2.5829     YY     -86.7897
        XZ       0.0851     YZ       5.8226     ZZ    -109.8143
    Octopole Moments (Debye-Ang^2)
       XXX     778.2222    XXY       1.3393    XYY    -526.9176
       YYY     127.5804    XXZ      17.3778    XYZ      36.6721
       YYZ       9.7160    XZZ    -658.7718    YZZ      49.0107
       ZZZ      48.1596
    Hexadecapole Moments (Debye-Ang^3)
      XXXX   -1036.7363   XXXY      15.7059   XXYY   -4255.3354
      XYYY     790.6116   YYYY    -889.1893   XXXZ     217.5049
      XXYZ     289.5472   XYYZ      61.8544   YYYZ     -72.3914
      XXZZ   -5201.0429   XYZZ     278.4683   YYZZ    -203.0367
      XZZZ     233.3248   YZZZ    -115.2299   ZZZZ    -197.1181
 -----------------------------------------------------------------
 Calculating analytic gradient of the SCF energy
 Gradient of SCF Energy
            1           2           3           4           5           6
    1  -0.0000137  -0.0000010   0.0000219  -0.0000526  -0.0000162   0.0000300
    2  -0.0000017   0.0000095   0.0000121  -0.0000061   0.0000005   0.0000317
    3   0.0000058   0.0000038  -0.0000158  -0.0000087   0.0000123  -0.0000416
            7           8           9          10          11          12
    1   0.0000050   0.0000922  -0.0000146  -0.0000708  -0.0000874   0.0000827
    2  -0.0000053   0.0000208   0.0000134   0.0000467  -0.0000831   0.0000188
    3   0.0000157   0.0000636   0.0000064   0.0000064  -0.0000576   0.0000181
           13          14          15          16          17          18
    1   0.0000977   0.0000017  -0.0000857   0.0000575  -0.0000018  -0.0000662
    2   0.0001760   0.0000074  -0.0005540   0.0007063   0.0000116  -0.0003785
    3  -0.0010279  -0.0000121   0.0022435  -0.0022270   0.0000080   0.0009769
           19          20          21          22          23
    1   0.0000088   0.0000236  -0.0000215   0.0000009   0.0000094
    2   0.0000063  -0.0000012  -0.0000352   0.0000005   0.0000038
    3   0.0000175   0.0000098   0.0000064  -0.0000046   0.0000012
 Max gradient component =       2.243E-03
 RMS gradient           =       4.352E-04
 Gradient time:  CPU 4.15 s  wall 4.16 s
 Geometry Optimization Parameters
   NAtoms,    NIC,     NZ,  NCons,   NDum,   NFix, NCnnct, MaxDiis
       23     166       0       1       0       0       0       0

 Cartesian Hessian Update
 Hessian Updated using BFGS Update


** CONSTRAINED OPTIMIZATION IN DELOCALIZED INTERNAL COORDINATES **
   Searching for a Minimum

   Optimization Cycle:   9

                       Coordinates (Angstroms)
     ATOM                X               Y               Z
      1  H        -0.1251432570   -0.5619841872   -0.2446972879
      2  H         1.0002134529   -2.9034641822   -0.7041878700
      3  C         0.9368468078   -0.7709361047   -0.2726253943
      4  C         1.5507966363   -1.9910897529   -0.5104303471
      5  S         2.0590885061    0.5001935322    0.0016518301
      6  C         2.9498037123   -1.9037386569   -0.4719957329
      7  H         3.6092937389   -2.7489885701   -0.6347150754
      8  C         3.4180303108   -0.6075409674   -0.2027130575
      9  H         4.5464539644    1.9919839181    0.2854894143
     10  C         4.7565408056   -0.1608659621   -0.0980236235
     11  C         5.2185657311    1.1522469372    0.1516463959
     12  S         6.1145561994   -1.2635801839   -0.2713693678
     13  C         6.5963424236    1.2592701606    0.1964921945
     14  H         7.1206404801    2.1919142557    0.3632614848
     15  C         7.2692907811    0.0314257995   -0.0143022382
     16  C         8.6718900416   -0.1676180490   -0.0539600164
     17  H         9.4363929283    1.7716822594    0.6308197759
     18  C         9.6627458499    0.7657217869    0.2985454920
     19  S         9.4139470414   -1.6955006118   -0.5184047847
     20  C        10.9656063831    0.2582790459    0.1881418699
     21  C        10.9875300606   -1.0583206232   -0.2426218728
     22  H        11.8621255237    0.8227273097    0.4135507379
     23  H        11.8553218782   -1.6814515738   -0.4180662368
   Point Group: c1    Number of degrees of freedom:    63


   Energy is  -1656.417094978

              Constraints and their Current Values
                                        Value     Constraint
   Dihedral:       13  15  16  18       10.000       10.000
 Hessian Updated using BFGS Update

 62 Hessian modes will be used to form the next step
  Hessian Eigenvalues:
     0.010372    0.035796    0.045000    0.045000    0.045000    0.045001
     0.045001    0.045002    0.045003    0.045005    0.045008    0.045010
     0.045012    0.045013    0.045019    0.045029    0.045044    0.045059
     0.045706    0.151209    0.157997    0.159970    0.160023    0.160057
     0.160180    0.160347    0.161149    0.168137    0.219001    0.222789
     0.225338    0.239143    0.244689    0.249896    0.250477    0.279165
     0.292171    0.297558    0.325559    0.327175    0.334691    0.340358
     0.341122    0.365544    0.365668    0.366104    0.366954    0.367265
     0.368327    0.370185    0.372042    0.402275    0.430187    0.436122
     0.439898    0.462943    0.463818    0.474892    0.493542    0.495621
     0.509349    0.550780

 Minimum Search - Taking Simple RFO Step
 Searching for Lamda that Minimizes Along All modes
 Value Taken    Lamda =   0.00000000
 Step Taken.  Stepsize is  0.003446

                             Maximum     Tolerance    Cnvgd?
         Gradient           0.000060      0.000300     YES
         Displacement       0.002878      0.001200      NO
         Energy change     -0.000001      0.000001     YES

 Final energy is   -1656.41709497796     


 ******************************
 **  OPTIMIZATION CONVERGED  **
 ******************************

                       Coordinates (Angstroms)
     ATOM                X               Y               Z
      1  H        -0.1251432570   -0.5619841872   -0.2446972879
      2  H         1.0002134529   -2.9034641822   -0.7041878700
      3  C         0.9368468078   -0.7709361047   -0.2726253943
      4  C         1.5507966363   -1.9910897529   -0.5104303471
      5  S         2.0590885061    0.5001935322    0.0016518301
      6  C         2.9498037123   -1.9037386569   -0.4719957329
      7  H         3.6092937389   -2.7489885701   -0.6347150754
      8  C         3.4180303108   -0.6075409674   -0.2027130575
      9  H         4.5464539644    1.9919839181    0.2854894143
     10  C         4.7565408056   -0.1608659621   -0.0980236235
     11  C         5.2185657311    1.1522469372    0.1516463959
     12  S         6.1145561994   -1.2635801839   -0.2713693678
     13  C         6.5963424236    1.2592701606    0.1964921945
     14  H         7.1206404801    2.1919142557    0.3632614848
     15  C         7.2692907811    0.0314257995   -0.0143022382
     16  C         8.6718900416   -0.1676180490   -0.0539600164
     17  H         9.4363929283    1.7716822594    0.6308197759
     18  C         9.6627458499    0.7657217869    0.2985454920
     19  S         9.4139470414   -1.6955006118   -0.5184047847
     20  C        10.9656063831    0.2582790459    0.1881418699
     21  C        10.9875300606   -1.0583206232   -0.2426218728
     22  H        11.8621255237    0.8227273097    0.4135507379
     23  H        11.8553218782   -1.6814515738   -0.4180662368

Z-matrix Print:
$molecule
1 2
S 
C  1 1.754006
C  2 1.415943 1 110.436269
H  3 1.082832 2 122.662626 1 -179.218479 0
C  3 1.382655 2 113.680631 1 0.013083 0
H  5 1.083885 3 123.637301 2 -179.599195 0
C  5 1.414237 3 113.774515 2 -0.107088 0
C  7 1.414952 5 127.967710 3 179.907361 0
C  8 1.404236 7 128.389764 5 178.841768 0
H  9 1.084367 8 123.058886 7 0.193433 0
C  9 1.402258 8 113.292312 7 -179.717946 0
H  11 1.083102 9 124.370186 8 179.941300 0
C  11 1.386456 9 112.474387 8 0.001404 0
H  13 1.082711 11 127.489052 9 -179.908411 0
C  2 1.417207 1 122.939951 3 -178.597710 0
C  15 1.406122 2 126.667429 1 -171.636982 0
H  16 1.083327 15 123.094457 2 -1.140836 0
C  16 1.402545 15 113.247430 2 178.293586 0
H  18 1.083124 16 124.330085 15 179.945983 0
C  18 1.385450 16 112.519358 15 -0.163845 0
H  20 1.082652 18 127.591345 16 179.466565 0
S  13 1.717680 11 112.913159 9 -0.014041 0
S  20 1.719947 18 112.794734 16 -0.026141 0
$end

 
 --------------------------------------------------------------
 
                    Orbital Energies (a.u.)
 --------------------------------------------------------------
 
 Alpha MOs
 -- Occupied --
-89.074 -89.065 -89.064 -10.410 -10.409 -10.391 -10.390 -10.378
-10.378 -10.367 -10.365 -10.358 -10.357 -10.344 -10.344  -8.133
 -8.124  -8.124  -6.098  -6.094  -6.090  -6.088  -6.088  -6.084
 -6.084  -6.081  -6.081  -1.064  -1.041  -1.026  -0.944  -0.914
 -0.894  -0.892  -0.883  -0.841  -0.772  -0.749  -0.711  -0.707
 -0.689  -0.677  -0.674  -0.643  -0.608  -0.572  -0.571  -0.570
 -0.561  -0.550  -0.547  -0.545  -0.535  -0.521  -0.519  -0.512
 -0.494  -0.488  -0.456  -0.422  -0.407  -0.404  -0.395  -0.345
 -- Virtual --
 -0.232  -0.177  -0.157  -0.133  -0.127  -0.113  -0.111  -0.103
 -0.097  -0.092  -0.091  -0.082  -0.081  -0.079  -0.071  -0.067
 -0.064  -0.063  -0.061  -0.050  -0.045  -0.042  -0.039  -0.032
 -0.029  -0.022  -0.014  -0.011  -0.008  -0.003   0.002   0.005
  0.011   0.012   0.016   0.018   0.024   0.027   0.028   0.030
  0.033   0.036   0.042   0.045   0.047   0.048   0.050   0.054
  0.058   0.060   0.066   0.066   0.071   0.078   0.083   0.085
  0.087   0.091   0.094   0.098   0.099   0.108   0.112   0.118
  0.120   0.124   0.130   0.133   0.135   0.138   0.152   0.156
  0.161   0.166   0.173   0.178   0.184   0.191   0.195   0.200
  0.208   0.211   0.225   0.233   0.241   0.244   0.251   0.256
  0.262   0.268   0.276   0.288   0.310   0.325   0.345   0.362
  0.377   0.382   0.398   0.403   0.425   0.439   0.450   0.461
  0.471   0.473   0.497   0.507   0.508   0.513   0.515   0.522
  0.526   0.526   0.542   0.558   0.563   0.571   0.581   0.588
  0.591   0.592   0.597   0.608   0.624   0.632   0.643   0.651
  0.668   0.671   0.683   0.694   0.698   0.709   0.737   0.756
  0.792   0.794   0.802   0.805   0.818   0.820   0.827   0.836
  0.845   0.848   0.862   0.867   0.880   0.882   0.893   0.904
  0.914   0.923   0.937   0.941   0.960   0.965   0.974   0.984
  1.010   1.024   1.033   1.052   1.071   1.077   1.092   1.108
  1.124   1.137   1.145   1.183   1.191   1.199   1.201   1.208
  1.215   1.218   1.220   1.314   1.323   1.341   1.345   1.376
  1.396   1.421   1.444   1.467   1.523   1.529   1.555   1.562
  1.653   1.679   1.709   1.723   1.751   1.774   1.777   1.780
  1.793   1.816   1.820   1.853   1.858   1.872   1.903   1.919
  1.931   1.942   1.971   2.000   2.008   2.034   2.047   2.064
  2.084   2.087   2.116   2.122   2.157   2.187   2.226   2.231
  2.260   2.291   2.296   2.309   2.324   2.335   2.345   2.363
  2.380   2.390   2.395   2.409   2.429   2.442   2.468   2.492
  2.521   2.547   2.565   2.575   2.587   2.649   2.717   2.733
  2.769   2.795   2.817   2.844   2.986   3.043   3.087   3.142
  3.143   3.177   3.271   3.276   3.522   3.597   3.608   3.799
  3.840   3.875   4.112   4.119   4.151   4.174   4.180   4.196
  4.235   4.325   4.403   4.493   4.560   4.594
 
 Beta MOs
 -- Occupied --
-89.075 -89.065 -89.065 -10.407 -10.407 -10.390 -10.390 -10.375
-10.375 -10.366 -10.365 -10.356 -10.355 -10.345 -10.344  -8.134
 -8.124  -8.124  -6.098  -6.094  -6.090  -6.088  -6.088  -6.084
 -6.084  -6.081  -6.081  -1.059  -1.037  -1.022  -0.939  -0.912
 -0.891  -0.890  -0.881  -0.833  -0.768  -0.746  -0.708  -0.704
 -0.687  -0.675  -0.672  -0.641  -0.606  -0.570  -0.568  -0.562
 -0.559  -0.548  -0.546  -0.536  -0.534  -0.519  -0.511  -0.508
 -0.493  -0.487  -0.438  -0.419  -0.402  -0.400  -0.379
 -- Virtual --
 -0.293  -0.216  -0.166  -0.155  -0.127  -0.121  -0.112  -0.102
 -0.102  -0.096  -0.091  -0.091  -0.081  -0.078  -0.072  -0.070
 -0.064  -0.063  -0.060  -0.058  -0.050  -0.043  -0.041  -0.038
 -0.031  -0.028  -0.021  -0.014  -0.011  -0.006  -0.003   0.004
  0.005   0.011   0.012   0.016   0.019   0.025   0.028   0.029
  0.031   0.034   0.037   0.043   0.046   0.047   0.049   0.052
  0.054   0.060   0.061   0.066   0.067   0.072   0.079   0.084
  0.086   0.088   0.092   0.096   0.099   0.100   0.108   0.113
  0.119   0.121   0.125   0.131   0.134   0.136   0.139   0.153
  0.157   0.161   0.167   0.174   0.179   0.185   0.193   0.196
  0.201   0.209   0.212   0.226   0.235   0.242   0.245   0.252
  0.257   0.263   0.269   0.278   0.289   0.311   0.327   0.346
  0.361   0.378   0.382   0.399   0.404   0.426   0.440   0.452
  0.462   0.471   0.474   0.499   0.513   0.513   0.516   0.520
  0.524   0.528   0.532   0.543   0.559   0.566   0.572   0.584
  0.590   0.592   0.593   0.599   0.614   0.626   0.638   0.644
  0.652   0.671   0.672   0.687   0.697   0.701   0.712   0.738
  0.757   0.793   0.797   0.802   0.807   0.820   0.823   0.829
  0.837   0.846   0.849   0.863   0.869   0.881   0.884   0.894
  0.905   0.915   0.925   0.937   0.942   0.961   0.965   0.975
  0.985   1.011   1.027   1.036   1.055   1.074   1.081   1.095
  1.112   1.127   1.143   1.148   1.186   1.194   1.202   1.204
  1.210   1.220   1.221   1.226   1.316   1.329   1.345   1.347
  1.380   1.402   1.425   1.449   1.470   1.530   1.532   1.565
  1.571   1.658   1.680   1.710   1.727   1.752   1.775   1.781
  1.782   1.795   1.819   1.825   1.856   1.862   1.875   1.910
  1.922   1.935   1.943   1.978   2.007   2.014   2.040   2.051
  2.070   2.088   2.092   2.123   2.127   2.160   2.191   2.228
  2.233   2.264   2.293   2.301   2.314   2.326   2.339   2.347
  2.365   2.384   2.391   2.399   2.413   2.431   2.445   2.470
  2.495   2.525   2.548   2.569   2.579   2.588   2.652   2.719
  2.736   2.771   2.797   2.820   2.846   2.986   3.044   3.088
  3.143   3.143   3.178   3.272   3.277   3.523   3.598   3.609
  3.799   3.840   3.875   4.115   4.123   4.154   4.178   4.184
  4.198   4.240   4.329   4.408   4.496   4.562   4.597
 --------------------------------------------------------------
 
          Ground-State Mulliken Net Atomic Charges

     Atom                 Charge (a.u.)    Spin (a.u.)
  --------------------------------------------------------
      1 H                     0.241834      -0.011263
      2 H                     0.162725       0.001450
      3 C                     0.057408       0.220418
      4 C                    -0.216549      -0.037219
      5 S                    -0.023990      -0.019029
      6 C                     0.531657       0.138135
      7 H                     0.150015      -0.008884
      8 C                    -0.221884       0.023462
      9 H                     0.143284      -0.004699
     10 C                    -0.079591       0.187065
     11 C                    -0.143818       0.045550
     12 S                    -0.461154      -0.064460
     13 C                     0.165608       0.057286
     14 H                     0.139886      -0.004724
     15 C                     0.056792       0.176934
     16 C                    -0.162769       0.019530
     17 H                     0.129174      -0.009664
     18 C                     0.341797       0.150503
     19 S                     0.055494      -0.027669
     20 C                    -0.351432      -0.050623
     21 C                     0.080683       0.227481
     22 H                     0.161005       0.002238
     23 H                     0.243827      -0.011820
  --------------------------------------------------------
  Sum of atomic charges =     1.000000
  Sum of spin   charges =     1.000000

 -----------------------------------------------------------------
                    Cartesian Multipole Moments
 -----------------------------------------------------------------
    Charge (ESU x 10^10)
                 4.8032
    Dipole Moment (Debye)
         X      29.1160      Y      -1.4503      Z      -0.4710
       Tot      29.1559
    Quadrupole Moments (Debye-Ang)
        XX     159.7044     XY      -2.5829     YY     -86.7897
        XZ       0.0851     YZ       5.8226     ZZ    -109.8143
    Octopole Moments (Debye-Ang^2)
       XXX     778.2222    XXY       1.3393    XYY    -526.9176
       YYY     127.5804    XXZ      17.3778    XYZ      36.6721
       YYZ       9.7160    XZZ    -658.7718    YZZ      49.0107
       ZZZ      48.1596
    Hexadecapole Moments (Debye-Ang^3)
      XXXX   -1036.7363   XXXY      15.7059   XXYY   -4255.3354
      XYYY     790.6116   YYYY    -889.1893   XXXZ     217.5049
      XXYZ     289.5472   XYYZ      61.8544   YYYZ     -72.3914
      XXZZ   -5201.0429   XYZZ     278.4683   YYZZ    -203.0367
      XZZZ     233.3248   YZZZ    -115.2299   ZZZZ    -197.1181
 -----------------------------------------------------------------
Archival summary:
1\1\nid00475\OPT\ProcedureUnspecified\BasisUnspecified\3128(1+,2)\bwood\TueMay3011:02:042017TueMay3011:02:042017\0\\#,OPT,ProcedureUnspecified,BasisUnspecified,\\1,2\S\C,1,1.75401\C,2,1.41594,1,110.436\H,3,1.08283,2,122.663,1,-179.218,0\C,3,1.38265,2,113.681,1,0.013083,0\H,5,1.08388,3,123.637,2,-179.599,0\C,5,1.41424,3,113.775,2,-0.107088,0\C,7,1.41495,5,127.968,3,179.907,0\C,8,1.40424,7,128.39,5,178.842,0\H,9,1.08437,8,123.059,7,0.193433,0\C,9,1.40226,8,113.292,7,-179.718,0\H,11,1.0831,9,124.37,8,179.941,0\C,11,1.38646,9,112.474,8,0.00140436,0\H,13,1.08271,11,127.489,9,-179.908,0\C,2,1.41721,1,122.94,3,-178.598,0\C,15,1.40612,2,126.667,1,-171.637,0\H,16,1.08333,15,123.094,2,-1.14084,0\C,16,1.40255,15,113.247,2,178.294,0\H,18,1.08312,16,124.33,15,179.946,0\C,18,1.38545,16,112.519,15,-0.163845,0\H,20,1.08265,18,127.591,16,179.467,0\S,13,1.71768,11,112.913,9,-0.0140413,0\S,20,1.71995,18,112.795,16,-0.0261406,0\\\@

 Total job time:  199.07s(wall), 210.19s(cpu) 
 Tue May 30 11:02:04 2017

        *************************************************************
        *                                                           *
        *  Thank you very much for using Q-Chem.  Have a nice day.  *
        *                                                           *
        *************************************************************


0 sent ACK to 0 
now end server 0 ... 
