srun -N 1 --ntasks-per-node 22 --cpus-per-task 2 --cpu_bind=cores --nodelist nid00529 /global/project/projectdirs/jcesr/qchem/qc44/cnl_qc441/dist/exe/qcprog.cori.haswell.exe .pt_nn_cation_-160.0.in.33919.qcin.1 /dev/shm/eg_qchem/qchem33919/
Process 1 of 22 is on nid00529 - thread support 0
Process 2 of 22 is on nid00529 - thread support 0
Process 3 of 22 is on nid00529 - thread support 0
Process 4 of 22 is on nid00529 - thread support 0
Process 6 of 22 is on nid00529 - thread support 0
Process 21 of 22 is on nid00529 - thread support 0
Process 5 of 22 is on nid00529 - thread support 0
Process 0 of 22 is on nid00529 - thread support 0
initial socket setup ...start
initial socket setup ...done 
now start server 0 ... 
nid00529 10.128.2
Q-Chem Developer Version! Running on 10.128.2.*
                  Welcome to Q-Chem
     A Quantum Leap Into The Future Of Chemistry


 Q-Chem 4.4, Q-Chem, Inc., Pleasanton, CA (2016)

 Y. Shao,  Z. Gan,  E. Epifanovsky,  A. T. B. Gilbert,  M. Wormit,  
 J. Kussmann,  A. W. Lange,  A. Behn,  J. Deng,  X. Feng,  D. Ghosh,  
 M. Goldey,  P. R. Horn,  L. D. Jacobson,  I. Kaliman,  F. Rob,  
 R. Z. Khaliullin,  T. Kus,  A. Landau,  J. Liu,  E. I. Proynov,  Y. M. Rhee,  
 R. M. Richard,  M. A. Rohrdanz,  R. P. Steele,  E. J. Sundstrom,  
 H. L. Woodcock III,  P. M. Zimmerman,  D. Zuev,  B. Albrecht,  E. Alguire,  
 B. Austin,  S. A. Baeppler,  G. J. O. Beran,  Y. A. Bernard,  
 E. J. Berquist,  K. Brandhorst,  K. B. Bravaya,  S. T. Brown,  D. Casanova,  
 C.-M. Chang,  Y. Chen,  S. H. Chien,  K. D. Closser,  M. P. Coons,  
 D. L. Crittenden,  S. Dasgupta,  M. Diedenhofen,  R. A. DiStasio Jr.,  
 H. Do,  A. D. Dutoi,  R. G. Edgar,  P.-T. Fang,  S. Fatehi,  Q. Feng,  
 L. Fusti-Molnar,  A. Ghysels,  A. Golubeva-Zadorozhnaya,  J. Gomes,  
 A. Gunina,  M. W. D. Hanson-Heine,  P. H. P. Harbach,  A. W. Hauser,  
 J. E. Herr,  E. G. Hohenstein,  Z. C. Holden,  K. Hui,  T.-C. Jagau,  H. Ji,  
 B. Kaduk,  K. Khistyaev,  Jaehoon Kim,  Jihan Kim,  R. A. King,  
 P. Klunzinger,  K. Koh,  D. Kosenkov,  T. Kowalczyk,  C. M. Krauter,  
 A. Kunitsa,  K. U. Lao,  A. Laurent,  K. V. Lawler,  J. Lee,  D. Lefrancois,  
 S. Lehtola,  S. V. Levchenko,  C. Y. Lin,  Y.-S. Lin,  F. Liu,  E. Livshits,  
 R. C. Lochan,  A. Luenser,  P. Manohar,  S. F. Manzer,  S.-P. Mao,  Y. Mao,  
 N. Mardirossian,  A. V. Marenich,  L. A. Martinez-Martinez,  S. A. Maurer,  
 N. J. Mayhall,  J.-M. Mewes,  A. F. Morrison,  K. Nanda,  T. S. Nguyen-Beck,  
 C. M. Oana,  R. Olivares-Amaya,  D. P. O'Neill,  J. A. Parkhill,  
 T. M. Perrine,  R. Peverati,  P. A. Pieniazek,  F. Plasser,  A. Prociuk,  
 D. R. Rehn,  E. Rosta,  N. J. Russ,  N. Sergueev,  S. M. Sharada,  
 S. Sharma,  D. W. Small,  A. Sodt,  T. Stauch,  T. Stein,  D. Stuck,  
 Y.-C. Su,  A. J. W. Thom,  T. Tsuchimochi,  L. Vogt,  O. Vydrov,  T. Wang,  
 M. A. Watson,  J. Wenzel,  A. White,  C. F. Williams,  V. Vanovschi,  
 K. Yao,  S. Yeganeh,  S. R. Yost,  Z.-Q. You,  I. Y. Zhang,  X. Zhang,  
 Y. Zhao,  B. R. Brooks,  G. K. L. Chan,  D. M. Chipman,  C. J. Cramer,  
 W. A. Goddard III,  M. S. Gordon,  W. J. Hehre,  A. Klamt,  
 H. F. Schaefer III,  M. W. Schmidt,  C. D. Sherrill,  D. G. Truhlar,  
 A. Warshel,  X. Xu,  A. Aspuru-Guzik,  R. Baer,  A. T. Bell,  N. A. Besley,  
 J.-D. Chai,  A. Dreuw,  B. D. Dunietz,  T. R. Furlani,  S. R. Gwaltney,  
 C.-P. Hsu,  Y. Jung,  J. Kong,  D. S. Lambrecht,  W. Liang,  C. Ochsenfeld,  
 V. A. Rassolov,  L. V. Slipchenko,  J. E. Subotnik,  T. Van Voorhis,  
 J. M. Herbert,  A. I. Krylov,  P. M. W. Gill,  M. Head-Gordon

 Contributors to earlier versions of Q-Chem not listed above: 
 R. D. Adamson,  J. Baker,  E. F. C. Byrd,  A. K. Chakraborty,  C.-L. Cheng,  
 H. Dachsel,  R. J. Doerksen,  G. Hawkins,  A. Heyden,  S. Hirata,  
 G. Kedziora,  F. J. Keil,  C. Kelley,  P. P. Korambath,  W. Kurlancheek,  
 A. M. Lee,  M. S. Lee,  D. Liotard,  I. Lotan,  P. E. Maslen,  N. Nair,  
 D. Neuhauser,  R. Olson,  B. Peters,  J. Ritchie,  N. E. Schultz,  
 N. Shenvi,  A. C. Simmonett,  K. S. Thanthiriwatte,  Q. Wu,  W. Zhang

 Please cite Q-Chem as follows:
 Y. Shao et al., Mol. Phys. 113, 184-215 (2015)
 DOI: 10.1080/00268976.2014.952696

 Q-Chem 4.4.2 for Intel X86 EM64T Linux

 Parts of Q-Chem use Armadillo 5.200.1 (Boston Tea Smuggler).
 http://arma.sourceforge.net/

 Q-Chem begins on Tue May 30 10:58:50 2017  

Host: nid00444
0

     Scratch files written to /dev/shm/eg_qchem/qchem33919.0//
 Parallel job on  22  processors

Checking the input file for inconsistencies... 	...done.

--------------------------------------------------------------
User input:
--------------------------------------------------------------
$molecule
 1  2
 H           0.00000000        0.00000000        0.00000000
 H           0.66366000       -2.46828000       -0.59127000
 C           0.99103000       -0.39106000       -0.11652000
 C           1.36812000       -1.67442000       -0.42485000
 S           2.34669000        0.62586000        0.08638000
 C           2.76167000       -1.82175000       -0.50822000
 H           3.26291000       -2.73877000       -0.76199000
 C           3.44671000       -0.65043000       -0.26057000
 H           4.55645000        1.43902671        0.15704385
 C           4.88382000       -0.65043000       -0.26057000
 C           5.26091000        0.64090194        0.01245390
 S           6.23948000       -1.67253113       -0.43550939
 C           6.65446000        0.79046248        0.09175311
 H           7.15570000        1.71409653        0.32028213
 C           7.33950000       -0.38720773       -0.12368600
 C           8.77661000       -0.38720773       -0.12368600
 H           8.96041000       -2.26918009       -1.15846348
 C           9.46165000       -1.42017150       -0.72891963
 S           9.87663000        0.79022504        0.47876065
 C          10.85520000       -1.25509590       -0.69141296
 C          11.23229000       -0.09842839       -0.05564587
 H          11.55966000       -1.95422587       -1.10266251
 H          12.22332000        0.26921640        0.12139283
$end


$rem
         jobtype = opt
        exchange = b3lyp
           basis = 6-31++g**
  max_scf_cycles = 150
      mem_static = 281
       mem_total = 2818
      sym_ignore = true
        symmetry = false
          thresh = 12
$end


$opt
CONSTRAINT
tors 13 15 16 18 -160.0
ENDCONSTRAINT
$end

--------------------------------------------------------------
 ----------------------------------------------------------------
             Standard Nuclear Orientation (Angstroms)
    I     Atom           X                Y                Z
 ----------------------------------------------------------------
    1      H       0.0000000000     0.0000000000     0.0000000000
    2      H       0.6636600000    -2.4682800000    -0.5912700000
    3      C       0.9910300000    -0.3910600000    -0.1165200000
    4      C       1.3681200000    -1.6744200000    -0.4248500000
    5      S       2.3466900000     0.6258600000     0.0863800000
    6      C       2.7616700000    -1.8217500000    -0.5082200000
    7      H       3.2629100000    -2.7387700000    -0.7619900000
    8      C       3.4467100000    -0.6504300000    -0.2605700000
    9      H       4.5564500000     1.4390267100     0.1570438500
   10      C       4.8838200000    -0.6504300000    -0.2605700000
   11      C       5.2609100000     0.6409019400     0.0124539000
   12      S       6.2394800000    -1.6725311300    -0.4355093900
   13      C       6.6544600000     0.7904624800     0.0917531100
   14      H       7.1557000000     1.7140965300     0.3202821300
   15      C       7.3395000000    -0.3872077300    -0.1236860000
   16      C       8.7766100000    -0.3872077300    -0.1236860000
   17      H       8.9604100000    -2.2691800900    -1.1584634800
   18      C       9.4616500000    -1.4201715000    -0.7289196300
   19      S       9.8766300000     0.7902250400     0.4787606500
   20      C      10.8552000000    -1.2550959000    -0.6914129600
   21      C      11.2322900000    -0.0984283900    -0.0556458700
   22      H      11.5596600000    -1.9542258700    -1.1026625100
   23      H      12.2233200000     0.2692164000     0.1213928300
 ----------------------------------------------------------------
 Nuclear Repulsion Energy =  1186.3163450275 hartrees
 There are       64 alpha and       63 beta electrons
 Requested basis set is 6-31++G(d,p)
 There are 110 shells and 345 basis functions

 Total QAlloc Memory Limit   2818 MB
 Mega-Array Size       275 MB
 MEM_STATIC part       281 MB
 A cutoff of  1.0D-12 yielded   4722 shell pairs
 There are     48124 function pairs

 Q-Chem warning in module /project/projectdirs/jcesr/qchem/qc44/cnl_qc441/compile/cori/qc_src/libqints/qchem/aobasis.C, line 68:

 Using reconstructed effective core potential

 
 -------------------------------------------------------
 OpenMP Integral Computing Module                       
 Release: version 1.0, May 2013, Q-Chem Inc. Pittsburgh 
 -------------------------------------------------------
 Integral Job Info:
 Integral job number is                      11
 Integral operator is                         1
 short-range coefficients                     0
 long-range coefficients              100000000
 Omega coefficients                           0
 if combine SR and LR in K                    0
 Integral screening is                        0
 Integral computing path is                   2
 max size of driver memory is            800000
 size of driver memory is                593474
 size of scratch memory is             15166112
 max col of scratch BK array               1296
 max len of scratch array in speh3          155
 max len of scratch index in speh4           18
 max int batch size is                      520
 min int batch size is                       52
 fixed nKL is                                52
 max L of basis functions is                  2
 order of int derivative is                   0
 number of shells is                        110
 number of basis is                         345
 number of cartesian basis is               345
 number of contracted shell pairs          4722
 number of primitive shell pairs          14816
 maxK2 (contraction) of shell pair           36
 max number of K2 of shell pair               1
 max number of CS2 of shell pair            511
 max number of PS2 of shell pair           3066
 mem total for path MDJ                  101288
 -------------------------------------------------------
 Smallest overlap matrix eigenvalue = 7.59E-08
 Linear dependence detected in AO basis
 Number of orthogonalized atomic orbitals = 342
 Maximum deviation from orthogonality = 9.138E-11

 Scale SEOQF with 1.000000e-02/1.000000e-01/1.000000e-01

 Standard Electronic Orientation quadrupole field applied
 Nucleus-field energy     =     0.0000000315 hartrees
 Guess from superposition of atomic densities
 Warning:  Energy on first SCF cycle will be non-variational
 An unrestricted hybrid HF-DFT SCF calculation will be
 performed using Pulay DIIS extrapolation
 Exchange:     0.2000 Hartree-Fock + 0.0800 Slater + 0.7200 B88
 Correlation:  0.1900 VWN1RPA + 0.8100 LYP
 Using SG-1 standard quadrature grid
 SCF converges when DIIS error is below 1.0E-08
 Inaccurate integrated density:
   Number of electrons =   127
   Numerical integral  =   127.999701609305
   Relative error      =     0.7871666215 %
 ---------------------------------------
  Cycle       Energy         DIIS Error
 ---------------------------------------
    1   -1660.7349669717      3.84E-02
    2   -1656.1498005362      3.64E-03
    3   -1655.7996857707      5.71E-03
    4   -1656.3474932451      1.14E-03
    5   -1656.3644356900      5.89E-04
    6   -1656.3702730561      1.83E-04
    7   -1656.3708328505      7.70E-05
    8   -1656.3709665551      2.11E-05
    9   -1656.3709874572      6.44E-06
   10   -1656.3710011915      3.64E-06
   11   -1656.3710082496      2.67E-06
   12   -1656.3710126683      1.04E-06
   13   -1656.3710139149      6.24E-07
   14   -1656.3710139901      2.80E-07
   15   -1656.3710140124      6.36E-08
   16   -1656.3710140139      4.80E-08
   17   -1656.3710140123      1.53E-08
   18   -1656.3710140127      9.74E-09 Convergence criterion met
 ---------------------------------------
 <S^2> = 0.7661
 SCF time:  CPU 24.92 s  wall 23.32 s
 SCF   energy in the final basis set = -1656.3710140127
 Total energy in the final basis set = -1656.3710140127
 
 --------------------------------------------------------------
 
                    Orbital Energies (a.u.)
 --------------------------------------------------------------
 
 Alpha MOs
 -- Occupied --
-89.087 -89.067 -89.064 -10.406 -10.404 -10.390 -10.386 -10.376
-10.373 -10.358 -10.356 -10.349 -10.349 -10.341 -10.338  -8.146
 -8.127  -8.124  -6.111  -6.107  -6.102  -6.091  -6.088  -6.087
 -6.084  -6.084  -6.081  -1.080  -1.052  -1.039  -0.956  -0.916
 -0.900  -0.895  -0.887  -0.850  -0.774  -0.750  -0.715  -0.699
 -0.690  -0.684  -0.676  -0.657  -0.606  -0.583  -0.580  -0.571
 -0.565  -0.552  -0.551  -0.547  -0.532  -0.526  -0.522  -0.506
 -0.492  -0.490  -0.460  -0.423  -0.407  -0.404  -0.398  -0.353
 -- Virtual --
 -0.222  -0.171  -0.141  -0.137  -0.125  -0.113  -0.112  -0.107
 -0.096  -0.095  -0.092  -0.085  -0.083  -0.080  -0.077  -0.075
 -0.068  -0.065  -0.064  -0.052  -0.046  -0.044  -0.038  -0.034
 -0.027  -0.024  -0.019  -0.009  -0.006   0.000   0.004   0.007
  0.009   0.013   0.015   0.020   0.025   0.029   0.030   0.035
  0.037   0.039   0.041   0.044   0.046   0.048   0.051   0.054
  0.057   0.060   0.067   0.069   0.070   0.075   0.078   0.081
  0.087   0.094   0.096   0.097   0.109   0.115   0.118   0.119
  0.121   0.123   0.129   0.133   0.144   0.144   0.150   0.152
  0.160   0.165   0.169   0.171   0.178   0.185   0.192   0.204
  0.207   0.217   0.226   0.238   0.239   0.241   0.250   0.252
  0.263   0.267   0.271   0.295   0.305   0.327   0.349   0.363
  0.376   0.379   0.388   0.404   0.423   0.441   0.463   0.466
  0.484   0.489   0.497   0.503   0.506   0.510   0.512   0.517
  0.523   0.525   0.539   0.566   0.574   0.579   0.586   0.593
  0.598   0.599   0.604   0.614   0.631   0.647   0.651   0.662
  0.665   0.667   0.673   0.687   0.693   0.714   0.743   0.751
  0.794   0.802   0.805   0.812   0.814   0.823   0.827   0.837
  0.842   0.856   0.857   0.868   0.878   0.891   0.895   0.908
  0.922   0.931   0.939   0.951   0.970   0.975   0.978   0.989
  1.006   1.023   1.034   1.045   1.057   1.092   1.112   1.120
  1.132   1.152   1.158   1.183   1.193   1.197   1.204   1.215
  1.219   1.224   1.239   1.265   1.279   1.288   1.313   1.338
  1.347   1.422   1.468   1.487   1.511   1.559   1.563   1.573
  1.674   1.694   1.716   1.737   1.763   1.775   1.785   1.793
  1.816   1.838   1.846   1.859   1.881   1.906   1.920   1.942
  1.952   1.960   1.992   2.020   2.049   2.056   2.058   2.078
  2.094   2.109   2.133   2.154   2.191   2.194   2.235   2.240
  2.278   2.310   2.312   2.327   2.332   2.340   2.365   2.390
  2.392   2.398   2.419   2.449   2.454   2.456   2.486   2.515
  2.537   2.549   2.578   2.584   2.591   2.689   2.704   2.719
  2.763   2.781   2.817   2.833   3.024   3.060   3.099   3.162
  3.163   3.201   3.297   3.298   3.562   3.625   3.630   3.821
  3.849   3.855   4.107   4.122   4.165   4.175   4.184   4.192
  4.230   4.323   4.411   4.513   4.565   4.581
 
 Beta MOs
 -- Occupied --
-89.087 -89.067 -89.064 -10.403 -10.401 -10.389 -10.386 -10.373
-10.370 -10.357 -10.355 -10.348 -10.347 -10.341 -10.339  -8.146
 -8.127  -8.124  -6.111  -6.107  -6.103  -6.092  -6.088  -6.087
 -6.084  -6.084  -6.081  -1.076  -1.049  -1.035  -0.950  -0.914
 -0.896  -0.893  -0.886  -0.843  -0.771  -0.747  -0.713  -0.696
 -0.688  -0.681  -0.675  -0.656  -0.604  -0.579  -0.571  -0.570
 -0.563  -0.549  -0.545  -0.542  -0.531  -0.521  -0.516  -0.505
 -0.491  -0.489  -0.441  -0.421  -0.402  -0.400  -0.380
 -- Virtual --
 -0.300  -0.207  -0.160  -0.140  -0.134  -0.117  -0.112  -0.110
 -0.105  -0.094  -0.088  -0.086  -0.082  -0.081  -0.077  -0.074
 -0.073  -0.067  -0.064  -0.063  -0.051  -0.045  -0.044  -0.037
 -0.034  -0.026  -0.022  -0.018  -0.008  -0.005   0.002   0.005
  0.007   0.009   0.014   0.016   0.020   0.026   0.030   0.031
  0.035   0.038   0.040   0.042   0.044   0.047   0.049   0.052
  0.055   0.058   0.061   0.068   0.069   0.071   0.076   0.079
  0.082   0.088   0.094   0.097   0.098   0.110   0.116   0.118
  0.120   0.121   0.123   0.131   0.133   0.145   0.145   0.151
  0.154   0.161   0.166   0.169   0.171   0.179   0.187   0.194
  0.205   0.208   0.218   0.227   0.239   0.240   0.242   0.251
  0.253   0.265   0.268   0.272   0.296   0.306   0.328   0.351
  0.364   0.377   0.379   0.388   0.406   0.424   0.442   0.464
  0.467   0.485   0.492   0.501   0.507   0.508   0.513   0.515
  0.522   0.526   0.531   0.541   0.568   0.577   0.581   0.590
  0.595   0.600   0.600   0.605   0.619   0.636   0.648   0.653
  0.664   0.668   0.669   0.678   0.689   0.697   0.718   0.744
  0.752   0.795   0.804   0.806   0.814   0.816   0.826   0.831
  0.839   0.843   0.858   0.858   0.869   0.879   0.892   0.897
  0.909   0.923   0.933   0.941   0.952   0.971   0.977   0.979
  0.990   1.008   1.025   1.038   1.048   1.060   1.095   1.115
  1.124   1.135   1.156   1.161   1.187   1.195   1.201   1.209
  1.220   1.225   1.227   1.242   1.268   1.284   1.292   1.319
  1.342   1.350   1.425   1.471   1.494   1.518   1.566   1.571
  1.580   1.676   1.695   1.721   1.740   1.765   1.776   1.786
  1.794   1.821   1.842   1.849   1.862   1.885   1.910   1.924
  1.945   1.957   1.963   1.998   2.025   2.054   2.062   2.066
  2.085   2.099   2.115   2.135   2.159   2.195   2.199   2.238
  2.242   2.284   2.312   2.315   2.330   2.334   2.345   2.368
  2.392   2.396   2.403   2.420   2.452   2.457   2.459   2.489
  2.517   2.541   2.551   2.581   2.587   2.593   2.692   2.707
  2.722   2.765   2.783   2.819   2.836   3.025   3.060   3.100
  3.163   3.164   3.201   3.298   3.299   3.563   3.626   3.631
  3.821   3.849   3.855   4.111   4.126   4.170   4.178   4.186
  4.194   4.235   4.327   4.415   4.516   4.568   4.584
 --------------------------------------------------------------
 
          Ground-State Mulliken Net Atomic Charges

     Atom                 Charge (a.u.)    Spin (a.u.)
  --------------------------------------------------------
      1 H                     0.249414      -0.011367
      2 H                     0.154541       0.001432
      3 C                     0.087215       0.230084
      4 C                    -0.355903      -0.042365
      5 S                    -0.080457      -0.028207
      6 C                     0.535892       0.144580
      7 H                     0.139384      -0.008947
      8 C                     0.177390       0.039815
      9 H                     0.060215      -0.006047
     10 C                    -0.114482       0.170964
     11 C                    -0.523384       0.065066
     12 S                     0.046151      -0.044735
     13 C                    -0.099379       0.029601
     14 H                     0.135436      -0.002843
     15 C                     0.021280       0.178164
     16 C                    -0.133294       0.036119
     17 H                     0.132114      -0.008462
     18 C                     0.387351       0.123776
     19 S                     0.050852      -0.025085
     20 C                    -0.319134      -0.037043
     21 C                     0.054256       0.204644
     22 H                     0.155407       0.001641
     23 H                     0.239134      -0.010784
  --------------------------------------------------------
  Sum of atomic charges =     1.000000
  Sum of spin   charges =     1.000000

 -----------------------------------------------------------------
                    Cartesian Multipole Moments
 -----------------------------------------------------------------
    Charge (ESU x 10^10)
                 4.8032
    Dipole Moment (Debye)
         X      28.9966      Y      -2.6257      Z      -1.1638
       Tot      29.1385
    Quadrupole Moments (Debye-Ang)
        XX     159.3291     XY     -13.1477     YY     -90.2853
        XZ      -7.5904     YZ       6.6197     ZZ    -107.9876
    Octopole Moments (Debye-Ang^2)
       XXX     764.1956    XXY     -66.0538    XYY    -561.5036
       YYY     110.5290    XXZ     -50.3431    XYZ      45.8088
       YYZ       5.3833    XZZ    -654.4660    YZZ      42.9333
       ZZZ      52.4311
    Hexadecapole Moments (Debye-Ang^3)
      XXXX   -1442.8962   XXXY    -367.0185   XXYY   -4621.4215
      XYYY     599.5040   YYYY    -802.4221   XXXZ    -380.8569
      XXYZ     376.7031   XYYZ      21.2624   YYYZ     -85.6962
      XXZZ   -5227.4621   XYZZ     213.2922   YYZZ    -180.3028
      XZZZ     285.9675   YZZZ    -126.0705   ZZZZ    -232.6993
 -----------------------------------------------------------------
 Calculating analytic gradient of the SCF energy
 Gradient of SCF Energy
            1           2           3           4           5           6
    1   0.0068503   0.0045573  -0.0046850  -0.0001558   0.0028003   0.0237316
    2  -0.0034445   0.0048251   0.0018576   0.0121807  -0.0266518   0.0108780
    3  -0.0011482   0.0010445  -0.0000990   0.0038431  -0.0057189   0.0033996
            7           8           9          10          11          12
    1  -0.0015320  -0.0213302  -0.0021720   0.0452565  -0.0644361   0.0017952
    2   0.0061586   0.0628105  -0.0059395  -0.0474056  -0.0335272   0.0414049
    3   0.0005655   0.0117694  -0.0004999  -0.0078912  -0.0088271   0.0084080
           13          14          15          16          17          18
    1   0.0330940  -0.0022109  -0.0269529   0.0263467   0.0009095  -0.0202199
    2  -0.0199115  -0.0057501  -0.0315110   0.0296675   0.0050028   0.0124513
    3  -0.0086652   0.0001252  -0.0083725   0.0123279   0.0042861   0.0013542
           19          20          21          22          23
    1   0.0040164   0.0004962   0.0048692  -0.0042532  -0.0067751
    2  -0.0248405   0.0099429   0.0007586   0.0041741  -0.0031310
    3  -0.0137313   0.0049300   0.0017154   0.0029227  -0.0017383
 Max gradient component =       6.444E-02
 RMS gradient           =       1.891E-02
 Gradient time:  CPU 4.28 s  wall 4.25 s
 Geometry Optimization Parameters
   NAtoms,    NIC,     NZ,  NCons,   NDum,   NFix, NCnnct, MaxDiis
       23     166       0       1       0       0       0       0


** CONSTRAINED OPTIMIZATION IN DELOCALIZED INTERNAL COORDINATES **
   Searching for a Minimum

   Optimization Cycle:   1

                       Coordinates (Angstroms)
     ATOM                X               Y               Z
      1  H         0.0000000000    0.0000000000    0.0000000000
      2  H         0.6636600000   -2.4682800000   -0.5912700000
      3  C         0.9910300000   -0.3910600000   -0.1165200000
      4  C         1.3681200000   -1.6744200000   -0.4248500000
      5  S         2.3466900000    0.6258600000    0.0863800000
      6  C         2.7616700000   -1.8217500000   -0.5082200000
      7  H         3.2629100000   -2.7387700000   -0.7619900000
      8  C         3.4467100000   -0.6504300000   -0.2605700000
      9  H         4.5564500000    1.4390267100    0.1570438500
     10  C         4.8838200000   -0.6504300000   -0.2605700000
     11  C         5.2609100000    0.6409019400    0.0124539000
     12  S         6.2394800000   -1.6725311300   -0.4355093900
     13  C         6.6544600000    0.7904624800    0.0917531100
     14  H         7.1557000000    1.7140965300    0.3202821300
     15  C         7.3395000000   -0.3872077300   -0.1236860000
     16  C         8.7766100000   -0.3872077300   -0.1236860000
     17  H         8.9604100000   -2.2691800900   -1.1584634800
     18  C         9.4616500000   -1.4201715000   -0.7289196300
     19  S         9.8766300000    0.7902250400    0.4787606500
     20  C        10.8552000000   -1.2550959000   -0.6914129600
     21  C        11.2322900000   -0.0984283900   -0.0556458700
     22  H        11.5596600000   -1.9542258700   -1.1026625100
     23  H        12.2233200000    0.2692164000    0.1213928300
   Point Group: c1    Number of degrees of freedom:    63


   Energy is  -1656.371014013

              Constraints and their Current Values
                                        Value     Constraint
   Dihedral:       13  15  16  18     -160.000     -160.000

 Attempting to Generate Delocalized Internal Coordinates

 62 Hessian modes will be used to form the next step
  Hessian Eigenvalues:
     0.045000    0.045000    0.045000    0.045000    0.045000    0.045000
     0.045001    0.045001    0.045001    0.045002    0.045003    0.045003
     0.045011    0.045012    0.045012    0.045025    0.045032    0.045058
     0.045059    0.159944    0.159945    0.159945    0.159992    0.159993
     0.159993    0.160000    0.160000    0.221307    0.221308    0.227041
     0.237995    0.238010    0.245411    0.249662    0.249670    0.249670
     0.249825    0.326317    0.326319    0.326962    0.340043    0.340044
     0.340629    0.365512    0.365512    0.365513    0.366888    0.366889
     0.366889    0.370099    0.370100    0.399845    0.399845    0.435419
     0.435419    0.435422    0.463117    0.463122    0.464282    0.495500
     0.495500    0.495533

 Minimum Search - Taking Simple RFO Step
 Searching for Lamda that Minimizes Along All modes
 Value Taken    Lamda =  -0.06805553
 Calculated Step too Large.  Step scaled by  0.676435
 Step Taken.  Stepsize is  0.300000

                             Maximum     Tolerance    Cnvgd?
         Gradient           0.080517      0.000300      NO
         Displacement       0.148272      0.001200      NO
         Energy change     *********      0.000001      NO


 New Cartesian Coordinates Obtained by Inverse Iteration

 Displacement from previous Coordinates is:  1.659766
 ----------------------------------------------------------------
             Standard Nuclear Orientation (Angstroms)
    I     Atom           X                Y                Z
 ----------------------------------------------------------------
    1      H      -0.0975884796    -0.2678061965    -0.0518596108
    2      H       0.7961034019    -2.6759631239    -0.6429214255
    3      C       0.9332186715    -0.5673873557    -0.1512827382
    4      C       1.4262468545    -1.8184054175    -0.4596390190
    5      S       2.1794275680     0.5885584777     0.0846079419
    6      C       2.8291880205    -1.8314920911    -0.5136961988
    7      H       3.4158522823    -2.7047370366    -0.7600482646
    8      C       3.4127655622    -0.5883472816    -0.2451821226
    9      H       4.6634773006     1.7326446523     0.2193728859
   10      C       4.8466982240    -0.4138331997    -0.2100104401
   11      C       5.3135755236     0.8879465530     0.0662699885
   12      S       6.1742543381    -1.4923252034    -0.3968569495
   13      C       6.7048936412     0.9806100856     0.1306831623
   14      H       7.2495386251     1.8875157147     0.3498344020
   15      C       7.3382032867    -0.2430568505    -0.0967794335
   16      C       8.7638382706    -0.3836450216    -0.1321457200
   17      H       8.8532154121    -2.2949691807    -1.1768429560
   18      C       9.3976601216    -1.4683311450    -0.7436614291
   19      S       9.9312274191     0.7452706140     0.4713123705
   20      C      10.7985350067    -1.3785217003    -0.7119800028
   21      C      11.2308672284    -0.2322877323    -0.0762390149
   22      H      11.4694420929    -2.1161134271    -1.1264174809
   23      H      12.2462396280     0.0852766264     0.0975726852
 ----------------------------------------------------------------
 Nuclear Repulsion Energy =  1177.1440177087 hartrees
 There are       64 alpha and       63 beta electrons
 Applying Cartesian multipole field
    Component          Value
    ---------          -----
     (2,0,0)        1.00000E-12
     (0,2,0)        2.00000E-11
     (0,0,2)       -3.00000E-11
 Nucleus-field energy     =     0.0000000315 hartrees
 Requested basis set is 6-31++G(d,p)
 There are 110 shells and 345 basis functions
 A cutoff of  1.0D-12 yielded   4711 shell pairs
 There are     47986 function pairs

 Q-Chem warning in module /project/projectdirs/jcesr/qchem/qc44/cnl_qc441/compile/cori/qc_src/libqints/qchem/aobasis.C, line 68:

 Using reconstructed effective core potential

 Smallest overlap matrix eigenvalue = 7.04E-08
 Linear dependence detected in AO basis
 Number of orthogonalized atomic orbitals = 342
 Maximum deviation from orthogonality = 8.061E-11
 Guess MOs from SCF MO coefficient file
 Reading MOs from coefficient file
 Reading MOs from coefficient file
 An unrestricted hybrid HF-DFT SCF calculation will be
 performed using Pulay DIIS extrapolation
 Exchange:     0.2000 Hartree-Fock + 0.0800 Slater + 0.7200 B88
 Correlation:  0.1900 VWN1RPA + 0.8100 LYP
 Using SG-1 standard quadrature grid
 SCF converges when DIIS error is below 1.0E-08
 Geometry optimization detected.  Setting ReadMinima to 0
 Setting SaveMinima to 0
 Inaccurate integrated density:
   Number of electrons =   127
   Numerical integral  =   126.853229225255
   Relative error      =    -0.1155675392 %
 ---------------------------------------
  Cycle       Energy         DIIS Error
 ---------------------------------------
    1   -1656.1657826892      4.79E-03
    2   -1656.3802518110      1.13E-03
    3   -1656.3337333980      2.00E-03
    4   -1656.4019110720      2.52E-04
    5   -1656.4028489132      8.52E-05
    6   -1656.4029612232      2.94E-05
    7   -1656.4029748713      1.41E-05
    8   -1656.4029783992      2.80E-06
    9   -1656.4029786414      9.64E-07
   10   -1656.4029787051      5.85E-07
   11   -1656.4029787467      3.07E-07
   12   -1656.4029787667      1.54E-07
   13   -1656.4029787796      7.50E-08
   14   -1656.4029787829      5.46E-08
   15   -1656.4029787860      2.60E-08
   16   -1656.4029787865      1.12E-08
   17   -1656.4029787864      5.48E-09 Convergence criterion met
 ---------------------------------------
 <S^2> = 0.7680
 SCF time:  CPU 23.98 s  wall 22.23 s
 SCF   energy in the final basis set = -1656.4029787864
 Total energy in the final basis set = -1656.4029787864
 
 --------------------------------------------------------------
 
                    Orbital Energies (a.u.)
 --------------------------------------------------------------
 
 Alpha MOs
 -- Occupied --
-89.082 -89.067 -89.065 -10.410 -10.408 -10.391 -10.388 -10.377
-10.375 -10.362 -10.361 -10.354 -10.353 -10.342 -10.342  -8.141
 -8.126  -8.125  -6.106  -6.102  -6.098  -6.090  -6.089  -6.086
 -6.085  -6.083  -6.082  -1.070  -1.045  -1.032  -0.946  -0.913
 -0.893  -0.893  -0.888  -0.845  -0.771  -0.746  -0.713  -0.700
 -0.687  -0.681  -0.674  -0.653  -0.606  -0.576  -0.573  -0.569
 -0.561  -0.550  -0.547  -0.546  -0.530  -0.528  -0.522  -0.510
 -0.494  -0.491  -0.456  -0.422  -0.405  -0.404  -0.397  -0.350
 -- Virtual --
 -0.226  -0.174  -0.139  -0.136  -0.126  -0.117  -0.112  -0.105
 -0.099  -0.095  -0.090  -0.086  -0.083  -0.081  -0.077  -0.076
 -0.068  -0.065  -0.063  -0.053  -0.046  -0.044  -0.035  -0.033
 -0.026  -0.024  -0.019  -0.009  -0.006   0.000   0.004   0.006
  0.007   0.013   0.015   0.021   0.024   0.030   0.031   0.034
  0.035   0.039   0.040   0.044   0.047   0.048   0.053   0.054
  0.057   0.058   0.065   0.068   0.069   0.073   0.077   0.081
  0.083   0.089   0.096   0.099   0.106   0.110   0.114   0.119
  0.120   0.122   0.128   0.130   0.139   0.146   0.147   0.150
  0.156   0.158   0.162   0.174   0.175   0.182   0.191   0.203
  0.205   0.210   0.229   0.231   0.236   0.240   0.246   0.251
  0.259   0.264   0.271   0.279   0.312   0.323   0.340   0.363
  0.377   0.380   0.386   0.398   0.427   0.435   0.460   0.464
  0.473   0.479   0.499   0.500   0.506   0.508   0.512   0.516
  0.521   0.522   0.539   0.561   0.570   0.574   0.584   0.588
  0.591   0.598   0.599   0.616   0.627   0.631   0.651   0.655
  0.666   0.674   0.677   0.690   0.693   0.712   0.731   0.744
  0.796   0.800   0.806   0.811   0.816   0.819   0.824   0.830
  0.841   0.845   0.855   0.857   0.869   0.881   0.894   0.901
  0.924   0.925   0.944   0.949   0.963   0.972   0.974   0.977
  1.012   1.028   1.032   1.036   1.044   1.087   1.106   1.121
  1.123   1.146   1.152   1.184   1.187   1.195   1.201   1.205
  1.216   1.217   1.243   1.269   1.292   1.299   1.318   1.336
  1.350   1.410   1.443   1.496   1.514   1.550   1.559   1.568
  1.673   1.694   1.707   1.723   1.755   1.768   1.781   1.785
  1.803   1.824   1.827   1.844   1.875   1.878   1.906   1.923
  1.929   1.951   1.980   2.014   2.033   2.038   2.049   2.070
  2.085   2.098   2.107   2.129   2.165   2.178   2.229   2.233
  2.273   2.298   2.302   2.318   2.323   2.327   2.349   2.375
  2.381   2.390   2.402   2.427   2.437   2.440   2.478   2.488
  2.524   2.542   2.569   2.575   2.587   2.694   2.705   2.714
  2.764   2.768   2.788   2.812   2.998   3.044   3.084   3.149
  3.149   3.192   3.281   3.283   3.540   3.605   3.611   3.821
  3.843   3.847   4.105   4.121   4.163   4.167   4.180   4.183
  4.229   4.318   4.399   4.508   4.554   4.576
 
 Beta MOs
 -- Occupied --
-89.082 -89.067 -89.065 -10.407 -10.405 -10.391 -10.388 -10.374
-10.372 -10.361 -10.360 -10.352 -10.352 -10.343 -10.342  -8.142
 -8.126  -8.125  -6.106  -6.102  -6.098  -6.090  -6.089  -6.086
 -6.085  -6.083  -6.082  -1.066  -1.042  -1.029  -0.940  -0.912
 -0.891  -0.890  -0.885  -0.838  -0.768  -0.743  -0.711  -0.698
 -0.685  -0.678  -0.673  -0.652  -0.604  -0.572  -0.568  -0.565
 -0.559  -0.548  -0.545  -0.538  -0.528  -0.527  -0.512  -0.509
 -0.493  -0.490  -0.437  -0.419  -0.402  -0.400  -0.379
 -- Virtual --
 -0.297  -0.210  -0.163  -0.137  -0.132  -0.119  -0.115  -0.112
 -0.103  -0.095  -0.090  -0.083  -0.082  -0.081  -0.077  -0.076
 -0.073  -0.068  -0.064  -0.063  -0.052  -0.045  -0.043  -0.035
 -0.032  -0.025  -0.023  -0.018  -0.008  -0.006   0.002   0.004
  0.006   0.008   0.014   0.015   0.021   0.025   0.031   0.032
  0.034   0.035   0.039   0.041   0.045   0.048   0.049   0.054
  0.055   0.058   0.060   0.065   0.069   0.070   0.074   0.078
  0.082   0.084   0.090   0.097   0.101   0.107   0.111   0.115
  0.120   0.121   0.123   0.129   0.131   0.141   0.146   0.149
  0.151   0.157   0.159   0.163   0.175   0.176   0.183   0.193
  0.204   0.207   0.212   0.230   0.232   0.237   0.241   0.247
  0.253   0.260   0.265   0.272   0.281   0.313   0.325   0.341
  0.364   0.377   0.381   0.386   0.399   0.428   0.436   0.461
  0.465   0.474   0.481   0.501   0.504   0.508   0.512   0.517
  0.520   0.524   0.529   0.541   0.563   0.571   0.577   0.586
  0.590   0.593   0.598   0.602   0.622   0.632   0.634   0.652
  0.656   0.669   0.675   0.681   0.691   0.698   0.716   0.732
  0.745   0.797   0.802   0.807   0.812   0.818   0.821   0.828
  0.832   0.842   0.846   0.857   0.859   0.870   0.882   0.894
  0.902   0.925   0.927   0.945   0.950   0.964   0.972   0.975
  0.978   1.014   1.030   1.035   1.039   1.048   1.090   1.109
  1.125   1.127   1.151   1.154   1.186   1.190   1.197   1.204
  1.209   1.221   1.222   1.245   1.271   1.296   1.305   1.324
  1.340   1.353   1.413   1.446   1.503   1.520   1.555   1.568
  1.575   1.676   1.695   1.713   1.725   1.756   1.769   1.783
  1.787   1.807   1.828   1.831   1.848   1.878   1.882   1.910
  1.928   1.933   1.953   1.986   2.020   2.039   2.045   2.055
  2.077   2.090   2.101   2.112   2.134   2.171   2.184   2.232
  2.235   2.279   2.301   2.304   2.322   2.326   2.331   2.351
  2.376   2.385   2.394   2.403   2.429   2.440   2.443   2.481
  2.491   2.527   2.544   2.572   2.578   2.589   2.697   2.709
  2.716   2.766   2.769   2.789   2.814   2.999   3.045   3.085
  3.149   3.150   3.192   3.282   3.284   3.541   3.606   3.612
  3.821   3.843   3.847   4.109   4.125   4.166   4.172   4.182
  4.185   4.234   4.322   4.403   4.511   4.557   4.579
 --------------------------------------------------------------
 
          Ground-State Mulliken Net Atomic Charges

     Atom                 Charge (a.u.)    Spin (a.u.)
  --------------------------------------------------------
      1 H                     0.245434      -0.011334
      2 H                     0.159707       0.001703
      3 C                     0.075027       0.221743
      4 C                    -0.304214      -0.041946
      5 S                    -0.002973      -0.027876
      6 C                     0.461580       0.140626
      7 H                     0.139363      -0.009188
      8 C                    -0.023814       0.032962
      9 H                     0.114041      -0.005753
     10 C                    -0.049365       0.178487
     11 C                    -0.340940       0.067019
     12 S                    -0.123234      -0.052864
     13 C                    -0.024103       0.035268
     14 H                     0.143418      -0.003285
     15 C                    -0.044323       0.181154
     16 C                    -0.192840       0.031961
     17 H                     0.143422      -0.008904
     18 C                     0.432693       0.132865
     19 S                     0.049794      -0.025828
     20 C                    -0.294190      -0.039980
     21 C                     0.039709       0.212701
     22 H                     0.158338       0.001791
     23 H                     0.237470      -0.011321
  --------------------------------------------------------
  Sum of atomic charges =     1.000000
  Sum of spin   charges =     1.000000

 -----------------------------------------------------------------
                    Cartesian Multipole Moments
 -----------------------------------------------------------------
    Charge (ESU x 10^10)
                 4.8032
    Dipole Moment (Debye)
         X      29.1124      Y      -2.5767      Z      -1.1551
       Tot      29.2491
    Quadrupole Moments (Debye-Ang)
        XX     160.9826     XY     -12.6811     YY     -89.2329
        XZ      -7.4076     YZ       7.0292     ZZ    -108.3351
    Octopole Moments (Debye-Ang^2)
       XXX     784.5622    XXY     -77.7184    XYY    -552.9905
       YYY     104.3175    XXZ     -50.3788    XYZ      48.4973
       YYZ       4.2137    XZZ    -653.7424    YZZ      40.5762
       ZZZ      50.9513
    Hexadecapole Moments (Debye-Ang^3)
      XXXX   -1261.8194   XXXY    -615.6930   XXYY   -4558.5154
      XYYY     562.6569   YYYY    -797.8329   XXXZ    -394.0492
      XXYZ     398.5018   XYYZ      12.3958   YYYZ     -81.3542
      XXZZ   -5221.9252   XYZZ     197.5752   YYZZ    -181.3365
      XZZZ     273.9900   YZZZ    -126.6944   ZZZZ    -234.2308
 -----------------------------------------------------------------
 Calculating analytic gradient of the SCF energy
 Gradient of SCF Energy
            1           2           3           4           5           6
    1   0.0029419   0.0013422  -0.0021833  -0.0026898  -0.0001731   0.0088987
    2  -0.0014130   0.0018216   0.0001565   0.0036186  -0.0148379   0.0032632
    3  -0.0005926   0.0004377  -0.0003137   0.0016707  -0.0028439   0.0020005
            7           8           9          10          11          12
    1  -0.0008775  -0.0266212   0.0036047   0.0329365  -0.0270107   0.0009711
    2   0.0028821   0.0389260  -0.0028093  -0.0445638  -0.0056670   0.0267062
    3  -0.0001553   0.0067738  -0.0000241  -0.0083343  -0.0025075   0.0054094
           13          14          15          16          17          18
    1   0.0213119  -0.0005394  -0.0207906   0.0198861   0.0006249  -0.0093686
    2  -0.0054632  -0.0024576  -0.0204821   0.0229903   0.0016127   0.0049749
    3  -0.0056834   0.0008203  -0.0039249   0.0116430   0.0024327  -0.0028708
           19          20          21          22          23
    1  -0.0005651   0.0018702   0.0009565  -0.0015319  -0.0029935
    2  -0.0123892   0.0032411  -0.0004115   0.0014204  -0.0011189
    3  -0.0064758   0.0011185   0.0010742   0.0011896  -0.0008441
 Max gradient component =       4.456E-02
 RMS gradient           =       1.212E-02
 Gradient time:  CPU 4.20 s  wall 4.31 s
 Geometry Optimization Parameters
   NAtoms,    NIC,     NZ,  NCons,   NDum,   NFix, NCnnct, MaxDiis
       23     166       0       1       0       0       0       0

 Cartesian Hessian Update
 Hessian Updated using BFGS Update


** CONSTRAINED OPTIMIZATION IN DELOCALIZED INTERNAL COORDINATES **
   Searching for a Minimum

   Optimization Cycle:   2

                       Coordinates (Angstroms)
     ATOM                X               Y               Z
      1  H        -0.0975884796   -0.2678061965   -0.0518596108
      2  H         0.7961034019   -2.6759631239   -0.6429214255
      3  C         0.9332186715   -0.5673873557   -0.1512827382
      4  C         1.4262468545   -1.8184054175   -0.4596390190
      5  S         2.1794275680    0.5885584777    0.0846079419
      6  C         2.8291880205   -1.8314920911   -0.5136961988
      7  H         3.4158522823   -2.7047370366   -0.7600482646
      8  C         3.4127655622   -0.5883472816   -0.2451821226
      9  H         4.6634773006    1.7326446523    0.2193728859
     10  C         4.8466982240   -0.4138331997   -0.2100104401
     11  C         5.3135755236    0.8879465530    0.0662699885
     12  S         6.1742543381   -1.4923252034   -0.3968569495
     13  C         6.7048936412    0.9806100856    0.1306831623
     14  H         7.2495386251    1.8875157147    0.3498344020
     15  C         7.3382032867   -0.2430568505   -0.0967794335
     16  C         8.7638382706   -0.3836450216   -0.1321457200
     17  H         8.8532154121   -2.2949691807   -1.1768429560
     18  C         9.3976601216   -1.4683311450   -0.7436614291
     19  S         9.9312274191    0.7452706140    0.4713123705
     20  C        10.7985350067   -1.3785217003   -0.7119800028
     21  C        11.2308672284   -0.2322877323   -0.0762390149
     22  H        11.4694420929   -2.1161134271   -1.1264174809
     23  H        12.2462396280    0.0852766264    0.0975726852
   Point Group: c1    Number of degrees of freedom:    63


   Energy is  -1656.402978786

              Constraints and their Current Values
                                        Value     Constraint
   Dihedral:       13  15  16  18     -160.000     -160.000
 Hessian Updated using BFGS Update

 61 Hessian modes will be used to form the next step
  Hessian Eigenvalues:
     0.044956    0.045000    0.045000    0.045000    0.045000    0.045001
     0.045001    0.045001    0.045002    0.045003    0.045006    0.045010
     0.045012    0.045012    0.045025    0.045032    0.045053    0.045059
     0.159085    0.159945    0.159947    0.159989    0.159993    0.159993
     0.160000    0.160318    0.190131    0.221308    0.222007    0.229793
     0.238054    0.239022    0.246404    0.249670    0.249674    0.283560
     0.323858    0.326558    0.327705    0.339121    0.340048    0.340455
     0.365181    0.365513    0.365521    0.366562    0.366889    0.367353
     0.369909    0.370100    0.399504    0.414615    0.434905    0.435420
     0.436777    0.462101    0.463147    0.470298    0.495172    0.495500
     0.573946

 Minimum Search - Taking Simple RFO Step
 Searching for Lamda that Minimizes Along All modes
 Value Taken    Lamda =  -0.02317194
 Calculated Step too Large.  Step scaled by  0.914881
 Step Taken.  Stepsize is  0.300000

                             Maximum     Tolerance    Cnvgd?
         Gradient           0.039078      0.000300      NO
         Displacement       0.160914      0.001200      NO
         Energy change     -0.031965      0.000001      NO


 New Cartesian Coordinates Obtained by Inverse Iteration

 Displacement from previous Coordinates is:  0.989114
 ----------------------------------------------------------------
             Standard Nuclear Orientation (Angstroms)
    I     Atom           X                Y                Z
 ----------------------------------------------------------------
    1      H      -0.0641182587    -0.3760616936    -0.0877194938
    2      H       0.9109257166    -2.7631021373    -0.6776032256
    3      C       0.9817202309    -0.6439191362    -0.1759406946
    4      C       1.5162933264    -1.8857977697    -0.4844552124
    5      S       2.1775332359     0.5675857726     0.0797055872
    6      C       2.9176520923    -1.8607317990    -0.5191639088
    7      H       3.5347363325    -2.7210526817    -0.7562846780
    8      C       3.4518685515    -0.5887542789    -0.2357983995
    9      H       4.6622546098     1.8933130958     0.2647552012
   10      C       4.8268524525    -0.2633326376    -0.1640293103
   11      C       5.3153036550     1.0398495511     0.1132991212
   12      S       6.1265212713    -1.4009355407    -0.3644286982
   13      C       6.6949189556     1.0989643460     0.1636823752
   14      H       7.2569257139     2.0025747539     0.3683745231
   15      C       7.3150962333    -0.1517952270    -0.0761549737
   16      C       8.7113019667    -0.4072768722    -0.1493392908
   17      H       8.7716604598    -2.3352841427    -1.1981630797
   18      C       9.3294731291    -1.5167254427    -0.7567354748
   19      S       9.9125390517     0.7118829517     0.4556069321
   20      C      10.7316954814    -1.4520686544    -0.7231968085
   21      C      11.1885023268    -0.3050360243    -0.0934548237
   22      H      11.3916595556    -2.2047730265    -1.1373689353
   23      H      12.2155639103    -0.0069226465     0.0785038976
 ----------------------------------------------------------------
 Nuclear Repulsion Energy =  1178.3954739056 hartrees
 There are       64 alpha and       63 beta electrons
 Applying Cartesian multipole field
    Component          Value
    ---------          -----
     (2,0,0)        1.00000E-12
     (0,2,0)        2.00000E-11
     (0,0,2)       -3.00000E-11
 Nucleus-field energy     =     0.0000000317 hartrees
 Requested basis set is 6-31++G(d,p)
 There are 110 shells and 345 basis functions
 A cutoff of  1.0D-12 yielded   4705 shell pairs
 There are     47931 function pairs

 Q-Chem warning in module /project/projectdirs/jcesr/qchem/qc44/cnl_qc441/compile/cori/qc_src/libqints/qchem/aobasis.C, line 68:

 Using reconstructed effective core potential

 Smallest overlap matrix eigenvalue = 5.98E-08
 Linear dependence detected in AO basis
 Number of orthogonalized atomic orbitals = 342
 Maximum deviation from orthogonality = 9.529E-11
 Guess MOs from SCF MO coefficient file
 Reading MOs from coefficient file
 Reading MOs from coefficient file
 An unrestricted hybrid HF-DFT SCF calculation will be
 performed using Pulay DIIS extrapolation
 Exchange:     0.2000 Hartree-Fock + 0.0800 Slater + 0.7200 B88
 Correlation:  0.1900 VWN1RPA + 0.8100 LYP
 Using SG-1 standard quadrature grid
 SCF converges when DIIS error is below 1.0E-08
 Geometry optimization detected.  Setting ReadMinima to 0
 Setting SaveMinima to 0
 ---------------------------------------
  Cycle       Energy         DIIS Error
 ---------------------------------------
    1   -1656.3004991649      2.69E-03
    2   -1656.4103813494      5.27E-04
    3   -1656.3996438840      9.46E-04
    4   -1656.4153506211      1.37E-04
    5   -1656.4156304812      4.66E-05
    6   -1656.4156651147      1.57E-05
    7   -1656.4156689903      7.88E-06
    8   -1656.4156701449      1.67E-06
    9   -1656.4156702649      1.12E-06
   10   -1656.4156703191      3.89E-07
   11   -1656.4156703493      2.13E-07
   12   -1656.4156703650      9.98E-08
   13   -1656.4156703731      5.48E-08
   14   -1656.4156703740      2.96E-08
   15   -1656.4156703752      1.55E-08
   16   -1656.4156703748      8.21E-09 Convergence criterion met
 ---------------------------------------
 <S^2> = 0.7700
 SCF time:  CPU 22.60 s  wall 20.98 s
 SCF   energy in the final basis set = -1656.4156703748
 Total energy in the final basis set = -1656.4156703748
 
 --------------------------------------------------------------
 
                    Orbital Energies (a.u.)
 --------------------------------------------------------------
 
 Alpha MOs
 -- Occupied --
-89.077 -89.066 -89.064 -10.409 -10.408 -10.390 -10.389 -10.379
-10.376 -10.366 -10.365 -10.358 -10.356 -10.345 -10.343  -8.136
 -8.126  -8.123  -6.101  -6.097  -6.093  -6.090  -6.087  -6.086
 -6.084  -6.083  -6.080  -1.066  -1.042  -1.027  -0.944  -0.916
 -0.894  -0.892  -0.884  -0.840  -0.771  -0.748  -0.713  -0.702
 -0.687  -0.678  -0.673  -0.647  -0.605  -0.574  -0.572  -0.569
 -0.557  -0.551  -0.547  -0.545  -0.534  -0.525  -0.519  -0.511
 -0.495  -0.492  -0.454  -0.423  -0.407  -0.404  -0.395  -0.345
 -- Virtual --
 -0.230  -0.177  -0.141  -0.137  -0.128  -0.121  -0.113  -0.101
 -0.099  -0.095  -0.087  -0.083  -0.082  -0.081  -0.076  -0.075
 -0.069  -0.065  -0.063  -0.053  -0.046  -0.043  -0.034  -0.030
 -0.024  -0.023  -0.017  -0.008  -0.007   0.001   0.004   0.005
  0.006   0.013   0.015   0.021   0.024   0.028   0.029   0.034
  0.034   0.038   0.041   0.044   0.048   0.049   0.054   0.055
  0.057   0.059   0.063   0.069   0.070   0.074   0.078   0.079
  0.084   0.089   0.096   0.101   0.105   0.107   0.114   0.120
  0.120   0.123   0.126   0.129   0.134   0.141   0.148   0.151
  0.153   0.157   0.160   0.172   0.173   0.183   0.192   0.199
  0.206   0.207   0.228   0.230   0.232   0.239   0.246   0.254
  0.258   0.262   0.269   0.275   0.319   0.326   0.342   0.371
  0.376   0.382   0.387   0.398   0.436   0.442   0.452   0.455
  0.469   0.479   0.497   0.503   0.505   0.509   0.512   0.513
  0.520   0.523   0.541   0.558   0.569   0.572   0.584   0.586
  0.589   0.595   0.601   0.616   0.623   0.629   0.649   0.650
  0.674   0.681   0.693   0.695   0.696   0.713   0.733   0.746
  0.791   0.796   0.801   0.812   0.816   0.819   0.822   0.828
  0.841   0.844   0.850   0.853   0.869   0.878   0.891   0.902
  0.920   0.927   0.932   0.950   0.957   0.967   0.968   0.980
  1.012   1.026   1.034   1.041   1.047   1.085   1.102   1.116
  1.125   1.139   1.150   1.176   1.187   1.194   1.199   1.204
  1.216   1.216   1.236   1.301   1.314   1.322   1.329   1.347
  1.362   1.411   1.450   1.503   1.521   1.546   1.558   1.568
  1.671   1.691   1.709   1.712   1.739   1.767   1.779   1.788
  1.792   1.802   1.814   1.836   1.874   1.878   1.904   1.916
  1.924   1.955   1.968   2.017   2.026   2.033   2.050   2.060
  2.079   2.090   2.117   2.118   2.152   2.179   2.226   2.229
  2.279   2.285   2.293   2.312   2.317   2.320   2.343   2.366
  2.376   2.386   2.394   2.405   2.430   2.441   2.470   2.479
  2.523   2.545   2.564   2.571   2.582   2.693   2.722   2.727
  2.768   2.772   2.790   2.799   2.985   3.036   3.077   3.139
  3.141   3.173   3.270   3.272   3.531   3.594   3.602   3.825
  3.837   3.845   4.108   4.122   4.163   4.173   4.178   4.180
  4.236   4.323   4.397   4.510   4.553   4.578
 
 Beta MOs
 -- Occupied --
-89.078 -89.066 -89.064 -10.407 -10.405 -10.389 -10.388 -10.376
-10.373 -10.365 -10.364 -10.356 -10.354 -10.346 -10.344  -8.137
 -8.126  -8.123  -6.101  -6.097  -6.094  -6.090  -6.087  -6.086
 -6.084  -6.083  -6.080  -1.062  -1.038  -1.023  -0.939  -0.914
 -0.892  -0.890  -0.880  -0.833  -0.768  -0.745  -0.710  -0.699
 -0.686  -0.676  -0.672  -0.645  -0.603  -0.570  -0.568  -0.563
 -0.555  -0.549  -0.545  -0.537  -0.533  -0.523  -0.510  -0.508
 -0.494  -0.491  -0.436  -0.421  -0.403  -0.400  -0.378
 -- Virtual --
 -0.293  -0.215  -0.166  -0.139  -0.132  -0.122  -0.119  -0.112
 -0.098  -0.095  -0.092  -0.085  -0.081  -0.077  -0.076  -0.074
 -0.071  -0.069  -0.064  -0.062  -0.052  -0.044  -0.043  -0.034
 -0.029  -0.023  -0.022  -0.017  -0.007  -0.007   0.002   0.005
  0.005   0.007   0.013   0.015   0.021   0.025   0.029   0.030
  0.034   0.035   0.038   0.042   0.044   0.048   0.050   0.055
  0.056   0.058   0.060   0.064   0.069   0.071   0.075   0.079
  0.080   0.085   0.090   0.097   0.102   0.105   0.108   0.115
  0.120   0.121   0.123   0.127   0.130   0.136   0.143   0.149
  0.152   0.155   0.157   0.161   0.173   0.174   0.184   0.193
  0.201   0.208   0.209   0.229   0.231   0.233   0.241   0.247
  0.255   0.259   0.263   0.270   0.276   0.321   0.327   0.343
  0.372   0.376   0.383   0.387   0.399   0.437   0.443   0.454
  0.456   0.470   0.480   0.499   0.505   0.510   0.514   0.515
  0.519   0.523   0.530   0.542   0.560   0.570   0.575   0.587
  0.588   0.591   0.596   0.604   0.621   0.627   0.634   0.650
  0.652   0.677   0.686   0.696   0.696   0.699   0.717   0.734
  0.747   0.795   0.797   0.802   0.814   0.817   0.821   0.825
  0.830   0.842   0.845   0.852   0.854   0.870   0.878   0.892
  0.903   0.922   0.928   0.933   0.951   0.958   0.968   0.969
  0.982   1.014   1.029   1.037   1.044   1.051   1.088   1.105
  1.119   1.129   1.145   1.152   1.177   1.191   1.196   1.203
  1.208   1.221   1.222   1.238   1.303   1.320   1.325   1.335
  1.351   1.366   1.414   1.452   1.510   1.528   1.552   1.567
  1.576   1.676   1.693   1.710   1.716   1.741   1.768   1.782
  1.791   1.793   1.806   1.819   1.838   1.877   1.881   1.910
  1.919   1.927   1.958   1.974   2.023   2.033   2.039   2.054
  2.064   2.084   2.095   2.122   2.123   2.159   2.184   2.229
  2.232   2.284   2.288   2.295   2.315   2.320   2.324   2.345
  2.367   2.380   2.390   2.396   2.407   2.432   2.444   2.473
  2.483   2.526   2.546   2.567   2.574   2.584   2.695   2.725
  2.729   2.771   2.775   2.792   2.801   2.985   3.036   3.078
  3.139   3.141   3.173   3.271   3.273   3.533   3.595   3.603
  3.825   3.837   3.845   4.112   4.126   4.166   4.177   4.181
  4.182   4.241   4.327   4.401   4.513   4.556   4.581
 --------------------------------------------------------------
 
          Ground-State Mulliken Net Atomic Charges

     Atom                 Charge (a.u.)    Spin (a.u.)
  --------------------------------------------------------
      1 H                     0.241516      -0.011642
      2 H                     0.162552       0.001713
      3 C                     0.058039       0.226196
      4 C                    -0.251020      -0.041348
      5 S                    -0.024656      -0.024154
      6 C                     0.486101       0.144160
      7 H                     0.144884      -0.009352
      8 C                    -0.127690       0.024261
      9 H                     0.136832      -0.005382
     10 C                    -0.092309       0.176044
     11 C                    -0.159865       0.062242
     12 S                    -0.280002      -0.060080
     13 C                     0.085349       0.046333
     14 H                     0.152057      -0.003878
     15 C                    -0.100872       0.183466
     16 C                    -0.251089       0.022598
     17 H                     0.150811      -0.009009
     18 C                     0.503856       0.136055
     19 S                     0.030852      -0.021638
     20 C                    -0.301018      -0.039290
     21 C                     0.040049       0.212332
     22 H                     0.159619       0.001740
     23 H                     0.236004      -0.011369
  --------------------------------------------------------
  Sum of atomic charges =     1.000000
  Sum of spin   charges =     1.000000

 -----------------------------------------------------------------
                    Cartesian Multipole Moments
 -----------------------------------------------------------------
    Charge (ESU x 10^10)
                 4.8032
    Dipole Moment (Debye)
         X      29.0061      Y      -2.5518      Z      -1.1769
       Tot      29.1419
    Quadrupole Moments (Debye-Ang)
        XX     157.6736     XY     -12.7270     YY     -87.9985
        XZ      -7.5047     YZ       7.3718     ZZ    -108.4575
    Octopole Moments (Debye-Ang^2)
       XXX     738.9556    XXY     -85.1979    XYY    -545.4731
       YYY     100.8616    XXZ     -52.4783    XYZ      50.4282
       YYZ       3.1986    XZZ    -653.9028    YZZ      39.4349
       ZZZ      49.9450
    Hexadecapole Moments (Debye-Ang^3)
      XXXX   -1703.2982   XXXY    -741.4698   XXYY   -4485.2244
      XYYY     548.6846   YYYY    -806.4991   XXXZ    -420.3901
      XXYZ     410.1513   XYYZ       6.0691   YYYZ     -78.7606
      XXZZ   -5195.5016   XYZZ     192.5869   YYZZ    -184.4042
      XZZZ     269.0863   YZZZ    -128.7175   ZZZZ    -234.6975
 -----------------------------------------------------------------
 Calculating analytic gradient of the SCF energy
 Gradient of SCF Energy
            1           2           3           4           5           6
    1  -0.0001241   0.0000899   0.0021946  -0.0003507   0.0035744   0.0021270
    2   0.0006679  -0.0002805  -0.0010656  -0.0012270  -0.0002843  -0.0028446
    3  -0.0000016  -0.0000196  -0.0003129  -0.0000035   0.0002929   0.0004942
            7           8           9          10          11          12
    1   0.0004318  -0.0071500  -0.0009414   0.0110009  -0.0045519  -0.0006376
    2  -0.0002064   0.0165619   0.0010107  -0.0172790   0.0031854   0.0037719
    3  -0.0007270   0.0022981   0.0003977  -0.0028485   0.0000661   0.0009446
           13          14          15          16          17          18
    1   0.0004441  -0.0005144  -0.0079441   0.0056338  -0.0002209  -0.0012253
    2   0.0024050   0.0000291  -0.0079538   0.0081291  -0.0006415  -0.0002764
    3  -0.0035809   0.0009763   0.0006376   0.0064012   0.0008865  -0.0047330
           19          20          21          22          23
    1  -0.0028301   0.0009274  -0.0003792   0.0001772   0.0002687
    2  -0.0023484  -0.0005535  -0.0010371  -0.0002088   0.0004459
    3  -0.0007390  -0.0008167   0.0003225   0.0000833  -0.0000183
 Max gradient component =       1.728E-02
 RMS gradient           =       4.118E-03
 Gradient time:  CPU 4.25 s  wall 4.22 s
 Geometry Optimization Parameters
   NAtoms,    NIC,     NZ,  NCons,   NDum,   NFix, NCnnct, MaxDiis
       23     166       0       1       0       0       0       0

 Cartesian Hessian Update
 Hessian Updated using BFGS Update


** CONSTRAINED OPTIMIZATION IN DELOCALIZED INTERNAL COORDINATES **
   Searching for a Minimum

   Optimization Cycle:   3

                       Coordinates (Angstroms)
     ATOM                X               Y               Z
      1  H        -0.0641182587   -0.3760616936   -0.0877194938
      2  H         0.9109257166   -2.7631021373   -0.6776032256
      3  C         0.9817202309   -0.6439191362   -0.1759406946
      4  C         1.5162933264   -1.8857977697   -0.4844552124
      5  S         2.1775332359    0.5675857726    0.0797055872
      6  C         2.9176520923   -1.8607317990   -0.5191639088
      7  H         3.5347363325   -2.7210526817   -0.7562846780
      8  C         3.4518685515   -0.5887542789   -0.2357983995
      9  H         4.6622546098    1.8933130958    0.2647552012
     10  C         4.8268524525   -0.2633326376   -0.1640293103
     11  C         5.3153036550    1.0398495511    0.1132991212
     12  S         6.1265212713   -1.4009355407   -0.3644286982
     13  C         6.6949189556    1.0989643460    0.1636823752
     14  H         7.2569257139    2.0025747539    0.3683745231
     15  C         7.3150962333   -0.1517952270   -0.0761549737
     16  C         8.7113019667   -0.4072768722   -0.1493392908
     17  H         8.7716604598   -2.3352841427   -1.1981630797
     18  C         9.3294731291   -1.5167254427   -0.7567354748
     19  S         9.9125390517    0.7118829517    0.4556069321
     20  C        10.7316954814   -1.4520686544   -0.7231968085
     21  C        11.1885023268   -0.3050360243   -0.0934548237
     22  H        11.3916595556   -2.2047730265   -1.1373689353
     23  H        12.2155639103   -0.0069226465    0.0785038976
   Point Group: c1    Number of degrees of freedom:    63


   Energy is  -1656.415670375

              Constraints and their Current Values
                                        Value     Constraint
   Dihedral:       13  15  16  18     -160.000     -160.000
 Hessian Updated using BFGS Update

 62 Hessian modes will be used to form the next step
  Hessian Eigenvalues:
     0.044720    0.045000    0.045000    0.045000    0.045000    0.045000
     0.045001    0.045001    0.045002    0.045003    0.045003    0.045007
     0.045011    0.045012    0.045017    0.045024    0.045038    0.045049
     0.045059    0.155153    0.159945    0.159965    0.159991    0.159993
     0.160000    0.160043    0.160429    0.170542    0.221309    0.223567
     0.229840    0.238466    0.240284    0.249271    0.249672    0.261580
     0.278793    0.322525    0.326571    0.327932    0.338738    0.340058
     0.341740    0.365513    0.365517    0.365838    0.366889    0.367264
     0.367819    0.370100    0.370865    0.399345    0.422871    0.435393
     0.435684    0.442503    0.463132    0.465330    0.480988    0.495500
     0.497258    0.572520

 Minimum Search - Taking Simple RFO Step
 Searching for Lamda that Minimizes Along All modes
 Value Taken    Lamda =  -0.00279202
 Step Taken.  Stepsize is  0.133262

                             Maximum     Tolerance    Cnvgd?
         Gradient           0.010817      0.000300      NO
         Displacement       0.071179      0.001200      NO
         Energy change     -0.012692      0.000001      NO


 New Cartesian Coordinates Obtained by Inverse Iteration

 Displacement from previous Coordinates is:  0.307241
 ----------------------------------------------------------------
             Standard Nuclear Orientation (Angstroms)
    I     Atom           X                Y                Z
 ----------------------------------------------------------------
    1      H      -0.0909311612    -0.4136473884    -0.1271603085
    2      H       0.9235004486    -2.7827296644    -0.6994570510
    3      C       0.9596675410    -0.6666164198    -0.1998947611
    4      C       1.5178237321    -1.8997999692    -0.4989253111
    5      S       2.1452238638     0.5496898957     0.0681595819
    6      C       2.9205261672    -1.8664779926    -0.5124288326
    7      H       3.5422843209    -2.7263902320    -0.7355010098
    8      C       3.4490812234    -0.5954274955    -0.2223452641
    9      H       4.6864952650     1.9384019043     0.2890163475
   10      C       4.8075383121    -0.2138851432    -0.1317991446
   11      C       5.3271347519     1.0763858636     0.1411734419
   12      S       6.1091764323    -1.3660488256    -0.3353760644
   13      C       6.7091106857     1.1208185915     0.1812709392
   14      H       7.2817109468     2.0218475730     0.3686033335
   15      C       7.3256539553    -0.1309461240    -0.0617123947
   16      C       8.7092763488    -0.4216305663    -0.1536948000
   17      H       8.7699208440    -2.3484323103    -1.1996801341
   18      C       9.3270905814    -1.5314834568    -0.7548214241
   19      S       9.9240081263     0.7060307739     0.4375787954
   20      C      10.7285693511    -1.4648606881    -0.7269806385
   21      C      11.1949843313    -0.3145051500    -0.1107938122
   22      H      11.3846766768    -2.2194874234    -1.1431669273
   23      H      12.2243572553    -0.0202049924     0.0520260687
 ----------------------------------------------------------------
 Nuclear Repulsion Energy =  1176.5313553167 hartrees
 There are       64 alpha and       63 beta electrons
 Applying Cartesian multipole field
    Component          Value
    ---------          -----
     (2,0,0)        1.00000E-12
     (0,2,0)        2.00000E-11
     (0,0,2)       -3.00000E-11
 Nucleus-field energy     =     0.0000000318 hartrees
 Requested basis set is 6-31++G(d,p)
 There are 110 shells and 345 basis functions
 A cutoff of  1.0D-12 yielded   4699 shell pairs
 There are     47860 function pairs

 Q-Chem warning in module /project/projectdirs/jcesr/qchem/qc44/cnl_qc441/compile/cori/qc_src/libqints/qchem/aobasis.C, line 68:

 Using reconstructed effective core potential

 Smallest overlap matrix eigenvalue = 5.95E-08
 Linear dependence detected in AO basis
 Number of orthogonalized atomic orbitals = 342
 Maximum deviation from orthogonality = 5.027E-11
 Guess MOs from SCF MO coefficient file
 Reading MOs from coefficient file
 Reading MOs from coefficient file
 An unrestricted hybrid HF-DFT SCF calculation will be
 performed using Pulay DIIS extrapolation
 Exchange:     0.2000 Hartree-Fock + 0.0800 Slater + 0.7200 B88
 Correlation:  0.1900 VWN1RPA + 0.8100 LYP
 Using SG-1 standard quadrature grid
 SCF converges when DIIS error is below 1.0E-08
 Geometry optimization detected.  Setting ReadMinima to 0
 Setting SaveMinima to 0
 ---------------------------------------
  Cycle       Energy         DIIS Error
 ---------------------------------------
    1   -1656.3733594234      9.99E-04
    2   -1656.4159729694      2.37E-04
    3   -1656.4136414404      4.32E-04
    4   -1656.4170238699      7.64E-05
    5   -1656.4171150180      1.94E-05
    6   -1656.4171214239      6.66E-06
    7   -1656.4171221337      3.56E-06
    8   -1656.4171223942      7.89E-07
    9   -1656.4171224425      6.81E-07
   10   -1656.4171224690      2.26E-07
   11   -1656.4171224847      1.24E-07
   12   -1656.4171224938      6.96E-08
   13   -1656.4171224955      2.85E-08
   14   -1656.4171224959      1.00E-08
   15   -1656.4171224969      5.71E-09 Convergence criterion met
 ---------------------------------------
 <S^2> = 0.7692
 SCF time:  CPU 20.65 s  wall 19.19 s
 SCF   energy in the final basis set = -1656.4171224969
 Total energy in the final basis set = -1656.4171224969
 
 --------------------------------------------------------------
 
                    Orbital Energies (a.u.)
 --------------------------------------------------------------
 
 Alpha MOs
 -- Occupied --
-89.074 -89.065 -89.064 -10.410 -10.410 -10.391 -10.390 -10.379
-10.377 -10.367 -10.366 -10.358 -10.357 -10.345 -10.344  -8.133
 -8.124  -8.123  -6.098  -6.094  -6.090  -6.088  -6.087  -6.085
 -6.083  -6.081  -6.080  -1.064  -1.041  -1.026  -0.945  -0.915
 -0.893  -0.892  -0.883  -0.842  -0.772  -0.749  -0.713  -0.703
 -0.687  -0.678  -0.673  -0.647  -0.606  -0.573  -0.571  -0.571
 -0.560  -0.551  -0.548  -0.545  -0.536  -0.523  -0.519  -0.508
 -0.492  -0.490  -0.455  -0.422  -0.406  -0.404  -0.396  -0.346
 -- Virtual --
 -0.231  -0.178  -0.140  -0.137  -0.128  -0.122  -0.112  -0.102
 -0.099  -0.095  -0.086  -0.082  -0.081  -0.080  -0.077  -0.075
 -0.069  -0.065  -0.063  -0.053  -0.046  -0.043  -0.034  -0.029
 -0.023  -0.023  -0.017  -0.008  -0.007   0.000   0.004   0.005
  0.007   0.013   0.015   0.020   0.024   0.028   0.029   0.033
  0.034   0.037   0.042   0.044   0.047   0.049   0.054   0.055
  0.057   0.059   0.063   0.069   0.070   0.072   0.079   0.081
  0.085   0.088   0.096   0.101   0.104   0.107   0.112   0.119
  0.120   0.123   0.126   0.129   0.132   0.140   0.149   0.151
  0.153   0.157   0.161   0.171   0.173   0.184   0.193   0.199
  0.205   0.208   0.227   0.230   0.231   0.240   0.248   0.255
  0.259   0.264   0.269   0.276   0.320   0.327   0.345   0.372
  0.377   0.383   0.387   0.397   0.436   0.443   0.450   0.453
  0.467   0.481   0.496   0.502   0.506   0.510   0.512   0.513
  0.520   0.523   0.543   0.556   0.568   0.571   0.584   0.585
  0.589   0.595   0.601   0.616   0.622   0.628   0.648   0.650
  0.676   0.682   0.692   0.695   0.696   0.713   0.732   0.746
  0.790   0.796   0.799   0.810   0.817   0.820   0.823   0.827
  0.843   0.845   0.849   0.852   0.868   0.878   0.892   0.902
  0.917   0.927   0.931   0.949   0.959   0.966   0.967   0.982
  1.010   1.024   1.032   1.040   1.047   1.083   1.098   1.113
  1.119   1.134   1.150   1.173   1.189   1.194   1.198   1.204
  1.214   1.215   1.232   1.312   1.322   1.331   1.334   1.350
  1.365   1.412   1.452   1.504   1.525   1.543   1.560   1.569
  1.667   1.688   1.708   1.712   1.732   1.766   1.771   1.783
  1.791   1.793   1.804   1.833   1.870   1.880   1.899   1.917
  1.923   1.957   1.963   2.013   2.026   2.033   2.047   2.051
  2.076   2.090   2.111   2.122   2.149   2.185   2.227   2.230
  2.281   2.283   2.292   2.306   2.314   2.323   2.342   2.361
  2.377   2.385   2.397   2.401   2.429   2.445   2.467   2.483
  2.522   2.547   2.564   2.573   2.582   2.685   2.722   2.737
  2.779   2.785   2.791   2.801   2.985   3.038   3.079   3.141
  3.142   3.173   3.271   3.273   3.528   3.592   3.603   3.826
  3.836   3.844   4.108   4.123   4.161   4.174   4.179   4.180
  4.238   4.325   4.394   4.509   4.553   4.579
 
 Beta MOs
 -- Occupied --
-89.074 -89.065 -89.064 -10.407 -10.407 -10.391 -10.389 -10.376
-10.374 -10.366 -10.365 -10.356 -10.355 -10.346 -10.344  -8.134
 -8.124  -8.123  -6.098  -6.094  -6.090  -6.088  -6.087  -6.085
 -6.084  -6.081  -6.080  -1.060  -1.038  -1.023  -0.939  -0.913
 -0.891  -0.890  -0.880  -0.835  -0.769  -0.746  -0.710  -0.701
 -0.685  -0.676  -0.672  -0.644  -0.605  -0.570  -0.569  -0.562
 -0.558  -0.550  -0.546  -0.537  -0.534  -0.521  -0.508  -0.507
 -0.491  -0.489  -0.437  -0.419  -0.402  -0.400  -0.379
 -- Virtual --
 -0.294  -0.215  -0.167  -0.138  -0.132  -0.122  -0.120  -0.112
 -0.098  -0.095  -0.092  -0.085  -0.081  -0.077  -0.076  -0.072
 -0.070  -0.069  -0.064  -0.062  -0.052  -0.044  -0.043  -0.034
 -0.028  -0.022  -0.022  -0.017  -0.008  -0.007   0.002   0.005
  0.005   0.007   0.013   0.016   0.021   0.024   0.028   0.030
  0.034   0.035   0.038   0.043   0.044   0.048   0.050   0.055
  0.056   0.058   0.061   0.064   0.069   0.071   0.074   0.080
  0.081   0.086   0.089   0.097   0.102   0.105   0.108   0.113
  0.120   0.121   0.124   0.127   0.130   0.133   0.142   0.150
  0.152   0.155   0.158   0.162   0.172   0.174   0.185   0.194
  0.200   0.206   0.209   0.228   0.231   0.233   0.241   0.249
  0.256   0.261   0.265   0.271   0.277   0.321   0.328   0.345
  0.372   0.377   0.384   0.388   0.398   0.437   0.444   0.451
  0.454   0.468   0.482   0.498   0.504   0.512   0.514   0.516
  0.518   0.522   0.530   0.543   0.558   0.568   0.575   0.586
  0.587   0.591   0.595   0.605   0.620   0.626   0.633   0.649
  0.651   0.679   0.686   0.695   0.696   0.698   0.717   0.733
  0.747   0.794   0.797   0.800   0.812   0.819   0.822   0.826
  0.829   0.844   0.846   0.851   0.854   0.869   0.878   0.892
  0.904   0.918   0.928   0.932   0.950   0.960   0.967   0.968
  0.983   1.011   1.026   1.035   1.043   1.051   1.086   1.102
  1.116   1.123   1.140   1.152   1.176   1.192   1.196   1.202
  1.207   1.219   1.221   1.235   1.315   1.329   1.337   1.338
  1.353   1.368   1.415   1.455   1.510   1.533   1.549   1.568
  1.577   1.672   1.690   1.709   1.716   1.735   1.767   1.776
  1.786   1.794   1.795   1.809   1.835   1.874   1.884   1.904
  1.920   1.926   1.960   1.969   2.019   2.032   2.039   2.051
  2.055   2.082   2.094   2.116   2.128   2.156   2.190   2.229
  2.232   2.284   2.286   2.297   2.308   2.319   2.327   2.344
  2.364   2.381   2.387   2.399   2.404   2.432   2.448   2.470
  2.487   2.526   2.549   2.568   2.576   2.584   2.688   2.725
  2.740   2.783   2.787   2.792   2.803   2.986   3.039   3.080
  3.141   3.142   3.174   3.272   3.274   3.529   3.593   3.604
  3.826   3.836   3.844   4.111   4.127   4.164   4.177   4.181
  4.185   4.243   4.329   4.399   4.512   4.555   4.582
 --------------------------------------------------------------
 
          Ground-State Mulliken Net Atomic Charges

     Atom                 Charge (a.u.)    Spin (a.u.)
  --------------------------------------------------------
      1 H                     0.242247      -0.011375
      2 H                     0.162812       0.001493
      3 C                     0.070716       0.220908
      4 C                    -0.255261      -0.037170
      5 S                    -0.031628      -0.021048
      6 C                     0.521442       0.137885
      7 H                     0.146670      -0.009014
      8 C                    -0.197663       0.025767
      9 H                     0.143387      -0.005165
     10 C                    -0.100520       0.177497
     11 C                    -0.076849       0.059891
     12 S                    -0.328682      -0.061704
     13 C                     0.103544       0.053799
     14 H                     0.153883      -0.004390
     15 C                    -0.132554       0.178736
     16 C                    -0.262949       0.025652
     17 H                     0.154980      -0.008682
     18 C                     0.537940       0.131097
     19 S                     0.021317      -0.018890
     20 C                    -0.320278      -0.035574
     21 C                     0.051167       0.209999
     22 H                     0.159601       0.001500
     23 H                     0.236676      -0.011211
  --------------------------------------------------------
  Sum of atomic charges =     1.000000
  Sum of spin   charges =     1.000000

 -----------------------------------------------------------------
                    Cartesian Multipole Moments
 -----------------------------------------------------------------
    Charge (ESU x 10^10)
                 4.8032
    Dipole Moment (Debye)
         X      29.0757      Y      -2.5346      Z      -1.2165
       Tot      29.2113
    Quadrupole Moments (Debye-Ang)
        XX     159.3826     XY     -12.4785     YY     -87.9850
        XZ      -7.7269     YZ       7.3429     ZZ    -108.5368
    Octopole Moments (Debye-Ang^2)
       XXX     763.3183    XXY     -85.2885    XYY    -544.5610
       YYY     100.3298    XXZ     -56.6571    XYZ      50.1791
       YYZ       2.9316    XZZ    -653.8751    YZZ      39.1622
       ZZZ      49.2131
    Hexadecapole Moments (Debye-Ang^3)
      XXXX   -1416.9338   XXXY    -764.2972   XXYY   -4479.8223
      XYYY     542.3328   YYYY    -807.3769   XXXZ    -476.5267
      XXYZ     408.9983   XYYZ       4.3757   YYYZ     -77.4618
      XXZZ   -5197.6588   XYZZ     189.6136   YYZZ    -184.6134
      XZZZ     264.5904   YZZZ    -128.0899   ZZZZ    -232.7144
 -----------------------------------------------------------------
 Calculating analytic gradient of the SCF energy
 Gradient of SCF Energy
            1           2           3           4           5           6
    1  -0.0002783  -0.0002544  -0.0015534  -0.0004913   0.0019832   0.0002886
    2   0.0003149   0.0002435  -0.0011103   0.0005106  -0.0018071  -0.0013107
    3  -0.0000207   0.0001103  -0.0000429   0.0001362  -0.0003576   0.0004400
            7           8           9          10          11          12
    1   0.0002775   0.0011239  -0.0008056  -0.0002060   0.0007047  -0.0016349
    2   0.0002700   0.0038518  -0.0002884  -0.0039499   0.0016183   0.0025388
    3  -0.0003879  -0.0000332  -0.0001134  -0.0003672   0.0001761   0.0006907
           13          14          15          16          17          18
    1  -0.0011688   0.0003425   0.0018953  -0.0000980  -0.0001244   0.0002425
    2   0.0013498  -0.0003168  -0.0011371   0.0001234  -0.0002737   0.0005500
    3  -0.0028982   0.0004522   0.0024997   0.0028254   0.0004723  -0.0034597
           19          20          21          22          23
    1  -0.0015310  -0.0001715   0.0011930   0.0001132   0.0001532
    2  -0.0012101   0.0004968  -0.0009108   0.0001149   0.0003321
    3  -0.0003577   0.0001678   0.0000126   0.0000760  -0.0000208
 Max gradient component =       3.950E-03
 RMS gradient           =       1.262E-03
 Gradient time:  CPU 4.32 s  wall 4.22 s
 Geometry Optimization Parameters
   NAtoms,    NIC,     NZ,  NCons,   NDum,   NFix, NCnnct, MaxDiis
       23     166       0       1       0       0       0       0

 Cartesian Hessian Update
 Hessian Updated using BFGS Update


** CONSTRAINED OPTIMIZATION IN DELOCALIZED INTERNAL COORDINATES **
   Searching for a Minimum

   Optimization Cycle:   4

                       Coordinates (Angstroms)
     ATOM                X               Y               Z
      1  H        -0.0909311612   -0.4136473884   -0.1271603085
      2  H         0.9235004486   -2.7827296644   -0.6994570510
      3  C         0.9596675410   -0.6666164198   -0.1998947611
      4  C         1.5178237321   -1.8997999692   -0.4989253111
      5  S         2.1452238638    0.5496898957    0.0681595819
      6  C         2.9205261672   -1.8664779926   -0.5124288326
      7  H         3.5422843209   -2.7263902320   -0.7355010098
      8  C         3.4490812234   -0.5954274955   -0.2223452641
      9  H         4.6864952650    1.9384019043    0.2890163475
     10  C         4.8075383121   -0.2138851432   -0.1317991446
     11  C         5.3271347519    1.0763858636    0.1411734419
     12  S         6.1091764323   -1.3660488256   -0.3353760644
     13  C         6.7091106857    1.1208185915    0.1812709392
     14  H         7.2817109468    2.0218475730    0.3686033335
     15  C         7.3256539553   -0.1309461240   -0.0617123947
     16  C         8.7092763488   -0.4216305663   -0.1536948000
     17  H         8.7699208440   -2.3484323103   -1.1996801341
     18  C         9.3270905814   -1.5314834568   -0.7548214241
     19  S         9.9240081263    0.7060307739    0.4375787954
     20  C        10.7285693511   -1.4648606881   -0.7269806385
     21  C        11.1949843313   -0.3145051500   -0.1107938122
     22  H        11.3846766768   -2.2194874234   -1.1431669273
     23  H        12.2243572553   -0.0202049924    0.0520260687
   Point Group: c1    Number of degrees of freedom:    63


   Energy is  -1656.417122497

              Constraints and their Current Values
                                        Value     Constraint
   Dihedral:       13  15  16  18     -160.000     -160.000
 Hessian Updated using BFGS Update

 62 Hessian modes will be used to form the next step
  Hessian Eigenvalues:
     0.042847    0.045000    0.045000    0.045000    0.045000    0.045001
     0.045001    0.045002    0.045002    0.045003    0.045006    0.045010
     0.045011    0.045012    0.045022    0.045029    0.045048    0.045058
     0.045068    0.151203    0.159948    0.159973    0.159989    0.159998
     0.160002    0.160363    0.162131    0.166516    0.221325    0.223789
     0.229511    0.238425    0.241425    0.249671    0.250387    0.267643
     0.284325    0.321466    0.326592    0.327574    0.339354    0.340202
     0.341317    0.365513    0.365525    0.365831    0.366889    0.367253
     0.367900    0.370109    0.370624    0.399421    0.418935    0.435477
     0.435638    0.445599    0.463285    0.464016    0.478772    0.495502
     0.497945    0.576204

 Minimum Search - Taking Simple RFO Step
 Searching for Lamda that Minimizes Along All modes
 Value Taken    Lamda =  -0.00015743
 Step Taken.  Stepsize is  0.036558

                             Maximum     Tolerance    Cnvgd?
         Gradient           0.001970      0.000300      NO
         Displacement       0.011927      0.001200      NO
         Energy change     -0.001452      0.000001      NO


 New Cartesian Coordinates Obtained by Inverse Iteration

 Displacement from previous Coordinates is:  0.091976
 ----------------------------------------------------------------
             Standard Nuclear Orientation (Angstroms)
    I     Atom           X                Y                Z
 ----------------------------------------------------------------
    1      H      -0.0890584303    -0.4088854710    -0.1461553042
    2      H       0.9240195696    -2.7803448631    -0.7079564983
    3      C       0.9616110529    -0.6614977721    -0.2111423285
    4      C       1.5176469031    -1.8975075603    -0.5043611903
    5      S       2.1436750458     0.5544847261     0.0649199000
    6      C       2.9187442365    -1.8681262551    -0.5073858845
    7      H       3.5378957755    -2.7319421411    -0.7221497418
[...]
      2 H                     0.162764       0.001425
      3 C                     0.065116       0.219985
      4 C                    -0.249177      -0.035454
      5 S                    -0.027266      -0.019267
      6 C                     0.515590       0.135432
      7 H                     0.146171      -0.008906
      8 C                    -0.198043       0.026833
      9 H                     0.142963      -0.005086
     10 C                    -0.099819       0.178002
     11 C                    -0.067510       0.058263
     12 S                    -0.323887      -0.060938
     13 C                     0.097301       0.056043
     14 H                     0.153073      -0.004552
     15 C                    -0.139484       0.176182
     16 C                    -0.263462       0.026965
     17 H                     0.155147      -0.008580
     18 C                     0.540573       0.128049
     19 S                     0.021367      -0.017524
     20 C                    -0.318964      -0.033403
     21 C                     0.050079       0.207621
     22 H                     0.159504       0.001433
     23 H                     0.236385      -0.011142
  --------------------------------------------------------
  Sum of atomic charges =     1.000000
  Sum of spin   charges =     1.000000

 -----------------------------------------------------------------
                    Cartesian Multipole Moments
 -----------------------------------------------------------------
    Charge (ESU x 10^10)
                 4.8032
    Dipole Moment (Debye)
         X      29.0636      Y      -2.5172      Z      -1.2464
       Tot      29.1991
    Quadrupole Moments (Debye-Ang)
        XX     159.2609     XY     -12.3333     YY     -87.8997
        XZ      -7.8880     YZ       7.3141     ZZ    -108.5701
    Octopole Moments (Debye-Ang^2)
       XXX     762.3347    XXY     -83.0941    XYY    -544.0842
       YYY     100.3710    XXZ     -60.4093    XYZ      49.9561
       YYZ       2.8856    XZZ    -654.0839    YZZ      39.2856
       ZZZ      48.7630
    Hexadecapole Moments (Debye-Ang^3)
      XXXX   -1431.5015   XXXY    -736.5220   XXYY   -4477.6902
      XYYY     542.5168   YYYY    -808.6703   XXXZ    -529.6662
      XXYZ     408.4578   XYYZ       4.0949   YYYZ     -76.9822
      XXZZ   -5198.9432   XYZZ     189.8844   YYZZ    -184.8659
      XZZZ     261.9368   YZZZ    -127.4132   ZZZZ    -231.2107
 -----------------------------------------------------------------
 Calculating analytic gradient of the SCF energy
 Gradient of SCF Energy
            1           2           3           4           5           6
    1  -0.0000123   0.0000058   0.0000540  -0.0000750  -0.0000575   0.0000537
    2  -0.0000097   0.0000063   0.0000316  -0.0000166   0.0000073   0.0000607
    3  -0.0000096   0.0000112   0.0000110  -0.0000274   0.0000282   0.0000528
            7           8           9          10          11          12
    1  -0.0000003   0.0000922   0.0000099  -0.0000549  -0.0001506   0.0000828
    2   0.0000041  -0.0000193   0.0000199   0.0000986  -0.0001197  -0.0000389
    3  -0.0000446  -0.0000731  -0.0000114   0.0000713  -0.0000221   0.0000076
           13          14          15          16          17          18
    1   0.0000452  -0.0000171   0.0001313  -0.0002563  -0.0000038   0.0000682
    2   0.0004066   0.0000065   0.0000554  -0.0018255   0.0000019   0.0013190
    3  -0.0025208   0.0000018   0.0026739   0.0020665  -0.0000127  -0.0022142
           19          20          21          22          23
    1   0.0000704   0.0000520  -0.0000444  -0.0000052   0.0000119
    2   0.0000029  -0.0000186   0.0000279   0.0000107  -0.0000110
    3   0.0000007   0.0000052   0.0000066  -0.0000039   0.0000031
 Max gradient component =       2.674E-03
 RMS gradient           =       6.384E-04
 Gradient time:  CPU 4.33 s  wall 4.21 s
 Geometry Optimization Parameters
   NAtoms,    NIC,     NZ,  NCons,   NDum,   NFix, NCnnct, MaxDiis
       23     166       0       1       0       0       0       0

 Cartesian Hessian Update
 Hessian Updated using BFGS Update


** CONSTRAINED OPTIMIZATION IN DELOCALIZED INTERNAL COORDINATES **
   Searching for a Minimum

   Optimization Cycle:   8

                       Coordinates (Angstroms)
     ATOM                X               Y               Z
      1  H        -0.0909302854   -0.3998519333   -0.1702226767
      2  H         0.9192170382   -2.7752046751   -0.7156003753
      3  C         0.9599682654   -0.6544759164   -0.2255739677
      4  C         1.5137820866   -1.8937510090   -0.5092197290
      5  S         2.1429874546    0.5576425233    0.0583299000
      6  C         2.9156758800   -1.8691786036   -0.4985548541
      7  H         3.5331122561   -2.7377557233   -0.6991347625
      8  C         3.4468114058   -0.6027646867   -0.2050220148
      9  H         4.6984091113    1.9341521007    0.3083455645
     10  C         4.8060808723   -0.2203060261   -0.1113239303
     11  C         5.3293853044    1.0655764949    0.1588091743
     12  S         6.1096296899   -1.3811018936   -0.3184458201
     13  C         6.7119620051    1.1084523977    0.1920272915
     14  H         7.2824880209    2.0136458522    0.3649056418
     15  C         7.3246017394   -0.1425703936   -0.0506690965
     16  C         8.7091935519   -0.4282339630   -0.1483884946
     17  H         8.7756712948   -2.3521750497   -1.1949803473
     18  C         9.3300930310   -1.5344948169   -0.7480434641
     19  S         9.9237297611    0.7156616078    0.4261037554
     20  C        10.7311176909   -1.4586305334   -0.7334461051
     21  C        11.1931361107   -0.3001572590   -0.1287816175
     22  H        11.3880032069   -2.2110190343   -1.1523790072
     23  H        12.2227545083   -0.0028586999    0.0253555654
   Point Group: c1    Number of degrees of freedom:    63


   Energy is  -1656.417240798

              Constraints and their Current Values
                                        Value     Constraint
   Dihedral:       13  15  16  18     -160.000     -160.000
 Hessian Updated using BFGS Update

 62 Hessian modes will be used to form the next step
  Hessian Eigenvalues:
     0.012581    0.041048    0.045000    0.045000    0.045001    0.045001
     0.045001    0.045002    0.045003    0.045006    0.045007    0.045011
     0.045013    0.045017    0.045026    0.045038    0.045051    0.045063
     0.045889    0.144559    0.159467    0.159949    0.160000    0.160061
     0.160112    0.160517    0.160946    0.170773    0.220170    0.221973
     0.229015    0.241722    0.245510    0.249205    0.250160    0.270674
     0.292399    0.297234    0.326889    0.328851    0.334380    0.340194
     0.342246    0.365531    0.365569    0.366097    0.366895    0.367481
     0.367955    0.370121    0.371579    0.403369    0.427357    0.435101
     0.440328    0.460824    0.463670    0.474123    0.488812    0.496306
     0.505605    0.604907

 Minimum Search - Taking Simple RFO Step
 Searching for Lamda that Minimizes Along All modes
 Value Taken    Lamda =   0.00000000
 Step Taken.  Stepsize is  0.005211

                             Maximum     Tolerance    Cnvgd?
         Gradient           0.000095      0.000300     YES
         Displacement       0.002822      0.001200      NO
         Energy change     -0.000001      0.000001     YES

 Final energy is   -1656.41724079793     


 ******************************
 **  OPTIMIZATION CONVERGED  **
 ******************************

                       Coordinates (Angstroms)
     ATOM                X               Y               Z
      1  H        -0.0909302854   -0.3998519333   -0.1702226767
      2  H         0.9192170382   -2.7752046751   -0.7156003753
      3  C         0.9599682654   -0.6544759164   -0.2255739677
      4  C         1.5137820866   -1.8937510090   -0.5092197290
      5  S         2.1429874546    0.5576425233    0.0583299000
      6  C         2.9156758800   -1.8691786036   -0.4985548541
      7  H         3.5331122561   -2.7377557233   -0.6991347625
      8  C         3.4468114058   -0.6027646867   -0.2050220148
      9  H         4.6984091113    1.9341521007    0.3083455645
     10  C         4.8060808723   -0.2203060261   -0.1113239303
     11  C         5.3293853044    1.0655764949    0.1588091743
     12  S         6.1096296899   -1.3811018936   -0.3184458201
     13  C         6.7119620051    1.1084523977    0.1920272915
     14  H         7.2824880209    2.0136458522    0.3649056418
     15  C         7.3246017394   -0.1425703936   -0.0506690965
     16  C         8.7091935519   -0.4282339630   -0.1483884946
     17  H         8.7756712948   -2.3521750497   -1.1949803473
     18  C         9.3300930310   -1.5344948169   -0.7480434641
     19  S         9.9237297611    0.7156616078    0.4261037554
     20  C        10.7311176909   -1.4586305334   -0.7334461051
     21  C        11.1931361107   -0.3001572590   -0.1287816175
     22  H        11.3880032069   -2.2110190343   -1.1523790072
     23  H        12.2227545083   -0.0028586999    0.0253555654

Z-matrix Print:
$molecule
1 2
S 
C  1 1.755512
C  2 1.413961 1 110.519359
H  3 1.083864 2 122.562667 1 -178.891079 0
C  3 1.383640 2 113.666248 1 -0.164285 0
H  5 1.083935 3 123.609225 2 -179.047260 0
C  5 1.414324 3 113.733169 2 -0.009487 0
C  7 1.415156 5 127.861334 3 179.598295 0
C  8 1.404304 7 128.377836 5 178.607450 0
H  9 1.084383 8 123.068859 7 -0.208589 0
C  9 1.402150 8 113.299939 7 179.961268 0
H  11 1.083079 9 124.372400 8 179.920563 0
C  11 1.386711 9 112.462704 8 -0.010325 0
H  13 1.082721 11 127.463651 9 -179.972961 0
C  2 1.417126 1 121.565051 3 -177.157131 0
C  15 1.403180 2 128.369352 1 16.627821 0
H  16 1.084314 15 122.985340 2 -2.385379 0
C  16 1.403153 15 113.250454 2 176.372777 0
H  18 1.083094 16 124.332022 15 -179.616233 0
C  18 1.386052 16 112.492128 15 -0.112812 0
H  20 1.082709 18 127.488140 16 179.081811 0
S  13 1.717372 11 112.921045 9 -0.011313 0
S  20 1.717899 18 112.881379 16 -0.187497 0
$end

 
 --------------------------------------------------------------
 
                    Orbital Energies (a.u.)
 --------------------------------------------------------------
 
 Alpha MOs
 -- Occupied --
-89.074 -89.065 -89.064 -10.410 -10.410 -10.391 -10.390 -10.379
-10.377 -10.366 -10.366 -10.358 -10.357 -10.345 -10.344  -8.133
 -8.124  -8.123  -6.097  -6.094  -6.089  -6.089  -6.087  -6.085
 -6.084  -6.082  -6.080  -1.064  -1.041  -1.026  -0.944  -0.915
 -0.893  -0.891  -0.883  -0.842  -0.772  -0.749  -0.713  -0.703
 -0.687  -0.678  -0.673  -0.646  -0.606  -0.572  -0.571  -0.571
 -0.560  -0.551  -0.548  -0.545  -0.536  -0.523  -0.519  -0.509
 -0.492  -0.490  -0.455  -0.422  -0.406  -0.404  -0.395  -0.346
 -- Virtual --
 -0.231  -0.179  -0.141  -0.137  -0.129  -0.122  -0.113  -0.102
 -0.099  -0.095  -0.086  -0.082  -0.080  -0.079  -0.077  -0.075
 -0.070  -0.065  -0.063  -0.053  -0.046  -0.043  -0.034  -0.029
 -0.023  -0.023  -0.017  -0.008  -0.007   0.000   0.004   0.005
  0.006   0.013   0.016   0.020   0.023   0.028   0.029   0.033
  0.034   0.037   0.042   0.044   0.047   0.049   0.054   0.055
  0.057   0.059   0.064   0.069   0.070   0.073   0.079   0.081
  0.085   0.088   0.095   0.101   0.104   0.107   0.112   0.119
  0.120   0.123   0.127   0.129   0.132   0.140   0.149   0.151
  0.153   0.157   0.161   0.171   0.173   0.184   0.193   0.199
  0.206   0.208   0.227   0.230   0.232   0.240   0.247   0.254
  0.259   0.264   0.269   0.276   0.320   0.328   0.345   0.372
  0.377   0.383   0.388   0.397   0.436   0.443   0.451   0.454
  0.466   0.481   0.497   0.502   0.507   0.510   0.512   0.513
  0.519   0.523   0.542   0.557   0.568   0.571   0.585   0.586
  0.589   0.594   0.601   0.616   0.622   0.628   0.648   0.650
  0.676   0.682   0.692   0.694   0.696   0.713   0.731   0.746
  0.791   0.796   0.799   0.809   0.817   0.820   0.823   0.827
  0.842   0.845   0.850   0.852   0.868   0.878   0.890   0.903
  0.916   0.927   0.932   0.949   0.959   0.965   0.967   0.981
  1.010   1.023   1.031   1.040   1.048   1.085   1.098   1.114
  1.119   1.134   1.151   1.172   1.190   1.193   1.198   1.204
  1.214   1.215   1.233   1.311   1.323   1.332   1.334   1.350
  1.365   1.411   1.452   1.504   1.523   1.543   1.559   1.571
  1.666   1.689   1.707   1.712   1.733   1.767   1.771   1.784
  1.791   1.794   1.805   1.834   1.871   1.881   1.900   1.918
  1.924   1.957   1.964   2.015   2.025   2.033   2.048   2.053
  2.076   2.090   2.111   2.122   2.148   2.185   2.228   2.231
  2.281   2.285   2.293   2.307   2.315   2.322   2.342   2.361
  2.377   2.385   2.398   2.402   2.429   2.444   2.467   2.483
  2.522   2.549   2.565   2.574   2.583   2.685   2.722   2.740
  2.780   2.785   2.793   2.803   2.987   3.039   3.080   3.141
  3.142   3.176   3.272   3.273   3.527   3.592   3.603   3.825
  3.835   3.844   4.106   4.124   4.161   4.175   4.179   4.180
  4.237   4.325   4.394   4.509   4.553   4.580
 
 Beta MOs
 -- Occupied --
-89.074 -89.065 -89.064 -10.407 -10.407 -10.391 -10.389 -10.376
-10.374 -10.366 -10.365 -10.356 -10.355 -10.346 -10.344  -8.133
 -8.124  -8.123  -6.098  -6.094  -6.090  -6.089  -6.087  -6.085
 -6.084  -6.082  -6.080  -1.059  -1.037  -1.022  -0.939  -0.913
 -0.891  -0.890  -0.880  -0.835  -0.769  -0.746  -0.710  -0.700
 -0.685  -0.676  -0.672  -0.644  -0.604  -0.569  -0.569  -0.562
 -0.558  -0.549  -0.546  -0.537  -0.534  -0.521  -0.508  -0.508
 -0.491  -0.489  -0.437  -0.419  -0.402  -0.400  -0.379
 -- Virtual --
 -0.294  -0.215  -0.167  -0.139  -0.133  -0.123  -0.120  -0.112
 -0.098  -0.095  -0.092  -0.085  -0.081  -0.077  -0.076  -0.071
 -0.070  -0.069  -0.064  -0.062  -0.052  -0.044  -0.042  -0.034
 -0.028  -0.022  -0.022  -0.016  -0.008  -0.007   0.002   0.004
  0.005   0.007   0.013   0.016   0.021   0.024   0.028   0.030
  0.034   0.035   0.038   0.043   0.044   0.048   0.050   0.054
  0.056   0.058   0.061   0.064   0.069   0.071   0.074   0.080
  0.081   0.086   0.089   0.096   0.102   0.105   0.107   0.114
  0.120   0.121   0.124   0.128   0.130   0.134   0.142   0.150
  0.152   0.155   0.158   0.162   0.172   0.174   0.185   0.194
  0.200   0.207   0.209   0.227   0.231   0.234   0.241   0.248
  0.255   0.260   0.265   0.271   0.277   0.322   0.329   0.346
  0.372   0.377   0.384   0.389   0.398   0.436   0.444   0.452
  0.455   0.467   0.482   0.498   0.503   0.513   0.514   0.516
  0.518   0.522   0.530   0.543   0.558   0.569   0.575   0.587
  0.587   0.591   0.595   0.605   0.621   0.626   0.634   0.649
  0.651   0.680   0.687   0.695   0.696   0.698   0.717   0.732
  0.747   0.794   0.797   0.800   0.811   0.818   0.822   0.827
  0.829   0.843   0.846   0.851   0.853   0.870   0.879   0.891
  0.904   0.917   0.928   0.933   0.950   0.959   0.966   0.968
  0.982   1.011   1.026   1.034   1.043   1.051   1.088   1.102
  1.116   1.124   1.140   1.153   1.175   1.194   1.196   1.202
  1.207   1.219   1.221   1.236   1.314   1.328   1.336   1.338
  1.353   1.369   1.414   1.455   1.510   1.530   1.549   1.568
  1.578   1.671   1.691   1.708   1.715   1.736   1.768   1.776
  1.786   1.794   1.796   1.809   1.837   1.875   1.885   1.905
  1.921   1.927   1.960   1.969   2.021   2.031   2.039   2.052
  2.057   2.081   2.094   2.115   2.127   2.154   2.189   2.230
  2.233   2.284   2.288   2.298   2.309   2.320   2.327   2.343
  2.363   2.381   2.387   2.399   2.405   2.432   2.447   2.469
  2.487   2.526   2.550   2.568   2.577   2.585   2.688   2.725
  2.742   2.783   2.788   2.794   2.804   2.988   3.040   3.081
  3.141   3.142   3.176   3.273   3.274   3.528   3.593   3.604
  3.825   3.835   3.844   4.110   4.127   4.164   4.177   4.181
  4.185   4.242   4.328   4.399   4.512   4.556   4.583
 --------------------------------------------------------------
 
          Ground-State Mulliken Net Atomic Charges

     Atom                 Charge (a.u.)    Spin (a.u.)
  --------------------------------------------------------
      1 H                     0.241581      -0.011381
      2 H                     0.162764       0.001425
      3 C                     0.065116       0.219985
      4 C                    -0.249177      -0.035454
      5 S                    -0.027266      -0.019267
      6 C                     0.515590       0.135432
      7 H                     0.146171      -0.008906
      8 C                    -0.198043       0.026833
      9 H                     0.142963      -0.005086
     10 C                    -0.099819       0.178002
     11 C                    -0.067510       0.058263
     12 S                    -0.323887      -0.060938
     13 C                     0.097301       0.056043
     14 H                     0.153073      -0.004552
     15 C                    -0.139484       0.176182
     16 C                    -0.263462       0.026965
     17 H                     0.155147      -0.008580
     18 C                     0.540573       0.128049
     19 S                     0.021367      -0.017524
     20 C                    -0.318964      -0.033403
     21 C                     0.050079       0.207621
     22 H                     0.159504       0.001433
     23 H                     0.236385      -0.011142
  --------------------------------------------------------
  Sum of atomic charges =     1.000000
  Sum of spin   charges =     1.000000

 -----------------------------------------------------------------
                    Cartesian Multipole Moments
 -----------------------------------------------------------------
    Charge (ESU x 10^10)
                 4.8032
    Dipole Moment (Debye)
         X      29.0636      Y      -2.5172      Z      -1.2464
       Tot      29.1991
    Quadrupole Moments (Debye-Ang)
        XX     159.2609     XY     -12.3333     YY     -87.8997
        XZ      -7.8880     YZ       7.3141     ZZ    -108.5701
    Octopole Moments (Debye-Ang^2)
       XXX     762.3347    XXY     -83.0941    XYY    -544.0842
       YYY     100.3710    XXZ     -60.4093    XYZ      49.9561
       YYZ       2.8856    XZZ    -654.0839    YZZ      39.2856
       ZZZ      48.7630
    Hexadecapole Moments (Debye-Ang^3)
      XXXX   -1431.5015   XXXY    -736.5220   XXYY   -4477.6902
      XYYY     542.5168   YYYY    -808.6703   XXXZ    -529.6662
      XXYZ     408.4578   XYYZ       4.0949   YYYZ     -76.9822
      XXZZ   -5198.9432   XYZZ     189.8844   YYZZ    -184.8659
      XZZZ     261.9368   YZZZ    -127.4132   ZZZZ    -231.2107
 -----------------------------------------------------------------
Archival summary:
1\1\nid00529\OPT\ProcedureUnspecified\BasisUnspecified\3128(1+,2)\bwood\TueMay3011:01:472017TueMay3011:01:472017\0\\#,OPT,ProcedureUnspecified,BasisUnspecified,\\1,2\S\C,1,1.75551\C,2,1.41396,1,110.519\H,3,1.08386,2,122.563,1,-178.891,0\C,3,1.38364,2,113.666,1,-0.164285,0\H,5,1.08394,3,123.609,2,-179.047,0\C,5,1.41432,3,113.733,2,-0.00948744,0\C,7,1.41516,5,127.861,3,179.598,0\C,8,1.4043,7,128.378,5,178.607,0\H,9,1.08438,8,123.069,7,-0.208589,0\C,9,1.40215,8,113.3,7,179.961,0\H,11,1.08308,9,124.372,8,179.921,0\C,11,1.38671,9,112.463,8,-0.0103252,0\H,13,1.08272,11,127.464,9,-179.973,0\C,2,1.41713,1,121.565,3,-177.157,0\C,15,1.40318,2,128.369,1,16.6278,0\H,16,1.08431,15,122.985,2,-2.38538,0\C,16,1.40315,15,113.25,2,176.373,0\H,18,1.08309,16,124.332,15,-179.616,0\C,18,1.38605,16,112.492,15,-0.112812,0\H,20,1.08271,18,127.488,16,179.082,0\S,13,1.71737,11,112.921,9,-0.0113129,0\S,20,1.7179,18,112.881,16,-0.187497,0\\\@

 Total job time:  177.33s(wall), 188.16s(cpu) 
 Tue May 30 11:01:47 2017

        *************************************************************
        *                                                           *
        *  Thank you very much for using Q-Chem.  Have a nice day.  *
        *                                                           *
        *************************************************************


0 sent ACK to 0 
now end server 0 ... 
