srun -N 1 --ntasks-per-node 22 --cpus-per-task 2 --cpu_bind=cores --nodelist nid00482 /global/project/projectdirs/jcesr/qchem/qc44/cnl_qc441/dist/exe/qcprog.cori.haswell.exe .pt_nn_cation_30.0.in.33131.qcin.1 /dev/shm/eg_qchem/qchem33131/
Process 1 of 22 is on nid00482 - thread support 0
Process 2 of 22 is on nid00482 - thread support 0
Process 3 of 22 is on nid00482 - thread support 0
Process 4 of 22 is on nid00482 - thread support 0
Process 0 of 22 is on nid00482 - thread support 0
Process 5 of 22 is on nid00482 - thread support 0
Process 6 of 22 is on nid00482 - thread support 0
Process 21 of 22 is on nid00482 - thread support 0
initial socket setup ...start
initial socket setup ...done 
now start server 0 ... 
nid00482 10.128.1
Q-Chem Developer Version! Running on 10.128.1.*
                  Welcome to Q-Chem
     A Quantum Leap Into The Future Of Chemistry


 Q-Chem 4.4, Q-Chem, Inc., Pleasanton, CA (2016)

 Y. Shao,  Z. Gan,  E. Epifanovsky,  A. T. B. Gilbert,  M. Wormit,  
 J. Kussmann,  A. W. Lange,  A. Behn,  J. Deng,  X. Feng,  D. Ghosh,  
 M. Goldey,  P. R. Horn,  L. D. Jacobson,  I. Kaliman,  F. Rob,  
 R. Z. Khaliullin,  T. Kus,  A. Landau,  J. Liu,  E. I. Proynov,  Y. M. Rhee,  
 R. M. Richard,  M. A. Rohrdanz,  R. P. Steele,  E. J. Sundstrom,  
 H. L. Woodcock III,  P. M. Zimmerman,  D. Zuev,  B. Albrecht,  E. Alguire,  
 B. Austin,  S. A. Baeppler,  G. J. O. Beran,  Y. A. Bernard,  
 E. J. Berquist,  K. Brandhorst,  K. B. Bravaya,  S. T. Brown,  D. Casanova,  
 C.-M. Chang,  Y. Chen,  S. H. Chien,  K. D. Closser,  M. P. Coons,  
 D. L. Crittenden,  S. Dasgupta,  M. Diedenhofen,  R. A. DiStasio Jr.,  
 H. Do,  A. D. Dutoi,  R. G. Edgar,  P.-T. Fang,  S. Fatehi,  Q. Feng,  
 L. Fusti-Molnar,  A. Ghysels,  A. Golubeva-Zadorozhnaya,  J. Gomes,  
 A. Gunina,  M. W. D. Hanson-Heine,  P. H. P. Harbach,  A. W. Hauser,  
 J. E. Herr,  E. G. Hohenstein,  Z. C. Holden,  K. Hui,  T.-C. Jagau,  H. Ji,  
 B. Kaduk,  K. Khistyaev,  Jaehoon Kim,  Jihan Kim,  R. A. King,  
 P. Klunzinger,  K. Koh,  D. Kosenkov,  T. Kowalczyk,  C. M. Krauter,  
 A. Kunitsa,  K. U. Lao,  A. Laurent,  K. V. Lawler,  J. Lee,  D. Lefrancois,  
 S. Lehtola,  S. V. Levchenko,  C. Y. Lin,  Y.-S. Lin,  F. Liu,  E. Livshits,  
 R. C. Lochan,  A. Luenser,  P. Manohar,  S. F. Manzer,  S.-P. Mao,  Y. Mao,  
 N. Mardirossian,  A. V. Marenich,  L. A. Martinez-Martinez,  S. A. Maurer,  
 N. J. Mayhall,  J.-M. Mewes,  A. F. Morrison,  K. Nanda,  T. S. Nguyen-Beck,  
 C. M. Oana,  R. Olivares-Amaya,  D. P. O'Neill,  J. A. Parkhill,  
 T. M. Perrine,  R. Peverati,  P. A. Pieniazek,  F. Plasser,  A. Prociuk,  
 D. R. Rehn,  E. Rosta,  N. J. Russ,  N. Sergueev,  S. M. Sharada,  
 S. Sharma,  D. W. Small,  A. Sodt,  T. Stauch,  T. Stein,  D. Stuck,  
 Y.-C. Su,  A. J. W. Thom,  T. Tsuchimochi,  L. Vogt,  O. Vydrov,  T. Wang,  
 M. A. Watson,  J. Wenzel,  A. White,  C. F. Williams,  V. Vanovschi,  
 K. Yao,  S. Yeganeh,  S. R. Yost,  Z.-Q. You,  I. Y. Zhang,  X. Zhang,  
 Y. Zhao,  B. R. Brooks,  G. K. L. Chan,  D. M. Chipman,  C. J. Cramer,  
 W. A. Goddard III,  M. S. Gordon,  W. J. Hehre,  A. Klamt,  
 H. F. Schaefer III,  M. W. Schmidt,  C. D. Sherrill,  D. G. Truhlar,  
 A. Warshel,  X. Xu,  A. Aspuru-Guzik,  R. Baer,  A. T. Bell,  N. A. Besley,  
 J.-D. Chai,  A. Dreuw,  B. D. Dunietz,  T. R. Furlani,  S. R. Gwaltney,  
 C.-P. Hsu,  Y. Jung,  J. Kong,  D. S. Lambrecht,  W. Liang,  C. Ochsenfeld,  
 V. A. Rassolov,  L. V. Slipchenko,  J. E. Subotnik,  T. Van Voorhis,  
 J. M. Herbert,  A. I. Krylov,  P. M. W. Gill,  M. Head-Gordon

 Contributors to earlier versions of Q-Chem not listed above: 
 R. D. Adamson,  J. Baker,  E. F. C. Byrd,  A. K. Chakraborty,  C.-L. Cheng,  
 H. Dachsel,  R. J. Doerksen,  G. Hawkins,  A. Heyden,  S. Hirata,  
 G. Kedziora,  F. J. Keil,  C. Kelley,  P. P. Korambath,  W. Kurlancheek,  
 A. M. Lee,  M. S. Lee,  D. Liotard,  I. Lotan,  P. E. Maslen,  N. Nair,  
 D. Neuhauser,  R. Olson,  B. Peters,  J. Ritchie,  N. E. Schultz,  
 N. Shenvi,  A. C. Simmonett,  K. S. Thanthiriwatte,  Q. Wu,  W. Zhang

 Please cite Q-Chem as follows:
 Y. Shao et al., Mol. Phys. 113, 184-215 (2015)
 DOI: 10.1080/00268976.2014.952696

 Q-Chem 4.4.2 for Intel X86 EM64T Linux

 Parts of Q-Chem use Armadillo 5.200.1 (Boston Tea Smuggler).
 http://arma.sourceforge.net/

 Q-Chem begins on Tue May 30 10:58:48 2017  

Host: nid00444
0

     Scratch files written to /dev/shm/eg_qchem/qchem33131.0//
 Parallel job on  22  processors

Checking the input file for inconsistencies... 	...done.

--------------------------------------------------------------
User input:
--------------------------------------------------------------
$molecule
 1  2
 H           0.00000000        0.00000000        0.00000000
 H           0.66366000       -2.46828000       -0.59127000
 C           0.99103000       -0.39106000       -0.11652000
 C           1.36812000       -1.67442000       -0.42485000
 S           2.34669000        0.62586000        0.08638000
 C           2.76167000       -1.82175000       -0.50822000
 H           3.26291000       -2.73877000       -0.76199000
 C           3.44671000       -0.65043000       -0.26057000
 H           4.55645000        1.43902671        0.15704385
 C           4.88382000       -0.65043000       -0.26057000
 C           5.26091000        0.64090194        0.01245390
 S           6.23948000       -1.67253113       -0.43550939
 C           6.65446000        0.79046248        0.09175311
 H           7.15570000        1.71409653        0.32028213
 C           7.33950000       -0.38720773       -0.12368600
 C           8.77661000       -0.38720773       -0.12368600
 H           8.96041000        1.28648602        1.22217196
 C           9.46165000        0.52496529        0.65172506
 S           9.87663000       -1.44213889       -0.92143918
 C          10.85520000        0.36891052        0.58612312
 C          11.23229000       -0.65978481       -0.24083844
 H          11.55966000        0.98600640        1.11252751
 H          12.22332000       -0.99110180       -0.47902837
$end


$rem
         jobtype = opt
        exchange = b3lyp
           basis = 6-31++g**
  max_scf_cycles = 150
      mem_static = 281
       mem_total = 2818
      sym_ignore = true
        symmetry = false
          thresh = 12
$end


$opt
CONSTRAINT
tors 13 15 16 18 30.0
ENDCONSTRAINT
$end

--------------------------------------------------------------
 ----------------------------------------------------------------
             Standard Nuclear Orientation (Angstroms)
    I     Atom           X                Y                Z
 ----------------------------------------------------------------
    1      H       0.0000000000     0.0000000000     0.0000000000
    2      H       0.6636600000    -2.4682800000    -0.5912700000
    3      C       0.9910300000    -0.3910600000    -0.1165200000
    4      C       1.3681200000    -1.6744200000    -0.4248500000
    5      S       2.3466900000     0.6258600000     0.0863800000
    6      C       2.7616700000    -1.8217500000    -0.5082200000
    7      H       3.2629100000    -2.7387700000    -0.7619900000
    8      C       3.4467100000    -0.6504300000    -0.2605700000
    9      H       4.5564500000     1.4390267100     0.1570438500
   10      C       4.8838200000    -0.6504300000    -0.2605700000
   11      C       5.2609100000     0.6409019400     0.0124539000
   12      S       6.2394800000    -1.6725311300    -0.4355093900
   13      C       6.6544600000     0.7904624800     0.0917531100
   14      H       7.1557000000     1.7140965300     0.3202821300
   15      C       7.3395000000    -0.3872077300    -0.1236860000
   16      C       8.7766100000    -0.3872077300    -0.1236860000
   17      H       8.9604100000     1.2864860200     1.2221719600
   18      C       9.4616500000     0.5249652900     0.6517250600
   19      S       9.8766300000    -1.4421388900    -0.9214391800
   20      C      10.8552000000     0.3689105200     0.5861231200
   21      C      11.2322900000    -0.6597848100    -0.2408384400
   22      H      11.5596600000     0.9860064000     1.1125275100
   23      H      12.2233200000    -0.9911018000    -0.4790283700
 ----------------------------------------------------------------
 Nuclear Repulsion Energy =  1186.5503495996 hartrees
 There are       64 alpha and       63 beta electrons
 Requested basis set is 6-31++G(d,p)
 There are 110 shells and 345 basis functions

 Total QAlloc Memory Limit   2818 MB
 Mega-Array Size       275 MB
 MEM_STATIC part       281 MB
 A cutoff of  1.0D-12 yielded   4722 shell pairs
 There are     48143 function pairs

 Q-Chem warning in module /project/projectdirs/jcesr/qchem/qc44/cnl_qc441/compile/cori/qc_src/libqints/qchem/aobasis.C, line 68:

 Using reconstructed effective core potential

 
 -------------------------------------------------------
 OpenMP Integral Computing Module                       
 Release: version 1.0, May 2013, Q-Chem Inc. Pittsburgh 
 -------------------------------------------------------
 Integral Job Info:
 Integral job number is                      11
 Integral operator is                         1
 short-range coefficients                     0
 long-range coefficients              100000000
 Omega coefficients                           0
 if combine SR and LR in K                    0
 Integral screening is                        0
 Integral computing path is                   2
 max size of driver memory is            800000
 size of driver memory is                593474
 size of scratch memory is             15166112
 max col of scratch BK array               1296
 max len of scratch array in speh3          155
 max len of scratch index in speh4           18
 max int batch size is                      520
 min int batch size is                       52
 fixed nKL is                                52
 max L of basis functions is                  2
 order of int derivative is                   0
 number of shells is                        110
 number of basis is                         345
 number of cartesian basis is               345
 number of contracted shell pairs          4722
 number of primitive shell pairs          14792
 maxK2 (contraction) of shell pair           36
 max number of K2 of shell pair               1
 max number of CS2 of shell pair            507
 max number of PS2 of shell pair           3042
 mem total for path MDJ                  101288
 -------------------------------------------------------
 Smallest overlap matrix eigenvalue = 7.70E-08
 Linear dependence detected in AO basis
 Number of orthogonalized atomic orbitals = 342
 Maximum deviation from orthogonality = 1.361E-10

 Scale SEOQF with 1.000000e-02/1.000000e-01/1.000000e-01

 Standard Electronic Orientation quadrupole field applied
 Nucleus-field energy     =     0.0000000306 hartrees
 Guess from superposition of atomic densities
 Warning:  Energy on first SCF cycle will be non-variational
 An unrestricted hybrid HF-DFT SCF calculation will be
 performed using Pulay DIIS extrapolation
 Exchange:     0.2000 Hartree-Fock + 0.0800 Slater + 0.7200 B88
 Correlation:  0.1900 VWN1RPA + 0.8100 LYP
 Using SG-1 standard quadrature grid
 SCF converges when DIIS error is below 1.0E-08
 Inaccurate integrated density:
   Number of electrons =   127
   Numerical integral  =   127.999614997436
   Relative error      =     0.7870984232 %
 ---------------------------------------
  Cycle       Energy         DIIS Error
 ---------------------------------------
    1   -1660.7395008394      3.84E-02
    2   -1656.1683038012      3.50E-03
    3   -1655.8520919316      5.45E-03
    4   -1656.3587971289      7.97E-04
    5   -1656.3655391374      5.27E-04
    6   -1656.3696802892      2.08E-04
    7   -1656.3704287702      6.75E-05
    8   -1656.3705329022      1.47E-05
    9   -1656.3705490508      6.32E-06
   10   -1656.3705600423      3.45E-06
   11   -1656.3705676139      1.85E-06
   12   -1656.3705710036      1.13E-06
   13   -1656.3705719646      4.92E-07
   14   -1656.3705720236      3.20E-07
   15   -1656.3705720382      9.12E-08
   16   -1656.3705720398      4.51E-08
   17   -1656.3705720391      1.75E-08
   18   -1656.3705720394      1.05E-08
   19   -1656.3705720389      4.48E-09 Convergence criterion met
 ---------------------------------------
 <S^2> = 0.7661
 SCF time:  CPU 26.01 s  wall 24.16 s
 SCF   energy in the final basis set = -1656.3705720389
 Total energy in the final basis set = -1656.3705720389
 
 --------------------------------------------------------------
 
                    Orbital Energies (a.u.)
 --------------------------------------------------------------
 
 Alpha MOs
 -- Occupied --
-89.086 -89.067 -89.062 -10.408 -10.403 -10.390 -10.387 -10.377
-10.371 -10.358 -10.358 -10.350 -10.350 -10.341 -10.338  -8.145
 -8.127  -8.122  -6.109  -6.105  -6.101  -6.092  -6.088  -6.086
 -6.084  -6.082  -6.079  -1.080  -1.052  -1.038  -0.957  -0.917
 -0.901  -0.893  -0.888  -0.848  -0.774  -0.749  -0.714  -0.703
 -0.692  -0.680  -0.676  -0.657  -0.607  -0.583  -0.581  -0.570
 -0.565  -0.552  -0.550  -0.545  -0.535  -0.526  -0.519  -0.508
 -0.492  -0.489  -0.458  -0.423  -0.408  -0.402  -0.398  -0.354
 -- Virtual --
 -0.221  -0.171  -0.147  -0.136  -0.122  -0.115  -0.109  -0.105
 -0.099  -0.094  -0.092  -0.089  -0.081  -0.078  -0.074  -0.070
 -0.068  -0.064  -0.060  -0.053  -0.046  -0.045  -0.039  -0.035
 -0.026  -0.023  -0.016  -0.015  -0.005  -0.004   0.004   0.007
  0.010   0.013   0.014   0.017   0.022   0.029   0.030   0.032
  0.037   0.038   0.041   0.045   0.046   0.049   0.050   0.056
  0.058   0.059   0.065   0.068   0.071   0.073   0.078   0.080
  0.088   0.095   0.098   0.104   0.107   0.108   0.114   0.118
  0.121   0.124   0.130   0.135   0.140   0.143   0.149   0.155
  0.161   0.163   0.171   0.175   0.177   0.183   0.192   0.199
  0.204   0.208   0.219   0.230   0.237   0.241   0.243   0.253
  0.262   0.266   0.274   0.290   0.305   0.324   0.348   0.357
  0.377   0.383   0.395   0.410   0.418   0.439   0.456   0.468
  0.480   0.494   0.497   0.507   0.509   0.515   0.518   0.520
  0.524   0.533   0.549   0.568   0.571   0.578   0.580   0.594
  0.598   0.600   0.604   0.610   0.615   0.639   0.655   0.663
  0.664   0.666   0.673   0.679   0.698   0.710   0.747   0.761
  0.795   0.800   0.803   0.807   0.819   0.824   0.834   0.835
  0.848   0.856   0.864   0.872   0.879   0.890   0.901   0.908
  0.919   0.933   0.941   0.955   0.958   0.972   0.975   0.981
  0.984   1.026   1.032   1.037   1.057   1.071   1.102   1.115
  1.128   1.150   1.153   1.176   1.190   1.197   1.202   1.218
  1.221   1.230   1.245   1.273   1.277   1.303   1.320   1.359
  1.388   1.412   1.463   1.480   1.504   1.533   1.560   1.569
  1.671   1.698   1.718   1.736   1.757   1.767   1.786   1.794
  1.821   1.835   1.851   1.860   1.874   1.898   1.918   1.946
  1.954   1.969   1.992   2.024   2.038   2.052   2.057   2.089
  2.098   2.099   2.150   2.167   2.185   2.202   2.235   2.242
  2.273   2.297   2.311   2.326   2.335   2.340   2.369   2.390
  2.394   2.396   2.428   2.441   2.454   2.464   2.470   2.509
  2.532   2.550   2.578   2.580   2.604   2.681   2.693   2.712
  2.764   2.784   2.821   2.832   3.024   3.061   3.100   3.162
  3.164   3.202   3.297   3.299   3.557   3.625   3.634   3.812
  3.850   3.860   4.104   4.129   4.166   4.176   4.190   4.197
  4.232   4.323   4.411   4.505   4.563   4.581
 
 Beta MOs
 -- Occupied --
-89.086 -89.067 -89.062 -10.405 -10.401 -10.389 -10.386 -10.374
-10.368 -10.357 -10.357 -10.348 -10.348 -10.342 -10.338  -8.145
 -8.128  -8.122  -6.110  -6.106  -6.102  -6.092  -6.088  -6.086
 -6.084  -6.082  -6.079  -1.076  -1.048  -1.035  -0.951  -0.915
 -0.896  -0.891  -0.886  -0.841  -0.771  -0.747  -0.712  -0.701
 -0.690  -0.677  -0.675  -0.655  -0.605  -0.581  -0.571  -0.569
 -0.562  -0.549  -0.544  -0.543  -0.533  -0.518  -0.515  -0.507
 -0.492  -0.488  -0.439  -0.421  -0.403  -0.399  -0.379
 -- Virtual --
 -0.301  -0.206  -0.161  -0.145  -0.130  -0.116  -0.114  -0.104
 -0.101  -0.096  -0.093  -0.090  -0.082  -0.080  -0.077  -0.070
 -0.069  -0.067  -0.062  -0.058  -0.052  -0.045  -0.044  -0.038
 -0.035  -0.025  -0.022  -0.016  -0.014  -0.005  -0.004   0.005
  0.008   0.011   0.013   0.014   0.018   0.023   0.030   0.030
  0.033   0.037   0.039   0.042   0.046   0.047   0.050   0.051
  0.056   0.058   0.061   0.066   0.068   0.072   0.073   0.079
  0.081   0.089   0.095   0.099   0.105   0.108   0.108   0.115
  0.119   0.122   0.125   0.130   0.135   0.141   0.144   0.149
  0.156   0.162   0.165   0.172   0.176   0.178   0.184   0.193
  0.200   0.205   0.210   0.220   0.231   0.237   0.242   0.244
  0.253   0.264   0.268   0.275   0.291   0.306   0.325   0.350
  0.358   0.378   0.384   0.395   0.412   0.421   0.440   0.458
  0.469   0.481   0.496   0.501   0.510   0.513   0.517   0.521
  0.527   0.531   0.534   0.551   0.569   0.572   0.580   0.582
  0.596   0.601   0.602   0.607   0.614   0.617   0.645   0.656
  0.664   0.667   0.669   0.674   0.684   0.702   0.714   0.748
  0.762   0.797   0.802   0.806   0.808   0.821   0.827   0.837
  0.837   0.850   0.857   0.866   0.873   0.880   0.891   0.903
  0.909   0.920   0.935   0.942   0.956   0.959   0.974   0.976
  0.983   0.985   1.029   1.035   1.040   1.060   1.074   1.105
  1.118   1.131   1.153   1.157   1.180   1.191   1.202   1.206
  1.223   1.225   1.233   1.247   1.276   1.281   1.307   1.324
  1.362   1.394   1.416   1.467   1.486   1.509   1.536   1.570
  1.577   1.673   1.700   1.722   1.740   1.759   1.768   1.787
  1.795   1.826   1.839   1.854   1.864   1.878   1.902   1.921
  1.949   1.956   1.975   1.997   2.031   2.044   2.058   2.065
  2.094   2.104   2.104   2.156   2.170   2.188   2.206   2.238
  2.244   2.278   2.301   2.314   2.329   2.339   2.342   2.371
  2.393   2.396   2.401   2.430   2.444   2.456   2.467   2.473
  2.512   2.535   2.552   2.581   2.583   2.607   2.684   2.697
  2.715   2.766   2.786   2.823   2.834   3.024   3.062   3.101
  3.162   3.164   3.202   3.298   3.300   3.558   3.626   3.635
  3.812   3.850   3.860   4.108   4.133   4.171   4.179   4.192
  4.200   4.237   4.327   4.415   4.508   4.566   4.584
 --------------------------------------------------------------
 
          Ground-State Mulliken Net Atomic Charges

     Atom                 Charge (a.u.)    Spin (a.u.)
  --------------------------------------------------------
      1 H                     0.249059      -0.011583
      2 H                     0.154923       0.001443
      3 C                     0.092733       0.233721
      4 C                    -0.381967      -0.043080
      5 S                    -0.093988      -0.029497
      6 C                     0.543831       0.144989
      7 H                     0.138449      -0.009051
      8 C                     0.147204       0.042157
      9 H                     0.062457      -0.005564
     10 C                    -0.060130       0.172663
     11 C                    -0.466477       0.061071
     12 S                     0.151185      -0.044236
     13 C                    -0.114251       0.025516
     14 H                     0.137066      -0.002070
     15 C                    -0.002015       0.187687
     16 C                    -0.111396       0.038002
     17 H                     0.137022      -0.007631
     18 C                     0.230350       0.125035
     19 S                     0.115937      -0.029944
     20 C                    -0.351496      -0.041251
     21 C                     0.029347       0.200283
     22 H                     0.157416       0.001945
     23 H                     0.234741      -0.010603
  --------------------------------------------------------
  Sum of atomic charges =     1.000000
  Sum of spin   charges =     1.000000

 -----------------------------------------------------------------
                    Cartesian Multipole Moments
 -----------------------------------------------------------------
    Charge (ESU x 10^10)
                 4.8032
    Dipole Moment (Debye)
         X      28.8601      Y      -1.7482      Z      -0.2918
       Tot      28.9145
    Quadrupole Moments (Debye-Ang)
        XX     157.2624     XY      -5.6414     YY     -92.0374
        XZ       0.8223     YZ       6.6613     ZZ    -107.0271
    Octopole Moments (Debye-Ang^2)
       XXX     736.7355    XXY       0.5949    XYY    -578.8785
       YYY     145.2330    XXZ      31.7532    XYZ      46.6167
       YYZ      13.4234    XZZ    -644.5311    YZZ      55.3600
       ZZZ      59.1334
    Hexadecapole Moments (Debye-Ang^3)
      XXXX   -1790.1915   XXXY     268.0497   XXYY   -4790.9015
      XYYY     944.2318   YYYY    -822.1713   XXXZ     428.9232
      XXYZ     386.4457   XYYZ      98.0454   YYYZ    -109.0491
      XXZZ   -5127.8536   XYZZ     337.4420   YYZZ    -189.5084
      XZZZ     345.1309   YZZZ    -137.9178   ZZZZ    -272.9275
 -----------------------------------------------------------------
 Calculating analytic gradient of the SCF energy
 Gradient of SCF Energy
            1           2           3           4           5           6
    1   0.0068616   0.0045568  -0.0045831  -0.0002964   0.0027686   0.0239549
    2  -0.0034403   0.0048233   0.0017717   0.0123170  -0.0267013   0.0110915
    3  -0.0011302   0.0010755  -0.0001238   0.0038645  -0.0056961   0.0033638
            7           8           9          10          11          12
    1  -0.0015553  -0.0214653  -0.0024404   0.0464635  -0.0654717   0.0023745
    2   0.0061561   0.0626060  -0.0061278  -0.0466734  -0.0320407   0.0397336
    3   0.0005783   0.0113739  -0.0004257  -0.0072907  -0.0090826   0.0096769
           13          14          15          16          17          18
    1   0.0315664  -0.0000813  -0.0221839   0.0211165  -0.0011679  -0.0172995
    2  -0.0218682  -0.0050795  -0.0030432   0.0088510  -0.0021411  -0.0140897
    3  -0.0096504   0.0020917   0.0084980  -0.0038049  -0.0055815  -0.0051577
           19          20          21          22          23
    1   0.0026760   0.0014562   0.0035808  -0.0038943  -0.0069366
    2   0.0220348  -0.0073101   0.0007068  -0.0037665   0.0021899
    3   0.0148122  -0.0050408  -0.0011618  -0.0037264   0.0025379
 Max gradient component =       6.547E-02
 RMS gradient           =       1.786E-02
 Gradient time:  CPU 4.30 s  wall 4.24 s
 Geometry Optimization Parameters
   NAtoms,    NIC,     NZ,  NCons,   NDum,   NFix, NCnnct, MaxDiis
       23     166       0       1       0       0       0       0


** CONSTRAINED OPTIMIZATION IN DELOCALIZED INTERNAL COORDINATES **
   Searching for a Minimum

   Optimization Cycle:   1

                       Coordinates (Angstroms)
     ATOM                X               Y               Z
      1  H         0.0000000000    0.0000000000    0.0000000000
      2  H         0.6636600000   -2.4682800000   -0.5912700000
      3  C         0.9910300000   -0.3910600000   -0.1165200000
      4  C         1.3681200000   -1.6744200000   -0.4248500000
      5  S         2.3466900000    0.6258600000    0.0863800000
      6  C         2.7616700000   -1.8217500000   -0.5082200000
      7  H         3.2629100000   -2.7387700000   -0.7619900000
      8  C         3.4467100000   -0.6504300000   -0.2605700000
      9  H         4.5564500000    1.4390267100    0.1570438500
     10  C         4.8838200000   -0.6504300000   -0.2605700000
     11  C         5.2609100000    0.6409019400    0.0124539000
     12  S         6.2394800000   -1.6725311300   -0.4355093900
     13  C         6.6544600000    0.7904624800    0.0917531100
     14  H         7.1557000000    1.7140965300    0.3202821300
     15  C         7.3395000000   -0.3872077300   -0.1236860000
     16  C         8.7766100000   -0.3872077300   -0.1236860000
     17  H         8.9604100000    1.2864860200    1.2221719600
     18  C         9.4616500000    0.5249652900    0.6517250600
     19  S         9.8766300000   -1.4421388900   -0.9214391800
     20  C        10.8552000000    0.3689105200    0.5861231200
     21  C        11.2322900000   -0.6597848100   -0.2408384400
     22  H        11.5596600000    0.9860064000    1.1125275100
     23  H        12.2233200000   -0.9911018000   -0.4790283700
   Point Group: c1    Number of degrees of freedom:    63


   Energy is  -1656.370572039

              Constraints and their Current Values
                                        Value     Constraint
   Dihedral:       13  15  16  18       30.000       30.000

 Attempting to Generate Delocalized Internal Coordinates

 62 Hessian modes will be used to form the next step
  Hessian Eigenvalues:
     0.045000    0.045000    0.045000    0.045000    0.045000    0.045000
     0.045001    0.045001    0.045001    0.045002    0.045003    0.045003
     0.045011    0.045012    0.045012    0.045025    0.045032    0.045058
     0.045059    0.159944    0.159945    0.159945    0.159992    0.159993
     0.159993    0.160000    0.160000    0.221307    0.221308    0.227041
     0.237995    0.238010    0.245411    0.249662    0.249670    0.249670
     0.249825    0.326317    0.326319    0.326962    0.340043    0.340044
     0.340629    0.365512    0.365512    0.365513    0.366888    0.366889
     0.366889    0.370099    0.370100    0.399845    0.399845    0.435419
     0.435419    0.435422    0.463117    0.463122    0.464282    0.495500
     0.495500    0.495533

 Minimum Search - Taking Simple RFO Step
 Searching for Lamda that Minimizes Along All modes
 Value Taken    Lamda =  -0.06849474
 Calculated Step too Large.  Step scaled by  0.672905
 Step Taken.  Stepsize is  0.300000

                             Maximum     Tolerance    Cnvgd?
         Gradient           0.088505      0.000300      NO
         Displacement       0.183754      0.001200      NO
         Energy change     *********      0.000001      NO


 New Cartesian Coordinates Obtained by Inverse Iteration

 Displacement from previous Coordinates is:  2.215784
 ----------------------------------------------------------------
             Standard Nuclear Orientation (Angstroms)
    I     Atom           X                Y                Z
 ----------------------------------------------------------------
    1      H      -0.1275624343    -0.3267653929    -0.1014210917
    2      H       0.8132839570    -2.7260762035    -0.6540097892
    3      C       0.9091932105    -0.6100411525    -0.1851964620
    4      C       1.4267590850    -1.8560351746    -0.4732181907
    5      S       2.1331354109     0.5692565137     0.0518187209
    6      C       2.8301951808    -1.8461668357    -0.5107017422
    7      H       3.4342966658    -2.7120712458    -0.7401444051
    8      C       3.3897082445    -0.5903490817    -0.2499148260
    9      H       4.5969245614     1.7556305148     0.2000308619
   10      C       4.8200518782    -0.3918381473    -0.2004892645
   11      C       5.2626691131     0.9200192504     0.0658472414
   12      S       6.1691560798    -1.4463604158    -0.3592873677
   13      C       6.6511951811     1.0399205548     0.1460124198
   14      H       7.1715938849     1.9608895350     0.3571024536
   15      C       7.3092270678    -0.1753209575    -0.0575322798
   16      C       8.7414818830    -0.2965731462    -0.0734833905
   17      H       9.2054474594     1.3685488107     1.2567064023
   18      C       9.5754513204     0.5435625947     0.6684807256
   19      S       9.6726513866    -1.5010201496    -0.9015486831
   20      C      10.9353309877     0.2138348675     0.5485751619
   21      C      11.1411116390    -0.8700726313    -0.2802438260
   22      H      11.7370916436     0.7450188129     1.0392102525
   23      H      12.0784865938    -1.3263871200    -0.5543096616
 ----------------------------------------------------------------
 Nuclear Repulsion Energy =  1178.3380999333 hartrees
 There are       64 alpha and       63 beta electrons
 Applying Cartesian multipole field
    Component          Value
    ---------          -----
     (2,0,0)        1.00000E-12
     (0,2,0)        2.00000E-11
     (0,0,2)       -3.00000E-11
 Nucleus-field energy     =     0.0000000307 hartrees
 Requested basis set is 6-31++G(d,p)
 There are 110 shells and 345 basis functions
 A cutoff of  1.0D-12 yielded   4698 shell pairs
 There are     47849 function pairs

 Q-Chem warning in module /project/projectdirs/jcesr/qchem/qc44/cnl_qc441/compile/cori/qc_src/libqints/qchem/aobasis.C, line 68:

 Using reconstructed effective core potential

 Smallest overlap matrix eigenvalue = 7.26E-08
 Linear dependence detected in AO basis
 Number of orthogonalized atomic orbitals = 342
 Maximum deviation from orthogonality = 1.286E-10
 Guess MOs from SCF MO coefficient file
 Reading MOs from coefficient file
 Reading MOs from coefficient file
 An unrestricted hybrid HF-DFT SCF calculation will be
 performed using Pulay DIIS extrapolation
 Exchange:     0.2000 Hartree-Fock + 0.0800 Slater + 0.7200 B88
 Correlation:  0.1900 VWN1RPA + 0.8100 LYP
 Using SG-1 standard quadrature grid
 SCF converges when DIIS error is below 1.0E-08
 Geometry optimization detected.  Setting ReadMinima to 0
 Setting SaveMinima to 0
 Inaccurate integrated density:
   Number of electrons =   127
   Numerical integral  =   126.762563536848
   Relative error      =    -0.1869578450 %
 ---------------------------------------
  Cycle       Energy         DIIS Error
 ---------------------------------------
    1   -1656.1089503922      5.98E-03
    2   -1656.3716457627      1.32E-03
    3   -1656.3119649358      2.29E-03
    4   -1656.3991668074      4.10E-04
    5   -1656.4017993755      1.32E-04
    6   -1656.4020690862      4.79E-05
    7   -1656.4021047983      1.88E-05
    8   -1656.4021108351      4.35E-06
    9   -1656.4021112015      1.92E-06
   10   -1656.4021113093      6.24E-07
   11   -1656.4021113515      3.17E-07
   12   -1656.4021113692      1.49E-07
   13   -1656.4021113783      8.32E-08
   14   -1656.4021113808      5.05E-08
   15   -1656.4021113833      2.41E-08
   16   -1656.4021113836      1.02E-08
   17   -1656.4021113833      6.02E-09 Convergence criterion met
 ---------------------------------------
 <S^2> = 0.7678
 SCF time:  CPU 23.89 s  wall 22.12 s
 SCF   energy in the final basis set = -1656.4021113833
 Total energy in the final basis set = -1656.4021113833
 
 --------------------------------------------------------------
 
                    Orbital Energies (a.u.)
 --------------------------------------------------------------
 
 Alpha MOs
 -- Occupied --
-89.081 -89.067 -89.063 -10.410 -10.409 -10.392 -10.389 -10.378
-10.373 -10.362 -10.362 -10.354 -10.353 -10.343 -10.340  -8.141
 -8.127  -8.123  -6.105  -6.101  -6.097  -6.091  -6.087  -6.087
 -6.084  -6.083  -6.080  -1.070  -1.045  -1.032  -0.946  -0.912
 -0.895  -0.892  -0.887  -0.844  -0.770  -0.745  -0.711  -0.705
 -0.689  -0.679  -0.674  -0.651  -0.607  -0.576  -0.574  -0.568
 -0.561  -0.549  -0.547  -0.545  -0.531  -0.526  -0.522  -0.510
 -0.494  -0.490  -0.454  -0.421  -0.406  -0.403  -0.397  -0.351
 -- Virtual --
 -0.224  -0.174  -0.148  -0.135  -0.123  -0.113  -0.110  -0.104
 -0.101  -0.094  -0.092  -0.087  -0.081  -0.079  -0.075  -0.070
 -0.067  -0.063  -0.061  -0.053  -0.046  -0.045  -0.039  -0.035
 -0.025  -0.023  -0.016  -0.013  -0.006  -0.005   0.004   0.008
  0.010   0.011   0.014   0.017   0.023   0.028   0.030   0.031
  0.035   0.037   0.041   0.044   0.046   0.049   0.051   0.054
  0.056   0.060   0.066   0.068   0.070   0.074   0.075   0.078
  0.087   0.091   0.095   0.101   0.104   0.108   0.114   0.117
  0.118   0.121   0.127   0.133   0.137   0.143   0.148   0.155
  0.156   0.162   0.164   0.175   0.178   0.184   0.190   0.198
  0.199   0.207   0.222   0.226   0.232   0.240   0.243   0.246
  0.255   0.263   0.270   0.278   0.305   0.322   0.342   0.352
  0.379   0.381   0.396   0.397   0.422   0.436   0.446   0.457
  0.470   0.480   0.494   0.504   0.510   0.511   0.518   0.521
  0.526   0.534   0.548   0.556   0.569   0.576   0.578   0.587
  0.593   0.596   0.603   0.608   0.615   0.635   0.645   0.654
  0.662   0.668   0.677   0.680   0.697   0.710   0.733   0.758
  0.796   0.799   0.802   0.811   0.816   0.821   0.827   0.838
  0.845   0.849   0.854   0.865   0.876   0.879   0.894   0.902
  0.914   0.924   0.932   0.952   0.957   0.967   0.972   0.975
  0.985   1.017   1.028   1.032   1.049   1.067   1.092   1.114
  1.123   1.141   1.149   1.185   1.193   1.199   1.203   1.207
  1.214   1.223   1.229   1.273   1.290   1.305   1.322   1.356
  1.391   1.407   1.439   1.480   1.509   1.521   1.557   1.565
  1.667   1.694   1.705   1.738   1.755   1.766   1.779   1.786
  1.808   1.819   1.832   1.850   1.863   1.877   1.901   1.923
  1.934   1.954   1.976   2.013   2.022   2.037   2.048   2.073
  2.081   2.098   2.119   2.130   2.165   2.184   2.229   2.235
  2.264   2.294   2.307   2.316   2.321   2.336   2.353   2.374
  2.383   2.390   2.395   2.424   2.434   2.454   2.464   2.490
  2.525   2.533   2.568   2.574   2.595   2.664   2.695   2.717
  2.751   2.776   2.790   2.821   3.000   3.046   3.081   3.148
  3.152   3.193   3.280   3.285   3.533   3.605   3.616   3.807
  3.843   3.861   4.099   4.124   4.160   4.166   4.181   4.193
  4.229   4.317   4.401   4.495   4.555   4.579
 
 Beta MOs
 -- Occupied --
-89.082 -89.067 -89.063 -10.407 -10.407 -10.392 -10.388 -10.375
-10.370 -10.361 -10.361 -10.352 -10.352 -10.343 -10.341  -8.141
 -8.127  -8.123  -6.105  -6.102  -6.098  -6.091  -6.087  -6.087
 -6.084  -6.083  -6.080  -1.065  -1.041  -1.029  -0.940  -0.911
 -0.891  -0.890  -0.886  -0.837  -0.767  -0.742  -0.709  -0.702
 -0.687  -0.676  -0.672  -0.650  -0.606  -0.573  -0.567  -0.565
 -0.559  -0.547  -0.544  -0.539  -0.528  -0.524  -0.512  -0.509
 -0.493  -0.489  -0.435  -0.419  -0.402  -0.400  -0.378
 -- Virtual --
 -0.298  -0.209  -0.164  -0.145  -0.129  -0.119  -0.113  -0.103
 -0.102  -0.097  -0.093  -0.090  -0.081  -0.080  -0.078  -0.071
 -0.068  -0.066  -0.061  -0.059  -0.052  -0.045  -0.044  -0.039
 -0.034  -0.024  -0.022  -0.015  -0.012  -0.005  -0.004   0.005
  0.009   0.011   0.012   0.014   0.017   0.024   0.028   0.030
  0.032   0.036   0.038   0.042   0.044   0.047   0.050   0.051
  0.054   0.057   0.061   0.067   0.068   0.071   0.075   0.076
  0.080   0.088   0.092   0.095   0.103   0.105   0.109   0.115
  0.118   0.119   0.122   0.128   0.134   0.138   0.144   0.149
  0.156   0.158   0.163   0.165   0.176   0.179   0.185   0.191
  0.199   0.201   0.208   0.223   0.228   0.233   0.241   0.244
  0.247   0.257   0.264   0.271   0.280   0.306   0.323   0.343
  0.353   0.379   0.381   0.396   0.399   0.424   0.437   0.447
  0.458   0.472   0.481   0.496   0.508   0.512   0.516   0.521
  0.527   0.531   0.537   0.549   0.557   0.570   0.578   0.580
  0.589   0.595   0.597   0.607   0.613   0.618   0.641   0.646
  0.655   0.663   0.671   0.678   0.684   0.701   0.714   0.735
  0.759   0.797   0.801   0.804   0.812   0.818   0.824   0.830
  0.839   0.846   0.850   0.855   0.866   0.877   0.880   0.895
  0.902   0.916   0.926   0.933   0.953   0.958   0.968   0.973
  0.976   0.987   1.019   1.031   1.035   1.052   1.070   1.095
  1.116   1.127   1.144   1.154   1.188   1.196   1.202   1.207
  1.210   1.220   1.228   1.231   1.275   1.296   1.308   1.326
  1.359   1.396   1.410   1.443   1.486   1.515   1.526   1.567
  1.574   1.670   1.696   1.709   1.740   1.757   1.767   1.780
  1.787   1.813   1.824   1.836   1.854   1.867   1.880   1.904
  1.928   1.938   1.958   1.980   2.019   2.028   2.043   2.055
  2.079   2.086   2.103   2.122   2.137   2.168   2.188   2.232
  2.238   2.269   2.298   2.310   2.319   2.324   2.338   2.355
  2.377   2.388   2.393   2.397   2.428   2.437   2.457   2.467
  2.492   2.528   2.535   2.572   2.577   2.597   2.667   2.699
  2.720   2.752   2.777   2.792   2.823   3.001   3.046   3.082
  3.148   3.152   3.194   3.281   3.286   3.534   3.606   3.617
  3.807   3.843   3.861   4.103   4.128   4.164   4.170   4.183
  4.195   4.234   4.321   4.405   4.498   4.558   4.582
 --------------------------------------------------------------
 
          Ground-State Mulliken Net Atomic Charges

     Atom                 Charge (a.u.)    Spin (a.u.)
  --------------------------------------------------------
      1 H                     0.245242      -0.011617
      2 H                     0.160353       0.001698
      3 C                     0.071674       0.227339
      4 C                    -0.312731      -0.042672
      5 S                    -0.014449      -0.029530
      6 C                     0.432731       0.142003
      7 H                     0.137009      -0.009306
      8 C                    -0.043221       0.037484
      9 H                     0.115683      -0.005472
     10 C                    -0.016811       0.178760
     11 C                    -0.304682       0.065132
     12 S                    -0.029414      -0.051446
     13 C                    -0.015448       0.032664
     14 H                     0.147323      -0.002507
     15 C                    -0.028334       0.187550
     16 C                    -0.147324       0.031599
     17 H                     0.146504      -0.008155
     18 C                     0.255208       0.132198
     19 S                     0.089633      -0.029740
     20 C                    -0.334632      -0.044218
     21 C                     0.049993       0.207103
     22 H                     0.158539       0.002001
     23 H                     0.237156      -0.010868
  --------------------------------------------------------
  Sum of atomic charges =     1.000000
  Sum of spin   charges =     1.000000

 -----------------------------------------------------------------
                    Cartesian Multipole Moments
 -----------------------------------------------------------------
    Charge (ESU x 10^10)
                 4.8032
    Dipole Moment (Debye)
         X      28.8689      Y      -1.6901      Z      -0.2696
       Tot      28.9196
    Quadrupole Moments (Debye-Ang)
        XX     158.0029     XY      -4.9272     YY     -90.5555
        XZ       1.6923     YZ       6.9640     ZZ    -107.4750
    Octopole Moments (Debye-Ang^2)
       XXX     756.5685    XXY     -11.4266    XYY    -562.9727
       YYY     136.9399    XXZ      39.4713    XYZ      49.1200
       YYZ      11.5978    XZZ    -640.5249    YZZ      52.2792
       ZZZ      55.5439
    Hexadecapole Moments (Debye-Ang^3)
      XXXX   -1486.3081   XXXY     -16.5731   XXYY   -4631.0448
      XYYY     880.6185   YYYY    -824.9367   XXXZ     488.6762
      XXYZ     414.3968   XYYZ      76.9603   YYYZ    -101.3009
      XXZZ   -5068.6226   XYZZ     311.7510   YYZZ    -192.0323
      XZZZ     297.6047   YZZZ    -135.0023   ZZZZ    -267.9979
 -----------------------------------------------------------------
 Calculating analytic gradient of the SCF energy
 Gradient of SCF Energy
            1           2           3           4           5           6
    1   0.0030077   0.0013244  -0.0022001  -0.0029567   0.0001133   0.0090920
    2  -0.0013820   0.0018795   0.0000430   0.0037576  -0.0150472   0.0037686
    3  -0.0005237   0.0004557  -0.0003726   0.0016201  -0.0027280   0.0021226
            7           8           9          10          11          12
    1  -0.0009387  -0.0275565   0.0035447   0.0342008  -0.0270615   0.0002376
    2   0.0028673   0.0382797  -0.0029107  -0.0438918  -0.0059380   0.0265087
    3  -0.0001851   0.0057561   0.0000903  -0.0069520  -0.0030264   0.0061710
           13          14          15          16          17          18
    1   0.0197806  -0.0008657  -0.0173318   0.0155353   0.0006811  -0.0077618
    2  -0.0052593  -0.0027187  -0.0029601  -0.0006690  -0.0012221  -0.0046220
    3  -0.0064270   0.0015321   0.0067985  -0.0080776  -0.0032556   0.0026903
           19          20          21          22          23
    1   0.0019603   0.0010600   0.0006574  -0.0017628  -0.0027598
    2   0.0117277  -0.0027581   0.0006109  -0.0011228   0.0010588
    3   0.0071325  -0.0012813  -0.0015686  -0.0013927   0.0014215
 Max gradient component =       4.389E-02
 RMS gradient           =       1.129E-02
 Gradient time:  CPU 4.27 s  wall 4.27 s
 Geometry Optimization Parameters
   NAtoms,    NIC,     NZ,  NCons,   NDum,   NFix, NCnnct, MaxDiis
       23     166       0       1       0       0       0       0

 Cartesian Hessian Update
 Hessian Updated using BFGS Update


** CONSTRAINED OPTIMIZATION IN DELOCALIZED INTERNAL COORDINATES **
   Searching for a Minimum

   Optimization Cycle:   2

                       Coordinates (Angstroms)
     ATOM                X               Y               Z
      1  H        -0.1275624343   -0.3267653929   -0.1014210917
      2  H         0.8132839570   -2.7260762035   -0.6540097892
      3  C         0.9091932105   -0.6100411525   -0.1851964620
      4  C         1.4267590850   -1.8560351746   -0.4732181907
      5  S         2.1331354109    0.5692565137    0.0518187209
      6  C         2.8301951808   -1.8461668357   -0.5107017422
      7  H         3.4342966658   -2.7120712458   -0.7401444051
      8  C         3.3897082445   -0.5903490817   -0.2499148260
      9  H         4.5969245614    1.7556305148    0.2000308619
     10  C         4.8200518782   -0.3918381473   -0.2004892645
     11  C         5.2626691131    0.9200192504    0.0658472414
     12  S         6.1691560798   -1.4463604158   -0.3592873677
     13  C         6.6511951811    1.0399205548    0.1460124198
     14  H         7.1715938849    1.9608895350    0.3571024536
     15  C         7.3092270678   -0.1753209575   -0.0575322798
     16  C         8.7414818830   -0.2965731462   -0.0734833905
     17  H         9.2054474594    1.3685488107    1.2567064023
     18  C         9.5754513204    0.5435625947    0.6684807256
     19  S         9.6726513866   -1.5010201496   -0.9015486831
     20  C        10.9353309877    0.2138348675    0.5485751619
     21  C        11.1411116390   -0.8700726313   -0.2802438260
     22  H        11.7370916436    0.7450188129    1.0392102525
     23  H        12.0784865938   -1.3263871200   -0.5543096616
   Point Group: c1    Number of degrees of freedom:    63


   Energy is  -1656.402111383

              Constraints and their Current Values
                                        Value     Constraint
   Dihedral:       13  15  16  18       30.000       30.000
 Hessian Updated using BFGS Update

 62 Hessian modes will be used to form the next step
  Hessian Eigenvalues:
     0.044933    0.045000    0.045000    0.045000    0.045000    0.045000
     0.045001    0.045001    0.045001    0.045002    0.045003    0.045005
     0.045011    0.045012    0.045016    0.045025    0.045050    0.045057
     0.045060    0.159523    0.159944    0.159948    0.159987    0.159993
     0.159995    0.160000    0.160506    0.196817    0.221309    0.221815
     0.229635    0.238030    0.239035    0.247021    0.249670    0.249685
     0.284566    0.323847    0.326493    0.327444    0.338701    0.340064
     0.340413    0.365069    0.365512    0.365542    0.366542    0.366889
     0.367297    0.369901    0.370100    0.399778    0.416017    0.434875
     0.435420    0.436979    0.462596    0.463123    0.470079    0.495142
     0.495501    0.570495

 Minimum Search - Taking Simple RFO Step
 Searching for Lamda that Minimizes Along All modes
 Value Taken    Lamda =  -0.02096990
 Calculated Step too Large.  Step scaled by  0.967889
 Step Taken.  Stepsize is  0.300000

                             Maximum     Tolerance    Cnvgd?
         Gradient           0.031224      0.000300      NO
         Displacement       0.124433      0.001200      NO
         Energy change     -0.031539      0.000001      NO


 New Cartesian Coordinates Obtained by Inverse Iteration

 Displacement from previous Coordinates is:  1.602332
 ----------------------------------------------------------------
             Standard Nuclear Orientation (Angstroms)
    I     Atom           X                Y                Z
 ----------------------------------------------------------------
    1      H      -0.0939661348    -0.4956510300    -0.1807703183
    2      H       0.9749558869    -2.8588744330    -0.7026221175
    3      C       0.9623968394    -0.7291832910    -0.2388386895
    4      C       1.5457548020    -1.9580738457    -0.5114048797
    5      S       2.1093636721     0.5280754315     0.0222477543
    6      C       2.9454898430    -1.8860466720    -0.5131082473
    7      H       3.5969920643    -2.7290186902    -0.7192206278
    8      C       3.4291244683    -0.5906511289    -0.2409488277
    9      H       4.5456975776     1.9461320714     0.2355088955
   10      C       4.7877750052    -0.2137097142    -0.1430171802
   11      C       5.2286784051     1.1101788470     0.1198045244
   12      S       6.1281995906    -1.3122446020    -0.2913731763
   13      C       6.6034207712     1.2177719771     0.2007897960
   14      H       7.1308927849     2.1444447175     0.3909050012
   15      C       7.2654598118    -0.0182039644     0.0055752566
   16      C       8.6742057277    -0.2144205369    -0.0311222223
   17      H       9.3491107941     1.4237475581     1.2648337129
   18      C       9.6174182092     0.5599574423     0.6671034926
   19      S       9.4544445341    -1.5345756198    -0.8743038581
   20      C      10.9328717620     0.0957471157     0.5016273272
   21      C      11.0001447166    -1.0245750456    -0.3117273651
   22      H      11.8040846384     0.5541718362     0.9545326295
   23      H      11.8843642304    -1.5733946231    -0.6121876204
 ----------------------------------------------------------------
 Nuclear Repulsion Energy =  1182.2312241094 hartrees
 There are       64 alpha and       63 beta electrons
 Applying Cartesian multipole field
    Component          Value
    ---------          -----
     (2,0,0)        1.00000E-12
     (0,2,0)        2.00000E-11
     (0,0,2)       -3.00000E-11
 Nucleus-field energy     =     0.0000000310 hartrees
 Requested basis set is 6-31++G(d,p)
 There are 110 shells and 345 basis functions
 A cutoff of  1.0D-12 yielded   4687 shell pairs
 There are     47748 function pairs

 Q-Chem warning in module /project/projectdirs/jcesr/qchem/qc44/cnl_qc441/compile/cori/qc_src/libqints/qchem/aobasis.C, line 68:

 Using reconstructed effective core potential

 Smallest overlap matrix eigenvalue = 6.87E-08
 Linear dependence detected in AO basis
 Number of orthogonalized atomic orbitals = 342
 Maximum deviation from orthogonality = 1.177E-10
 Guess MOs from SCF MO coefficient file
 Reading MOs from coefficient file
 Reading MOs from coefficient file
 An unrestricted hybrid HF-DFT SCF calculation will be
 performed using Pulay DIIS extrapolation
 Exchange:     0.2000 Hartree-Fock + 0.0800 Slater + 0.7200 B88
 Correlation:  0.1900 VWN1RPA + 0.8100 LYP
 Using SG-1 standard quadrature grid
 SCF converges when DIIS error is below 1.0E-08
 Geometry optimization detected.  Setting ReadMinima to 0
 Setting SaveMinima to 0
 ---------------------------------------
  Cycle       Energy         DIIS Error
 ---------------------------------------
    1   -1656.2730716261      4.14E-03
    2   -1656.4000856082      8.63E-04
    3   -1656.3634010884      1.69E-03
    4   -1656.4129088641      2.29E-04
    5   -1656.4137227655      8.56E-05
    6   -1656.4138444807      2.80E-05
    7   -1656.4138571009      1.18E-05
    8   -1656.4138595528      3.41E-06
    9   -1656.4138598656      1.42E-06
   10   -1656.4138599730      5.39E-07
   11   -1656.4138600356      3.92E-07
   12   -1656.4138600626      1.94E-07
   13   -1656.4138600793      1.08E-07
   14   -1656.4138600859      4.42E-08
   15   -1656.4138600849      1.72E-08
   16   -1656.4138600843      1.09E-08
   17   -1656.4138600852      4.64E-09 Convergence criterion met
 ---------------------------------------
 <S^2> = 0.7701
 SCF time:  CPU 23.78 s  wall 22.09 s
 SCF   energy in the final basis set = -1656.4138600852
 Total energy in the final basis set = -1656.4138600852
 
 --------------------------------------------------------------
 
                    Orbital Energies (a.u.)
 --------------------------------------------------------------
 
 Alpha MOs
 -- Occupied --
-89.077 -89.067 -89.063 -10.410 -10.408 -10.390 -10.387 -10.379
-10.375 -10.366 -10.365 -10.358 -10.355 -10.346 -10.341  -8.137
 -8.126  -8.122  -6.101  -6.097  -6.093  -6.090  -6.087  -6.086
 -6.083  -6.083  -6.079  -1.066  -1.041  -1.027  -0.944  -0.915
 -0.894  -0.892  -0.884  -0.839  -0.770  -0.747  -0.710  -0.706
 -0.689  -0.677  -0.673  -0.644  -0.607  -0.574  -0.572  -0.568
 -0.558  -0.550  -0.546  -0.544  -0.533  -0.522  -0.519  -0.513
 -0.496  -0.491  -0.452  -0.423  -0.407  -0.404  -0.394  -0.346
 -- Virtual --
 -0.229  -0.177  -0.154  -0.135  -0.127  -0.113  -0.110  -0.105
 -0.098  -0.093  -0.092  -0.084  -0.081  -0.079  -0.075  -0.069
 -0.066  -0.062  -0.061  -0.052  -0.046  -0.043  -0.040  -0.032
 -0.025  -0.022  -0.016  -0.011  -0.006  -0.004   0.003   0.008
  0.010   0.011   0.014   0.016   0.025   0.028   0.029   0.032
  0.035   0.035   0.040   0.042   0.045   0.047   0.052   0.054
  0.056   0.060   0.065   0.069   0.071   0.074   0.079   0.080
  0.084   0.092   0.095   0.100   0.102   0.110   0.113   0.118
  0.120   0.121   0.128   0.130   0.135   0.140   0.150   0.151
  0.155   0.162   0.165   0.172   0.180   0.183   0.191   0.196
  0.200   0.208   0.218   0.228   0.236   0.237   0.244   0.246
  0.249   0.261   0.266   0.278   0.310   0.322   0.334   0.361
  0.379   0.380   0.396   0.398   0.430   0.435   0.441   0.450
  0.466   0.474   0.490   0.507   0.509   0.512   0.516   0.522
  0.527   0.537   0.548   0.552   0.567   0.576   0.582   0.587
  0.591   0.595   0.606   0.609   0.615   0.635   0.640   0.650
  0.663   0.676   0.683   0.693   0.698   0.712   0.737   0.758
  0.791   0.795   0.802   0.811   0.813   0.817   0.826   0.838
  0.842   0.847   0.850   0.862   0.874   0.877   0.892   0.895
  0.907   0.922   0.927   0.949   0.954   0.960   0.966   0.972
  0.988   1.015   1.027   1.034   1.053   1.070   1.090   1.112
  1.122   1.136   1.145   1.181   1.193   1.199   1.205   1.209
  1.215   1.223   1.226   1.297   1.306   1.316   1.341   1.359
  1.399   1.410   1.439   1.484   1.520   1.522   1.556   1.564
  1.664   1.686   1.708   1.727   1.753   1.768   1.776   1.792
  1.792   1.813   1.819   1.847   1.860   1.872   1.906   1.911
  1.928   1.946   1.974   2.006   2.017   2.034   2.046   2.065
  2.083   2.090   2.116   2.120   2.154   2.179   2.225   2.232
  2.264   2.291   2.295   2.306   2.313   2.332   2.344   2.367
  2.379   2.384   2.388   2.420   2.428   2.445   2.465   2.481
  2.523   2.531   2.564   2.571   2.589   2.654   2.714   2.731
  2.743   2.779   2.792   2.819   2.984   3.037   3.075   3.138
  3.142   3.172   3.268   3.273   3.525   3.596   3.605   3.802
  3.839   3.865   4.103   4.122   4.159   4.167   4.179   4.190
  4.235   4.320   4.400   4.496   4.556   4.584
 
 Beta MOs
 -- Occupied --
-89.078 -89.067 -89.063 -10.407 -10.405 -10.390 -10.387 -10.376
-10.372 -10.365 -10.364 -10.356 -10.353 -10.346 -10.342  -8.137
 -8.126  -8.122  -6.101  -6.098  -6.094  -6.090  -6.087  -6.086
 -6.083  -6.083  -6.080  -1.061  -1.038  -1.023  -0.938  -0.914
 -0.892  -0.888  -0.882  -0.832  -0.767  -0.744  -0.707  -0.704
 -0.687  -0.675  -0.671  -0.641  -0.605  -0.571  -0.566  -0.563
 -0.556  -0.549  -0.544  -0.538  -0.531  -0.520  -0.512  -0.508
 -0.496  -0.490  -0.434  -0.421  -0.403  -0.400  -0.378
 -- Virtual --
 -0.293  -0.213  -0.167  -0.151  -0.129  -0.122  -0.113  -0.105
 -0.101  -0.095  -0.092  -0.091  -0.081  -0.079  -0.075  -0.072
 -0.067  -0.064  -0.060  -0.059  -0.051  -0.044  -0.043  -0.039
 -0.031  -0.024  -0.021  -0.016  -0.010  -0.005  -0.003   0.005
  0.008   0.011   0.012   0.014   0.017   0.026   0.029   0.030
  0.033   0.036   0.036   0.041   0.043   0.046   0.048   0.053
  0.055   0.057   0.061   0.066   0.069   0.073   0.075   0.080
  0.081   0.085   0.093   0.095   0.101   0.103   0.110   0.114
  0.119   0.120   0.122   0.129   0.132   0.136   0.141   0.151
  0.152   0.156   0.163   0.166   0.173   0.181   0.184   0.192
  0.197   0.202   0.209   0.220   0.229   0.237   0.238   0.245
  0.247   0.251   0.262   0.268   0.279   0.311   0.323   0.335
  0.361   0.380   0.381   0.398   0.399   0.432   0.436   0.442
  0.451   0.467   0.475   0.491   0.512   0.513   0.515   0.519
  0.527   0.531   0.541   0.549   0.554   0.569   0.577   0.583
  0.589   0.593   0.596   0.610   0.614   0.619   0.640   0.641
  0.651   0.664   0.680   0.687   0.695   0.702   0.715   0.738
  0.759   0.794   0.797   0.803   0.812   0.815   0.821   0.828
  0.839   0.843   0.848   0.851   0.863   0.875   0.878   0.893
  0.896   0.909   0.923   0.928   0.950   0.955   0.961   0.967
  0.972   0.990   1.017   1.030   1.037   1.056   1.073   1.093
  1.115   1.125   1.140   1.148   1.183   1.197   1.203   1.208
  1.211   1.222   1.227   1.230   1.299   1.310   1.321   1.344
  1.363   1.405   1.414   1.443   1.490   1.524   1.529   1.566
  1.572   1.670   1.688   1.709   1.729   1.754   1.769   1.777
  1.794   1.797   1.818   1.822   1.851   1.864   1.876   1.912
  1.914   1.933   1.949   1.979   2.013   2.023   2.040   2.051
  2.071   2.087   2.094   2.121   2.127   2.157   2.184   2.228
  2.234   2.269   2.295   2.298   2.309   2.317   2.333   2.346
  2.369   2.383   2.386   2.391   2.423   2.431   2.448   2.467
  2.485   2.526   2.532   2.567   2.573   2.591   2.656   2.718
  2.733   2.746   2.781   2.794   2.820   2.985   3.037   3.076
  3.138   3.142   3.173   3.269   3.275   3.526   3.597   3.606
  3.802   3.839   3.865   4.107   4.126   4.162   4.171   4.182
  4.192   4.240   4.324   4.405   4.499   4.559   4.587
 --------------------------------------------------------------
 
          Ground-State Mulliken Net Atomic Charges

     Atom                 Charge (a.u.)    Spin (a.u.)
  --------------------------------------------------------
      1 H                     0.240969      -0.011967
      2 H                     0.163345       0.001727
      3 C                     0.046026       0.232630
      4 C                    -0.229418      -0.042495
      5 S                    -0.036635      -0.025401
      6 C                     0.431986       0.146781
      7 H                     0.142163      -0.009508
      8 C                    -0.145670       0.027338
      9 H                     0.140134      -0.005105
     10 C                    -0.066645       0.177047
     11 C                    -0.139906       0.061345
     12 S                    -0.230624      -0.057702
     13 C                     0.135322       0.046926
     14 H                     0.156166      -0.003334
     15 C                    -0.067564       0.185125
     16 C                    -0.162543       0.016993
     17 H                     0.152150      -0.008670
     18 C                     0.280747       0.140998
     19 S                     0.047718      -0.026869
     20 C                    -0.321925      -0.048367
     21 C                     0.066868       0.211402
     22 H                     0.158780       0.002114
     23 H                     0.238556      -0.011006
  --------------------------------------------------------
  Sum of atomic charges =     1.000000
  Sum of spin   charges =     1.000000

 -----------------------------------------------------------------
                    Cartesian Multipole Moments
 -----------------------------------------------------------------
    Charge (ESU x 10^10)
                 4.8032
    Dipole Moment (Debye)
         X      28.7643      Y      -1.6528      Z      -0.2646
       Tot      28.8129
    Quadrupole Moments (Debye-Ang)
        XX     154.1012     XY      -4.8461     YY     -88.7043
        XZ       2.2448     YZ       7.2648     ZZ    -107.7136
    Octopole Moments (Debye-Ang^2)
       XXX     704.0099    XXY     -19.8929    XYY    -547.9366
       YYY     130.5331    XXZ      43.8108    XYZ      50.8681
       YYZ       9.5581    XZZ    -639.1360    YZZ      50.1914
       ZZZ      51.7219
    Hexadecapole Moments (Debye-Ang^3)
      XXXX   -1931.2269   XXXY    -177.5943   XXYY   -4463.6283
      XYYY     832.3141   YYYY    -842.1949   XXXZ     515.9863
      XXYZ     426.8550   XYYZ      57.2815   YYYZ     -95.5470
      XXZZ   -5003.2391   XYZZ     295.6312   YYZZ    -197.0328
      XZZZ     256.6302   YZZZ    -135.1423   ZZZZ    -262.6415
 -----------------------------------------------------------------
 Calculating analytic gradient of the SCF energy
 Gradient of SCF Energy
            1           2           3           4           5           6
    1  -0.0002689   0.0000666   0.0025458  -0.0002236   0.0036990   0.0019910
    2   0.0007350  -0.0003902  -0.0010016  -0.0014899   0.0005095  -0.0030094
    3   0.0000108  -0.0000321  -0.0002024  -0.0000898   0.0004639   0.0005640
            7           8           9          10          11          12
    1   0.0004808  -0.0069084  -0.0009273   0.0108788  -0.0031543  -0.0013145
    2  -0.0003534   0.0156153   0.0012867  -0.0168258   0.0030351   0.0020567
    3  -0.0007043   0.0015829   0.0004250  -0.0018666  -0.0000214   0.0009937
           13          14          15          16          17          18
    1   0.0003787  -0.0006888  -0.0064891   0.0028320   0.0001059  -0.0013068
    2   0.0026038   0.0002741  -0.0029314  -0.0028208   0.0011487  -0.0010936
    3  -0.0048965   0.0011967   0.0060372  -0.0084238  -0.0004952   0.0057524
           19          20          21          22          23
    1  -0.0013663  -0.0001073  -0.0005955   0.0001517   0.0002208
    2   0.0019876   0.0007565   0.0001728   0.0003438  -0.0006094
    3   0.0003068   0.0006897  -0.0015967   0.0001493   0.0001561
 Max gradient component =       1.683E-02
 RMS gradient           =       3.848E-03
 Gradient time:  CPU 4.28 s  wall 4.21 s
 Geometry Optimization Parameters
   NAtoms,    NIC,     NZ,  NCons,   NDum,   NFix, NCnnct, MaxDiis
       23     166       0       1       0       0       0       0

 Cartesian Hessian Update
 Hessian Updated using BFGS Update


** CONSTRAINED OPTIMIZATION IN DELOCALIZED INTERNAL COORDINATES **
   Searching for a Minimum

   Optimization Cycle:   3

                       Coordinates (Angstroms)
     ATOM                X               Y               Z
      1  H        -0.0939661348   -0.4956510300   -0.1807703183
      2  H         0.9749558869   -2.8588744330   -0.7026221175
      3  C         0.9623968394   -0.7291832910   -0.2388386895
      4  C         1.5457548020   -1.9580738457   -0.5114048797
      5  S         2.1093636721    0.5280754315    0.0222477543
      6  C         2.9454898430   -1.8860466720   -0.5131082473
      7  H         3.5969920643   -2.7290186902   -0.7192206278
      8  C         3.4291244683   -0.5906511289   -0.2409488277
      9  H         4.5456975776    1.9461320714    0.2355088955
     10  C         4.7877750052   -0.2137097142   -0.1430171802
     11  C         5.2286784051    1.1101788470    0.1198045244
     12  S         6.1281995906   -1.3122446020   -0.2913731763
     13  C         6.6034207712    1.2177719771    0.2007897960
     14  H         7.1308927849    2.1444447175    0.3909050012
     15  C         7.2654598118   -0.0182039644    0.0055752566
     16  C         8.6742057277   -0.2144205369   -0.0311222223
     17  H         9.3491107941    1.4237475581    1.2648337129
     18  C         9.6174182092    0.5599574423    0.6671034926
     19  S         9.4544445341   -1.5345756198   -0.8743038581
     20  C        10.9328717620    0.0957471157    0.5016273272
     21  C        11.0001447166   -1.0245750456   -0.3117273651
     22  H        11.8040846384    0.5541718362    0.9545326295
     23  H        11.8843642304   -1.5733946231   -0.6121876204
   Point Group: c1    Number of degrees of freedom:    63


   Energy is  -1656.413860085

              Constraints and their Current Values
                                        Value     Constraint
   Dihedral:       13  15  16  18       30.000       30.000
 Hessian Updated using BFGS Update

 62 Hessian modes will be used to form the next step
  Hessian Eigenvalues:
     0.044404    0.045000    0.045000    0.045000    0.045000    0.045000
     0.045001    0.045001    0.045002    0.045003    0.045004    0.045007
     0.045011    0.045013    0.045015    0.045025    0.045052    0.045056
     0.045063    0.153766    0.159947    0.159970    0.159991    0.159994
     0.160000    0.160025    0.160348    0.174498    0.221330    0.222860
     0.230496    0.238214    0.240388    0.249316    0.249677    0.264884
     0.278445    0.322445    0.326475    0.327832    0.338431    0.340062
     0.341635    0.365501    0.365540    0.365778    0.366889    0.367188
     0.367954    0.370099    0.370867    0.399720    0.424708    0.435419
     0.435556    0.446733    0.463086    0.464045    0.479419    0.495481
     0.497727    0.568193

 Minimum Search - Taking Simple RFO Step
 Searching for Lamda that Minimizes Along All modes
 Value Taken    Lamda =  -0.00254446
 Step Taken.  Stepsize is  0.132155

                             Maximum     Tolerance    Cnvgd?
         Gradient           0.012973      0.000300      NO
         Displacement       0.055180      0.001200      NO
         Energy change     -0.011749      0.000001      NO


 New Cartesian Coordinates Obtained by Inverse Iteration

 Displacement from previous Coordinates is:  0.507396
 ----------------------------------------------------------------
             Standard Nuclear Orientation (Angstroms)
    I     Atom           X                Y                Z
 ----------------------------------------------------------------
    1      H      -0.1213460223    -0.5596361729    -0.2330802696
    2      H       1.0049298935    -2.8940986961    -0.7353375725
    3      C       0.9404738653    -0.7700717182    -0.2722048736
    4      C       1.5569275646    -1.9842139497    -0.5339825164
    5      S       2.0670054213     0.4991916758     0.0065639480
    6      C       2.9565736506    -1.8932019141    -0.5097548044
    7      H       3.6194003560    -2.7299177483    -0.7007723518
    8      C       3.4242651754    -0.5960103870    -0.2278221070
    9      H       4.5435574629     1.9974362767     0.2613818370
   10      C       4.7621163734    -0.1566246385    -0.1078611784
   11      C       5.2220978861     1.1584244096     0.1538299469
   12      S       6.1155858117    -1.2591036596    -0.2518020721
   13      C       6.6001417442     1.2593094830     0.2309864086
   14      H       7.1338935616     2.1863491131     0.4029537480
   15      C       7.2709325916     0.0272956915     0.0377478748
   16      C       8.6743758386    -0.1814070511    -0.0169469572
   17      H       9.4185553569     1.4458057151     1.2467550412
   18      C       9.6542606294     0.5724837792     0.6496613367
   19      S       9.4114104464    -1.5419140562    -0.8498265169
   20      C      10.9535359192     0.0675795453     0.4735783487
   21      C      10.9795347368    -1.0685230978    -0.3171694962
   22      H      11.8439235325     0.5063310624     0.9075868589
   23      H      11.8447282044    -1.6438798623    -0.6222013727
 ----------------------------------------------------------------
 Nuclear Repulsion Energy =  1180.6685595365 hartrees
 There are       64 alpha and       63 beta electrons
 Applying Cartesian multipole field
    Component          Value
    ---------          -----
     (2,0,0)        1.00000E-12
     (0,2,0)        2.00000E-11
     (0,0,2)       -3.00000E-11
 Nucleus-field energy     =     0.0000000312 hartrees
 Requested basis set is 6-31++G(d,p)
 There are 110 shells and 345 basis functions
 A cutoff of  1.0D-12 yielded   4682 shell pairs
 There are     47727 function pairs

 Q-Chem warning in module /project/projectdirs/jcesr/qchem/qc44/cnl_qc441/compile/cori/qc_src/libqints/qchem/aobasis.C, line 68:

 Using reconstructed effective core potential

 Smallest overlap matrix eigenvalue = 8.39E-08
 Linear dependence detected in AO basis
 Number of orthogonalized atomic orbitals = 342
 Maximum deviation from orthogonality = 8.958E-11
 Guess MOs from SCF MO coefficient file
 Reading MOs from coefficient file
 Reading MOs from coefficient file
 An unrestricted hybrid HF-DFT SCF calculation will be
 performed using Pulay DIIS extrapolation
 Exchange:     0.2000 Hartree-Fock + 0.0800 Slater + 0.7200 B88
 Correlation:  0.1900 VWN1RPA + 0.8100 LYP
 Using SG-1 standard quadrature grid
 SCF converges when DIIS error is below 1.0E-08
 Geometry optimization detected.  Setting ReadMinima to 0
 Setting SaveMinima to 0
 ---------------------------------------
  Cycle       Energy         DIIS Error
 ---------------------------------------
    1   -1656.3753618092      1.37E-03
    2   -1656.4134282698      3.08E-04
    3   -1656.4087221712      6.10E-04
    4   -1656.4150355139      9.57E-05
    5   -1656.4151815396      2.98E-05
    6   -1656.4151970469      9.25E-06
    7   -1656.4151985192      3.44E-06
    8   -1656.4151987434      1.30E-06
    9   -1656.4151987999      5.98E-07
   10   -1656.4151988207      2.47E-07
   11   -1656.4151988333      1.54E-07
   12   -1656.4151988394      8.29E-08
   13   -1656.4151988404      4.34E-08
   14   -1656.4151988425      1.06E-08
   15   -1656.4151988435      7.12E-09 Convergence criterion met
 ---------------------------------------
 <S^2> = 0.7695
 SCF time:  CPU 20.68 s  wall 19.31 s
 SCF   energy in the final basis set = -1656.4151988435
 Total energy in the final basis set = -1656.4151988435
 
 --------------------------------------------------------------
 
                    Orbital Energies (a.u.)
 --------------------------------------------------------------
 
 Alpha MOs
 -- Occupied --
-89.075 -89.066 -89.063 -10.410 -10.409 -10.392 -10.389 -10.380
-10.376 -10.367 -10.366 -10.359 -10.356 -10.346 -10.342  -8.134
 -8.125  -8.122  -6.098  -6.095  -6.090  -6.089  -6.087  -6.085
 -6.083  -6.082  -6.079  -1.064  -1.041  -1.026  -0.944  -0.914
 -0.893  -0.892  -0.883  -0.841  -0.771  -0.748  -0.710  -0.708
 -0.688  -0.677  -0.672  -0.643  -0.608  -0.573  -0.571  -0.570
 -0.561  -0.551  -0.548  -0.544  -0.534  -0.520  -0.519  -0.510
 -0.494  -0.488  -0.453  -0.421  -0.406  -0.404  -0.395  -0.347
 -- Virtual --
 -0.230  -0.178  -0.154  -0.135  -0.126  -0.113  -0.110  -0.104
 -0.098  -0.093  -0.091  -0.082  -0.081  -0.079  -0.075  -0.069
 -0.066  -0.062  -0.061  -0.052  -0.046  -0.044  -0.039  -0.032
 -0.026  -0.022  -0.017  -0.010  -0.006  -0.004   0.003   0.008
  0.010   0.011   0.014   0.015   0.025   0.028   0.029   0.032
  0.035   0.036   0.040   0.042   0.046   0.047   0.052   0.054
  0.056   0.060   0.065   0.068   0.071   0.074   0.080   0.080
  0.083   0.091   0.095   0.099   0.102   0.110   0.111   0.118
  0.119   0.122   0.128   0.132   0.134   0.139   0.149   0.151
  0.156   0.163   0.165   0.172   0.180   0.184   0.190   0.195
  0.200   0.207   0.217   0.229   0.235   0.237   0.245   0.247
  0.250   0.263   0.267   0.279   0.309   0.323   0.332   0.362
  0.378   0.381   0.396   0.399   0.429   0.435   0.442   0.449
  0.466   0.472   0.489   0.507   0.510   0.512   0.515   0.522
  0.526   0.535   0.546   0.553   0.566   0.575   0.581   0.586
  0.591   0.595   0.605   0.608   0.614   0.633   0.639   0.650
  0.664   0.676   0.683   0.693   0.697   0.711   0.737   0.757
  0.791   0.795   0.801   0.810   0.813   0.818   0.826   0.837
  0.842   0.848   0.851   0.859   0.873   0.877   0.891   0.896
  0.904   0.921   0.929   0.948   0.953   0.958   0.967   0.973
  0.990   1.012   1.023   1.035   1.052   1.067   1.088   1.110
  1.117   1.134   1.141   1.178   1.193   1.198   1.206   1.206
  1.214   1.224   1.231   1.308   1.312   1.323   1.343   1.356
  1.402   1.411   1.442   1.484   1.515   1.526   1.558   1.564
  1.660   1.684   1.705   1.721   1.750   1.769   1.774   1.777
  1.791   1.810   1.814   1.845   1.859   1.870   1.901   1.913
  1.925   1.943   1.974   2.001   2.015   2.030   2.043   2.060
  2.078   2.087   2.112   2.123   2.151   2.183   2.226   2.231
  2.266   2.285   2.293   2.302   2.316   2.331   2.341   2.367
  2.380   2.387   2.388   2.418   2.430   2.446   2.461   2.486
  2.522   2.532   2.564   2.571   2.589   2.649   2.710   2.730
  2.758   2.783   2.794   2.824   2.983   3.039   3.077   3.140
  3.142   3.172   3.269   3.274   3.522   3.595   3.604   3.801
  3.838   3.866   4.104   4.121   4.156   4.171   4.179   4.189
  4.236   4.322   4.398   4.495   4.556   4.584
 
 Beta MOs
 -- Occupied --
-89.075 -89.066 -89.063 -10.408 -10.407 -10.391 -10.388 -10.377
-10.373 -10.366 -10.365 -10.357 -10.355 -10.346 -10.343  -8.134
 -8.125  -8.122  -6.099  -6.095  -6.091  -6.089  -6.087  -6.085
 -6.083  -6.082  -6.079  -1.060  -1.037  -1.022  -0.939  -0.912
 -0.891  -0.889  -0.881  -0.834  -0.768  -0.745  -0.707  -0.705
 -0.686  -0.675  -0.671  -0.641  -0.607  -0.570  -0.568  -0.562
 -0.559  -0.549  -0.545  -0.537  -0.532  -0.518  -0.510  -0.508
 -0.493  -0.488  -0.435  -0.419  -0.402  -0.400  -0.379
 -- Virtual --
 -0.295  -0.214  -0.167  -0.151  -0.128  -0.122  -0.112  -0.104
 -0.101  -0.096  -0.092  -0.090  -0.081  -0.079  -0.073  -0.072
 -0.067  -0.064  -0.060  -0.059  -0.051  -0.044  -0.043  -0.038
 -0.031  -0.025  -0.021  -0.016  -0.010  -0.005  -0.003   0.004
  0.008   0.010   0.012   0.014   0.016   0.026   0.029   0.029
  0.033   0.036   0.037   0.041   0.043   0.046   0.047   0.053
  0.055   0.057   0.061   0.066   0.069   0.073   0.075   0.081
  0.081   0.084   0.092   0.095   0.100   0.103   0.111   0.112
  0.119   0.120   0.122   0.129   0.133   0.135   0.140   0.151
  0.152   0.157   0.164   0.166   0.173   0.181   0.185   0.192
  0.197   0.202   0.209   0.219   0.230   0.236   0.238   0.246
  0.248   0.251   0.264   0.269   0.280   0.310   0.324   0.333
  0.362   0.379   0.382   0.398   0.399   0.430   0.436   0.444
  0.450   0.467   0.473   0.491   0.511   0.514   0.515   0.519
  0.526   0.530   0.539   0.547   0.555   0.568   0.577   0.583
  0.588   0.593   0.595   0.609   0.613   0.618   0.638   0.641
  0.651   0.665   0.680   0.688   0.694   0.701   0.715   0.738
  0.758   0.792   0.797   0.802   0.811   0.814   0.821   0.828
  0.839   0.843   0.849   0.852   0.861   0.874   0.878   0.891
  0.897   0.906   0.922   0.930   0.949   0.955   0.959   0.968
  0.974   0.992   1.015   1.026   1.038   1.055   1.070   1.090
  1.113   1.122   1.139   1.145   1.181   1.196   1.201   1.208
  1.209   1.221   1.229   1.232   1.311   1.314   1.329   1.346
  1.360   1.407   1.414   1.446   1.489   1.519   1.533   1.567
  1.572   1.665   1.686   1.706   1.725   1.752   1.770   1.776
  1.782   1.793   1.813   1.817   1.849   1.862   1.873   1.907
  1.916   1.929   1.945   1.979   2.008   2.021   2.035   2.048
  2.066   2.082   2.092   2.118   2.128   2.154   2.188   2.228
  2.234   2.271   2.287   2.299   2.306   2.320   2.333   2.343
  2.370   2.384   2.389   2.392   2.421   2.434   2.449   2.464
  2.489   2.526   2.533   2.568   2.574   2.591   2.651   2.713
  2.733   2.761   2.786   2.796   2.825   2.984   3.040   3.078
  3.140   3.143   3.172   3.270   3.275   3.523   3.596   3.605
  3.802   3.839   3.866   4.108   4.125   4.159   4.174   4.182
  4.191   4.241   4.326   4.403   4.498   4.558   4.587
 --------------------------------------------------------------
 
          Ground-State Mulliken Net Atomic Charges

     Atom                 Charge (a.u.)    Spin (a.u.)
  --------------------------------------------------------
      1 H                     0.241915      -0.011668
      2 H                     0.163469       0.001503
      3 C                     0.059187       0.227036
      4 C                    -0.228795      -0.038455
      5 S                    -0.042374      -0.022384
      6 C                     0.464143       0.140517
      7 H                     0.144119      -0.009137
      8 C                    -0.209818       0.029029
      9 H                     0.146585      -0.004804
     10 C                    -0.079873       0.178222
     11 C                    -0.078123       0.057910
     12 S                    -0.299259      -0.059629
     13 C                     0.175111       0.055809
     14 H                     0.158509      -0.004044
     15 C                    -0.071573       0.181322
     16 C                    -0.156900       0.018628
     17 H                     0.152232      -0.008684
     18 C                     0.263103       0.139750
     19 S                     0.039506      -0.026246
     20 C                    -0.313636      -0.046514
     21 C                     0.073426       0.210818
     22 H                     0.159339       0.002002
     23 H                     0.239705      -0.010982
  --------------------------------------------------------
  Sum of atomic charges =     1.000000
  Sum of spin   charges =     1.000000

 -----------------------------------------------------------------
                    Cartesian Multipole Moments
 -----------------------------------------------------------------
    Charge (ESU x 10^10)
                 4.8032
    Dipole Moment (Debye)
         X      28.8291      Y      -1.6313      Z      -0.2685
       Tot      28.8765
    Quadrupole Moments (Debye-Ang)
        XX     155.7327     XY      -4.5410     YY     -88.4936
        XZ       2.5600     YZ       7.2384     ZZ    -107.8792
    Octopole Moments (Debye-Ang^2)
       XXX     728.9599    XXY     -20.8624    XYY    -544.5352
       YYY     128.9304    XXZ      45.0610    XYZ      50.3506
       YYZ       8.6618    XZZ    -639.4733    YZZ      49.5896
       ZZZ      49.2001
    Hexadecapole Moments (Debye-Ang^3)
      XXXX   -1611.3135   XXXY    -225.2328   XXYY   -4427.8530
      XYYY     813.7058   YYYY    -846.2228   XXXZ     510.0575
      XXYZ     423.1027   XYYZ      49.3080   YYYZ     -93.3928
      XXZZ   -5004.4481   XYZZ     289.5402   YYZZ    -197.7530
      XZZZ     232.8296   YZZZ    -134.7196   ZZZZ    -258.0496
 -----------------------------------------------------------------
 Calculating analytic gradient of the SCF energy
 Gradient of SCF Energy
            1           2           3           4           5           6
    1  -0.0003449  -0.0002750  -0.0014465  -0.0004996   0.0021259   0.0002829
    2   0.0003204   0.0001988  -0.0011600   0.0004122  -0.0015468  -0.0014033
    3  -0.0000272   0.0000919  -0.0000252   0.0000974  -0.0002840   0.0004625
            7           8           9          10          11          12
    1   0.0002892   0.0011889  -0.0008873  -0.0003220   0.0004762  -0.0019211
    2   0.0002035   0.0040006  -0.0001659  -0.0042200   0.0016780   0.0020111
    3  -0.0003666  -0.0001179  -0.0001144  -0.0001592   0.0002762   0.0006735
           13          14          15          16          17          18
    1  -0.0007813   0.0003548   0.0020188  -0.0005468  -0.0001653  -0.0003940
    2   0.0010084  -0.0002050  -0.0015842   0.0012675   0.0004516  -0.0022297
    3  -0.0043036   0.0004666   0.0066320  -0.0063383  -0.0003739   0.0038395
           19          20          21          22          23
    1  -0.0007091   0.0000085   0.0012248   0.0001800   0.0001427
    2   0.0013408  -0.0003531   0.0003796  -0.0001042  -0.0003005
    3   0.0000993  -0.0003355  -0.0003473  -0.0000057   0.0001600
 Max gradient component =       6.632E-03
 RMS gradient           =       1.699E-03
 Gradient time:  CPU 4.19 s  wall 4.20 s
 Geometry Optimization Parameters
   NAtoms,    NIC,     NZ,  NCons,   NDum,   NFix, NCnnct, MaxDiis
       23     166       0       1       0       0       0       0

 Cartesian Hessian Update
 Hessian Updated using BFGS Update


** CONSTRAINED OPTIMIZATION IN DELOCALIZED INTERNAL COORDINATES **
   Searching for a Minimum

   Optimization Cycle:   4

                       Coordinates (Angstroms)
     ATOM                X               Y               Z
      1  H        -0.1213460223   -0.5596361729   -0.2330802696
      2  H         1.0049298935   -2.8940986961   -0.7353375725
      3  C         0.9404738653   -0.7700717182   -0.2722048736
      4  C         1.5569275646   -1.9842139497   -0.5339825164
      5  S         2.0670054213    0.4991916758    0.0065639480
      6  C         2.9565736506   -1.8932019141   -0.5097548044
      7  H         3.6194003560   -2.7299177483   -0.7007723518
      8  C         3.4242651754   -0.5960103870   -0.2278221070
      9  H         4.5435574629    1.9974362767    0.2613818370
     10  C         4.7621163734   -0.1566246385   -0.1078611784
     11  C         5.2220978861    1.1584244096    0.1538299469
     12  S         6.1155858117   -1.2591036596   -0.2518020721
     13  C         6.6001417442    1.2593094830    0.2309864086
     14  H         7.1338935616    2.1863491131    0.4029537480
     15  C         7.2709325916    0.0272956915    0.0377478748
     16  C         8.6743758386   -0.1814070511   -0.0169469572
     17  H         9.4185553569    1.4458057151    1.2467550412
     18  C         9.6542606294    0.5724837792    0.6496613367
     19  S         9.4114104464   -1.5419140562   -0.8498265169
     20  C        10.9535359192    0.0675795453    0.4735783487
     21  C        10.9795347368   -1.0685230978   -0.3171694962
     22  H        11.8439235325    0.5063310624    0.9075868589
     23  H        11.8447282044   -1.6438798623   -0.6222013727
   Point Group: c1    Number of degrees of freedom:    63


   Energy is  -1656.415198843

              Constraints and their Current Values
                                        Value     Constraint
   Dihedral:       13  15  16  18       30.000       30.000
 Hessian Updated using BFGS Update

 61 Hessian modes will be used to form the next step
  Hessian Eigenvalues:
     0.040752    0.045000    0.045000    0.045000    0.045000    0.045001
     0.045002    0.045002    0.045004    0.045006    0.045009    0.045012
     0.045014    0.045025    0.045041    0.045054    0.045063    0.045090
     0.154664    0.159957    0.159971    0.159985    0.159994    0.160000
     0.160311    0.163038    0.166721    0.221428    0.223040    0.230041
     0.238191    0.241415    0.249667    0.250387    0.268719    0.289365
     0.321794    0.326446    0.327223    0.339130    0.340350    0.340841
     0.365501    0.365536    0.365758    0.366890    0.367187    0.367730
     0.370112    0.370453    0.399624    0.419092    0.435418    0.435468
     0.450270    0.463127    0.463547    0.479633    0.495490    0.499770
     0.572110

 Minimum Search - Taking Simple RFO Step
 Searching for Lamda that Minimizes Along All modes
 Value Taken    Lamda =  -0.00018352
 Step Taken.  Stepsize is  0.046750

                             Maximum     Tolerance    Cnvgd?
         Gradient           0.001855      0.000300      NO
         Displacement       0.014726      0.001200      NO
         Energy change     -0.001339      0.000001      NO


 New Cartesian Coordinates Obtained by Inverse Iteration

 Displacement from previous Coordinates is:  0.109307
 ----------------------------------------------------------------
             Standard Nuclear Orientation (Angstroms)
    I     Atom           X                Y                Z
 ----------------------------------------------------------------
    1      H      -0.1199746718    -0.5622054740    -0.2527419554
    2      H       1.0105319399    -2.8947020423    -0.7494697212
    3      C       0.9421064652    -0.7694825183    -0.2841001987
    4      C       1.5595202186    -1.9841677169    -0.5425956896
    5      S       2.0621224212     0.5008805029     0.0064196326
    6      C       2.9572167394    -1.8938876789    -0.5070664242
[...]
      2 H                     0.163144       0.001447
      3 C                     0.054555       0.225112
      4 C                    -0.224898      -0.036968
      5 S                    -0.036251      -0.020416
      6 C                     0.464494       0.138085
      7 H                     0.143868      -0.009025
      8 C                    -0.214559       0.029099
      9 H                     0.145696      -0.004606
     10 C                    -0.076848       0.180036
     11 C                    -0.080175       0.053473
     12 S                    -0.309236      -0.059528
     13 C                     0.175809       0.059431
     14 H                     0.158424      -0.004320
     15 C                    -0.032506       0.180167
     16 C                    -0.152129       0.018535
     17 H                     0.149946      -0.008752
     18 C                     0.215309       0.139391
     19 S                     0.049408      -0.025929
     20 C                    -0.295459      -0.045895
     21 C                     0.061078       0.211372
     22 H                     0.159479       0.002039
     23 H                     0.239649      -0.011132
  --------------------------------------------------------
  Sum of atomic charges =     1.000000
  Sum of spin   charges =     1.000000

 -----------------------------------------------------------------
                    Cartesian Multipole Moments
 -----------------------------------------------------------------
    Charge (ESU x 10^10)
                 4.8032
    Dipole Moment (Debye)
         X      28.8687      Y      -1.6261      Z      -0.2721
       Tot      28.9157
    Quadrupole Moments (Debye-Ang)
        XX     156.2155     XY      -4.5349     YY     -88.3205
        XZ       2.6854     YZ       7.2728     ZZ    -107.9955
    Octopole Moments (Debye-Ang^2)
       XXX     734.7951    XXY     -19.9169    XYY    -542.6371
       YYY     129.6116    XXZ      44.3826    XYZ      50.0094
       YYZ       8.1359    XZZ    -640.8772    YZZ      49.9403
       ZZZ      47.3460
    Hexadecapole Moments (Debye-Ang^3)
      XXXX   -1545.2047   XXXY    -206.3911   XXYY   -4409.8395
      XYYY     818.0551   YYYY    -850.9730   XXXZ     489.9596
      XXYZ     418.6700   XYYZ      46.3617   YYYZ     -92.8078
      XXZZ   -5018.3527   XYZZ     292.6410   YYZZ    -198.0044
      XZZZ     219.6202   YZZZ    -135.3236   ZZZZ    -253.7138
 -----------------------------------------------------------------
 Calculating analytic gradient of the SCF energy
 Gradient of SCF Energy
            1           2           3           4           5           6
    1  -0.0000075  -0.0000003   0.0000113  -0.0000302  -0.0000023   0.0000166
    2  -0.0000009   0.0000046   0.0000010  -0.0000011  -0.0000081   0.0000077
    3  -0.0000016   0.0000098  -0.0000001  -0.0000079   0.0000074  -0.0000068
            7           8           9          10          11          12
    1   0.0000044   0.0000587  -0.0000137  -0.0000417  -0.0000569   0.0000589
    2  -0.0000009   0.0000383   0.0000050   0.0000241  -0.0000565   0.0000216
    3   0.0000021   0.0000176   0.0000019   0.0000119  -0.0000416   0.0000186
           13          14          15          16          17          18
    1  -0.0000738  -0.0000017   0.0000676   0.0001850  -0.0000045  -0.0001713
    2   0.0005499   0.0000043  -0.0022904   0.0040557  -0.0000121  -0.0023286
    3  -0.0037353  -0.0000273   0.0077324  -0.0070035   0.0000272   0.0029755
           19          20          21          22          23
    1   0.0000102   0.0000077  -0.0000220  -0.0000001   0.0000056
    2  -0.0000000   0.0000005  -0.0000274   0.0000052   0.0000081
    3   0.0000101   0.0000041   0.0000155  -0.0000062  -0.0000038
 Max gradient component =       7.732E-03
 RMS gradient           =       1.519E-03
 Gradient time:  CPU 4.26 s  wall 4.20 s
 Geometry Optimization Parameters
   NAtoms,    NIC,     NZ,  NCons,   NDum,   NFix, NCnnct, MaxDiis
       23     166       0       1       0       0       0       0

 Cartesian Hessian Update
 Hessian Updated using BFGS Update


** CONSTRAINED OPTIMIZATION IN DELOCALIZED INTERNAL COORDINATES **
   Searching for a Minimum

   Optimization Cycle:   9

                       Coordinates (Angstroms)
     ATOM                X               Y               Z
      1  H        -0.1207672963   -0.5548341893   -0.2713130331
      2  H         1.0067506808   -2.8878956693   -0.7675594454
      3  C         0.9413532505   -0.7636612644   -0.2957057121
      4  C         1.5565201885   -1.9797774402   -0.5526554205
      5  S         2.0620685733    0.5016928410    0.0096831535
      6  C         2.9548726085   -1.8937587949   -0.5039904844
      7  H         3.6153834754   -2.7355049450   -0.6800222065
      8  C         3.4219215821   -0.6025124081   -0.2075760470
      9  H         4.5524718611    1.9935566689    0.2971153890
     10  C         4.7601285944   -0.1599384045   -0.0844001072
     11  C         5.2228250822    1.1495944899    0.1819159582
     12  S         6.1171130194   -1.2684061185   -0.2386497380
     13  C         6.6010610104    1.2496590534    0.2522880363
     14  H         7.1324610549    2.1797355419    0.4138951720
     15  C         7.2696587099    0.0188789989    0.0525079277
     16  C         8.6743254747   -0.1757503726   -0.0242498927
     17  H         9.4273141639    1.4679940765    1.2124556149
     18  C         9.6584133074    0.5890625402    0.6222506974
     19  S         9.4062085390   -1.5619603685   -0.8250598116
     20  C        10.9554286209    0.0790871570    0.4521216982
     21  C        10.9746265007   -1.0766122941   -0.3104938474
     22  H        11.8477482875    0.5278586235    0.8711762313
     23  H        11.8389927106   -1.6549039218   -0.6114508727
   Point Group: c1    Number of degrees of freedom:    63


   Energy is  -1656.415353772

              Constraints and their Current Values
                                        Value     Constraint
   Dihedral:       13  15  16  18       30.000       30.000
 Hessian Updated using BFGS Update

 62 Hessian modes will be used to form the next step
  Hessian Eigenvalues:
     0.012461    0.032134    0.044995    0.045000    0.045001    0.045001
     0.045001    0.045002    0.045003    0.045005    0.045009    0.045012
     0.045012    0.045018    0.045023    0.045041    0.045054    0.045063
     0.045800    0.154471    0.158643    0.159968    0.160013    0.160099
     0.160173    0.160385    0.161248    0.169823    0.219435    0.221879
     0.226105    0.239752    0.242776    0.248602    0.249518    0.271127
     0.291408    0.297218    0.326342    0.327773    0.334187    0.339940
     0.341306    0.365485    0.365552    0.365806    0.366921    0.367272
     0.368042    0.370149    0.371591    0.400871    0.429707    0.435650
     0.439963    0.462001    0.463934    0.474030    0.486209    0.495537
     0.503826    0.552114

 Minimum Search - Taking Simple RFO Step
 Searching for Lamda that Minimizes Along All modes
 Value Taken    Lamda =   0.00000000
 Step Taken.  Stepsize is  0.002262

                             Maximum     Tolerance    Cnvgd?
         Gradient           0.000048      0.000300     YES
         Displacement       0.001584      0.001200      NO
         Energy change     -0.000001      0.000001     YES

 Final energy is   -1656.41535377168     


 ******************************
 **  OPTIMIZATION CONVERGED  **
 ******************************

                       Coordinates (Angstroms)
     ATOM                X               Y               Z
      1  H        -0.1207672963   -0.5548341893   -0.2713130331
      2  H         1.0067506808   -2.8878956693   -0.7675594454
      3  C         0.9413532505   -0.7636612644   -0.2957057121
      4  C         1.5565201885   -1.9797774402   -0.5526554205
      5  S         2.0620685733    0.5016928410    0.0096831535
      6  C         2.9548726085   -1.8937587949   -0.5039904844
      7  H         3.6153834754   -2.7355049450   -0.6800222065
      8  C         3.4219215821   -0.6025124081   -0.2075760470
      9  H         4.5524718611    1.9935566689    0.2971153890
     10  C         4.7601285944   -0.1599384045   -0.0844001072
     11  C         5.2228250822    1.1495944899    0.1819159582
     12  S         6.1171130194   -1.2684061185   -0.2386497380
     13  C         6.6010610104    1.2496590534    0.2522880363
     14  H         7.1324610549    2.1797355419    0.4138951720
     15  C         7.2696587099    0.0188789989    0.0525079277
     16  C         8.6743254747   -0.1757503726   -0.0242498927
     17  H         9.4273141639    1.4679940765    1.2124556149
     18  C         9.6584133074    0.5890625402    0.6222506974
     19  S         9.4062085390   -1.5619603685   -0.8250598116
     20  C        10.9554286209    0.0790871570    0.4521216982
     21  C        10.9746265007   -1.0766122941   -0.3104938474
     22  H        11.8477482875    0.5278586235    0.8711762313
     23  H        11.8389927106   -1.6549039218   -0.6114508727

Z-matrix Print:
$molecule
1 2
S 
C  1 1.752209
C  2 1.414834 1 110.592536
H  3 1.083303 2 122.420121 1 -177.822291 0
C  3 1.383654 2 113.616907 1 0.420132 0
H  5 1.083936 3 123.663087 2 -179.139283 0
C  5 1.414174 3 113.731387 2 -0.408574 0
C  7 1.414865 5 127.988992 3 179.452566 0
C  8 1.404747 7 128.342775 5 178.289278 0
H  9 1.084342 8 123.043988 7 -0.029454 0
C  9 1.401841 8 113.289700 7 -179.831743 0
H  11 1.083102 9 124.378752 8 179.889986 0
C  11 1.386864 9 112.471560 8 -0.004247 0
H  13 1.082730 11 127.475548 9 -179.967688 0
C  2 1.420162 1 122.746658 3 -175.149945 0
C  15 1.404041 2 126.420687 1 -155.647439 0
H  16 1.083637 15 122.897316 2 -4.004375 0
C  16 1.404018 15 113.192898 2 174.478953 0
H  18 1.083161 16 124.309071 15 179.875180 0
C  18 1.384772 16 112.499713 15 -0.482327 0
H  20 1.082647 18 127.585456 16 178.353562 0
S  13 1.717669 11 112.923488 9 -0.028328 0
S  20 1.720545 18 112.798494 16 -0.277737 0
$end

 
 --------------------------------------------------------------
 
                    Orbital Energies (a.u.)
 --------------------------------------------------------------
 
 Alpha MOs
 -- Occupied --
-89.075 -89.066 -89.063 -10.410 -10.410 -10.392 -10.389 -10.379
-10.376 -10.366 -10.366 -10.358 -10.357 -10.345 -10.342  -8.134
 -8.125  -8.122  -6.098  -6.094  -6.090  -6.089  -6.087  -6.085
 -6.083  -6.082  -6.080  -1.064  -1.041  -1.026  -0.944  -0.914
 -0.893  -0.893  -0.883  -0.841  -0.771  -0.748  -0.710  -0.707
 -0.689  -0.677  -0.673  -0.643  -0.608  -0.572  -0.571  -0.569
 -0.561  -0.551  -0.548  -0.544  -0.534  -0.521  -0.519  -0.511
 -0.494  -0.488  -0.454  -0.421  -0.407  -0.404  -0.395  -0.347
 -- Virtual --
 -0.230  -0.178  -0.155  -0.135  -0.127  -0.113  -0.110  -0.104
 -0.098  -0.093  -0.092  -0.082  -0.081  -0.079  -0.074  -0.069
 -0.066  -0.062  -0.061  -0.052  -0.046  -0.043  -0.039  -0.032
 -0.026  -0.022  -0.017  -0.010  -0.006  -0.004   0.003   0.007
  0.010   0.012   0.014   0.015   0.025   0.028   0.029   0.032
  0.035   0.036   0.040   0.042   0.046   0.047   0.052   0.054
  0.056   0.061   0.065   0.068   0.071   0.074   0.080   0.081
  0.083   0.091   0.095   0.099   0.102   0.111   0.111   0.118
  0.119   0.121   0.128   0.132   0.134   0.139   0.149   0.152
  0.157   0.163   0.165   0.173   0.180   0.185   0.191   0.196
  0.201   0.208   0.218   0.229   0.235   0.237   0.245   0.247
  0.250   0.263   0.267   0.279   0.311   0.323   0.331   0.362
  0.379   0.382   0.396   0.400   0.428   0.435   0.443   0.450
  0.467   0.472   0.489   0.508   0.510   0.511   0.515   0.522
  0.526   0.534   0.547   0.554   0.565   0.576   0.582   0.587
  0.591   0.594   0.605   0.607   0.614   0.633   0.639   0.650
  0.665   0.675   0.684   0.693   0.697   0.711   0.736   0.757
  0.790   0.795   0.801   0.808   0.814   0.818   0.825   0.837
  0.842   0.848   0.850   0.859   0.874   0.878   0.888   0.896
  0.904   0.920   0.930   0.948   0.953   0.959   0.967   0.973
  0.991   1.010   1.022   1.036   1.055   1.067   1.089   1.110
  1.118   1.135   1.143   1.178   1.192   1.198   1.204   1.207
  1.215   1.225   1.232   1.302   1.315   1.325   1.341   1.353
  1.405   1.412   1.446   1.482   1.512   1.524   1.558   1.564
  1.659   1.685   1.705   1.722   1.750   1.770   1.774   1.776
  1.792   1.810   1.815   1.849   1.860   1.871   1.902   1.915
  1.926   1.942   1.972   2.001   2.012   2.029   2.044   2.062
  2.078   2.087   2.113   2.121   2.152   2.183   2.227   2.232
  2.267   2.286   2.296   2.300   2.316   2.331   2.341   2.370
  2.380   2.387   2.387   2.419   2.433   2.445   2.461   2.487
  2.523   2.532   2.565   2.572   2.590   2.647   2.711   2.732
  2.760   2.783   2.796   2.824   2.985   3.040   3.078   3.140
  3.142   3.175   3.270   3.274   3.522   3.595   3.604   3.800
  3.838   3.866   4.104   4.121   4.156   4.172   4.179   4.190
  4.236   4.323   4.398   4.495   4.556   4.585
 
 Beta MOs
 -- Occupied --
-89.075 -89.066 -89.063 -10.407 -10.407 -10.391 -10.389 -10.376
-10.373 -10.365 -10.365 -10.356 -10.355 -10.346 -10.343  -8.134
 -8.125  -8.123  -6.098  -6.095  -6.091  -6.089  -6.087  -6.085
 -6.083  -6.082  -6.080  -1.059  -1.037  -1.022  -0.939  -0.912
 -0.891  -0.889  -0.881  -0.834  -0.768  -0.745  -0.707  -0.705
 -0.687  -0.675  -0.671  -0.641  -0.606  -0.569  -0.568  -0.562
 -0.559  -0.549  -0.545  -0.537  -0.532  -0.518  -0.510  -0.508
 -0.494  -0.488  -0.435  -0.419  -0.402  -0.400  -0.379
 -- Virtual --
 -0.294  -0.214  -0.167  -0.152  -0.129  -0.122  -0.112  -0.104
 -0.101  -0.096  -0.092  -0.090  -0.081  -0.079  -0.073  -0.072
 -0.067  -0.064  -0.060  -0.059  -0.051  -0.044  -0.043  -0.038
 -0.031  -0.025  -0.021  -0.016  -0.010  -0.006  -0.003   0.004
  0.008   0.011   0.012   0.015   0.016   0.026   0.029   0.029
  0.032   0.036   0.037   0.041   0.043   0.046   0.047   0.053
  0.055   0.057   0.061   0.066   0.069   0.072   0.075   0.082
  0.082   0.084   0.092   0.095   0.100   0.103   0.111   0.112
  0.119   0.120   0.122   0.129   0.133   0.135   0.140   0.151
  0.152   0.158   0.164   0.166   0.173   0.181   0.186   0.192
  0.197   0.202   0.209   0.220   0.230   0.236   0.238   0.246
  0.248   0.251   0.264   0.268   0.280   0.311   0.324   0.333
  0.362   0.379   0.382   0.398   0.400   0.429   0.436   0.444
  0.451   0.468   0.473   0.491   0.512   0.513   0.515   0.519
  0.526   0.530   0.538   0.548   0.556   0.567   0.578   0.583
  0.588   0.592   0.595   0.609   0.611   0.619   0.638   0.641
  0.651   0.666   0.679   0.688   0.694   0.701   0.714   0.737
  0.758   0.792   0.797   0.802   0.810   0.815   0.822   0.828
  0.838   0.843   0.849   0.851   0.861   0.875   0.878   0.889
  0.897   0.905   0.921   0.931   0.949   0.955   0.960   0.968
  0.974   0.993   1.012   1.025   1.039   1.057   1.071   1.092
  1.113   1.123   1.140   1.146   1.181   1.195   1.202   1.207
  1.210   1.221   1.230   1.234   1.306   1.317   1.331   1.344
  1.357   1.410   1.416   1.450   1.487   1.515   1.531   1.567
  1.572   1.664   1.687   1.706   1.725   1.752   1.771   1.776
  1.782   1.794   1.814   1.817   1.853   1.864   1.875   1.907
  1.918   1.930   1.945   1.977   2.007   2.018   2.034   2.049
  2.068   2.082   2.092   2.119   2.127   2.155   2.188   2.230
  2.234   2.272   2.287   2.301   2.304   2.321   2.333   2.342
  2.373   2.383   2.389   2.391   2.422   2.436   2.448   2.463
  2.490   2.526   2.533   2.569   2.575   2.592   2.650   2.714
  2.735   2.763   2.786   2.798   2.826   2.986   3.041   3.079
  3.140   3.143   3.175   3.271   3.276   3.523   3.596   3.606
  3.800   3.838   3.866   4.108   4.125   4.159   4.175   4.183
  4.192   4.241   4.326   4.403   4.498   4.559   4.588
 --------------------------------------------------------------
 
          Ground-State Mulliken Net Atomic Charges

     Atom                 Charge (a.u.)    Spin (a.u.)
  --------------------------------------------------------
      1 H                     0.241202      -0.011617
      2 H                     0.163144       0.001447
      3 C                     0.054555       0.225112
      4 C                    -0.224898      -0.036968
      5 S                    -0.036251      -0.020416
      6 C                     0.464494       0.138085
      7 H                     0.143868      -0.009025
      8 C                    -0.214559       0.029099
      9 H                     0.145696      -0.004606
     10 C                    -0.076848       0.180036
     11 C                    -0.080175       0.053473
     12 S                    -0.309236      -0.059528
     13 C                     0.175809       0.059431
     14 H                     0.158424      -0.004320
     15 C                    -0.032506       0.180167
     16 C                    -0.152129       0.018535
     17 H                     0.149946      -0.008752
     18 C                     0.215309       0.139391
     19 S                     0.049408      -0.025929
     20 C                    -0.295459      -0.045895
     21 C                     0.061078       0.211372
     22 H                     0.159479       0.002039
     23 H                     0.239649      -0.011132
  --------------------------------------------------------
  Sum of atomic charges =     1.000000
  Sum of spin   charges =     1.000000

 -----------------------------------------------------------------
                    Cartesian Multipole Moments
 -----------------------------------------------------------------
    Charge (ESU x 10^10)
                 4.8032
    Dipole Moment (Debye)
         X      28.8687      Y      -1.6261      Z      -0.2721
       Tot      28.9157
    Quadrupole Moments (Debye-Ang)
        XX     156.2155     XY      -4.5349     YY     -88.3205
        XZ       2.6854     YZ       7.2728     ZZ    -107.9955
    Octopole Moments (Debye-Ang^2)
       XXX     734.7951    XXY     -19.9169    XYY    -542.6371
       YYY     129.6116    XXZ      44.3826    XYZ      50.0094
       YYZ       8.1359    XZZ    -640.8772    YZZ      49.9403
       ZZZ      47.3460
    Hexadecapole Moments (Debye-Ang^3)
      XXXX   -1545.2047   XXXY    -206.3911   XXYY   -4409.8395
      XYYY     818.0551   YYYY    -850.9730   XXXZ     489.9596
      XXYZ     418.6700   XYYZ      46.3617   YYYZ     -92.8078
      XXZZ   -5018.3527   XYZZ     292.6410   YYZZ    -198.0044
      XZZZ     219.6202   YZZZ    -135.3236   ZZZZ    -253.7138
 -----------------------------------------------------------------
Archival summary:
1\1\nid00482\OPT\ProcedureUnspecified\BasisUnspecified\3128(1+,2)\bwood\TueMay3011:02:072017TueMay3011:02:072017\0\\#,OPT,ProcedureUnspecified,BasisUnspecified,\\1,2\S\C,1,1.75221\C,2,1.41483,1,110.593\H,3,1.0833,2,122.42,1,-177.822,0\C,3,1.38365,2,113.617,1,0.420132,0\H,5,1.08394,3,123.663,2,-179.139,0\C,5,1.41417,3,113.731,2,-0.408574,0\C,7,1.41486,5,127.989,3,179.453,0\C,8,1.40475,7,128.343,5,178.289,0\H,9,1.08434,8,123.044,7,-0.0294545,0\C,9,1.40184,8,113.29,7,-179.832,0\H,11,1.0831,9,124.379,8,179.89,0\C,11,1.38686,9,112.472,8,-0.00424688,0\H,13,1.08273,11,127.476,9,-179.968,0\C,2,1.42016,1,122.747,3,-175.15,0\C,15,1.40404,2,126.421,1,-155.647,0\H,16,1.08364,15,122.897,2,-4.00437,0\C,16,1.40402,15,113.193,2,174.479,0\H,18,1.08316,16,124.309,15,179.875,0\C,18,1.38477,16,112.5,15,-0.482327,0\H,20,1.08265,18,127.585,16,178.354,0\S,13,1.71767,11,112.923,9,-0.0283283,0\S,20,1.72055,18,112.798,16,-0.277737,0\\\@

 Total job time:  199.14s(wall), 211.05s(cpu) 
 Tue May 30 11:02:07 2017

        *************************************************************
        *                                                           *
        *  Thank you very much for using Q-Chem.  Have a nice day.  *
        *                                                           *
        *************************************************************


0 sent ACK to 0 
now end server 0 ... 
