srun -N 1 --ntasks-per-node 22 --cpus-per-task 2 --cpu_bind=cores --nodelist nid00528 /global/project/projectdirs/jcesr/qchem/qc44/cnl_qc441/dist/exe/qcprog.cori.haswell.exe .pt_nn_cation_90.0.in.33816.qcin.1 /dev/shm/eg_qchem/qchem33816/
Process 1 of 22 is on nid00528 - thread support 0
Process 2 of 22 is on nid00528 - thread support 0
Process 3 of 22 is on nid00528 - thread support 0
Process 4 of 22 is on nid00528 - thread support 0
Process 5 of 22 is on nid00528 - thread support 0
Process 6 of 22 is on nid00528 - thread support 0
Process 21 of 22 is on nid00528 - thread support 0
Process 0 of 22 is on nid00528 - thread support 0
initial socket setup ...start
initial socket setup ...done 
now start server 0 ... 
nid00528 10.128.2
Q-Chem Developer Version! Running on 10.128.2.*
                  Welcome to Q-Chem
     A Quantum Leap Into The Future Of Chemistry


 Q-Chem 4.4, Q-Chem, Inc., Pleasanton, CA (2016)

 Y. Shao,  Z. Gan,  E. Epifanovsky,  A. T. B. Gilbert,  M. Wormit,  
 J. Kussmann,  A. W. Lange,  A. Behn,  J. Deng,  X. Feng,  D. Ghosh,  
 M. Goldey,  P. R. Horn,  L. D. Jacobson,  I. Kaliman,  F. Rob,  
 R. Z. Khaliullin,  T. Kus,  A. Landau,  J. Liu,  E. I. Proynov,  Y. M. Rhee,  
 R. M. Richard,  M. A. Rohrdanz,  R. P. Steele,  E. J. Sundstrom,  
 H. L. Woodcock III,  P. M. Zimmerman,  D. Zuev,  B. Albrecht,  E. Alguire,  
 B. Austin,  S. A. Baeppler,  G. J. O. Beran,  Y. A. Bernard,  
 E. J. Berquist,  K. Brandhorst,  K. B. Bravaya,  S. T. Brown,  D. Casanova,  
 C.-M. Chang,  Y. Chen,  S. H. Chien,  K. D. Closser,  M. P. Coons,  
 D. L. Crittenden,  S. Dasgupta,  M. Diedenhofen,  R. A. DiStasio Jr.,  
 H. Do,  A. D. Dutoi,  R. G. Edgar,  P.-T. Fang,  S. Fatehi,  Q. Feng,  
 L. Fusti-Molnar,  A. Ghysels,  A. Golubeva-Zadorozhnaya,  J. Gomes,  
 A. Gunina,  M. W. D. Hanson-Heine,  P. H. P. Harbach,  A. W. Hauser,  
 J. E. Herr,  E. G. Hohenstein,  Z. C. Holden,  K. Hui,  T.-C. Jagau,  H. Ji,  
 B. Kaduk,  K. Khistyaev,  Jaehoon Kim,  Jihan Kim,  R. A. King,  
 P. Klunzinger,  K. Koh,  D. Kosenkov,  T. Kowalczyk,  C. M. Krauter,  
 A. Kunitsa,  K. U. Lao,  A. Laurent,  K. V. Lawler,  J. Lee,  D. Lefrancois,  
 S. Lehtola,  S. V. Levchenko,  C. Y. Lin,  Y.-S. Lin,  F. Liu,  E. Livshits,  
 R. C. Lochan,  A. Luenser,  P. Manohar,  S. F. Manzer,  S.-P. Mao,  Y. Mao,  
 N. Mardirossian,  A. V. Marenich,  L. A. Martinez-Martinez,  S. A. Maurer,  
 N. J. Mayhall,  J.-M. Mewes,  A. F. Morrison,  K. Nanda,  T. S. Nguyen-Beck,  
 C. M. Oana,  R. Olivares-Amaya,  D. P. O'Neill,  J. A. Parkhill,  
 T. M. Perrine,  R. Peverati,  P. A. Pieniazek,  F. Plasser,  A. Prociuk,  
 D. R. Rehn,  E. Rosta,  N. J. Russ,  N. Sergueev,  S. M. Sharada,  
 S. Sharma,  D. W. Small,  A. Sodt,  T. Stauch,  T. Stein,  D. Stuck,  
 Y.-C. Su,  A. J. W. Thom,  T. Tsuchimochi,  L. Vogt,  O. Vydrov,  T. Wang,  
 M. A. Watson,  J. Wenzel,  A. White,  C. F. Williams,  V. Vanovschi,  
 K. Yao,  S. Yeganeh,  S. R. Yost,  Z.-Q. You,  I. Y. Zhang,  X. Zhang,  
 Y. Zhao,  B. R. Brooks,  G. K. L. Chan,  D. M. Chipman,  C. J. Cramer,  
 W. A. Goddard III,  M. S. Gordon,  W. J. Hehre,  A. Klamt,  
 H. F. Schaefer III,  M. W. Schmidt,  C. D. Sherrill,  D. G. Truhlar,  
 A. Warshel,  X. Xu,  A. Aspuru-Guzik,  R. Baer,  A. T. Bell,  N. A. Besley,  
 J.-D. Chai,  A. Dreuw,  B. D. Dunietz,  T. R. Furlani,  S. R. Gwaltney,  
 C.-P. Hsu,  Y. Jung,  J. Kong,  D. S. Lambrecht,  W. Liang,  C. Ochsenfeld,  
 V. A. Rassolov,  L. V. Slipchenko,  J. E. Subotnik,  T. Van Voorhis,  
 J. M. Herbert,  A. I. Krylov,  P. M. W. Gill,  M. Head-Gordon

 Contributors to earlier versions of Q-Chem not listed above: 
 R. D. Adamson,  J. Baker,  E. F. C. Byrd,  A. K. Chakraborty,  C.-L. Cheng,  
 H. Dachsel,  R. J. Doerksen,  G. Hawkins,  A. Heyden,  S. Hirata,  
 G. Kedziora,  F. J. Keil,  C. Kelley,  P. P. Korambath,  W. Kurlancheek,  
 A. M. Lee,  M. S. Lee,  D. Liotard,  I. Lotan,  P. E. Maslen,  N. Nair,  
 D. Neuhauser,  R. Olson,  B. Peters,  J. Ritchie,  N. E. Schultz,  
 N. Shenvi,  A. C. Simmonett,  K. S. Thanthiriwatte,  Q. Wu,  W. Zhang

 Please cite Q-Chem as follows:
 Y. Shao et al., Mol. Phys. 113, 184-215 (2015)
 DOI: 10.1080/00268976.2014.952696

 Q-Chem 4.4.2 for Intel X86 EM64T Linux

 Parts of Q-Chem use Armadillo 5.200.1 (Boston Tea Smuggler).
 http://arma.sourceforge.net/

 Q-Chem begins on Tue May 30 10:58:47 2017  

Host: nid00444
0

     Scratch files written to /dev/shm/eg_qchem/qchem33816.0//
 Parallel job on  22  processors

Checking the input file for inconsistencies... 	...done.

--------------------------------------------------------------
User input:
--------------------------------------------------------------
$molecule
 1  2
 H           0.00000000        0.00000000        0.00000000
 H           0.66366000       -2.46828000       -0.59127000
 C           0.99103000       -0.39106000       -0.11652000
 C           1.36812000       -1.67442000       -0.42485000
 S           2.34669000        0.62586000        0.08638000
 C           2.76167000       -1.82175000       -0.50822000
 H           3.26291000       -2.73877000       -0.76199000
 C           3.44671000       -0.65043000       -0.26057000
 H           4.55645000        1.43902671        0.15704385
 C           4.88382000       -0.65043000       -0.26057000
 C           5.26091000        0.64090194        0.01245390
 S           6.23948000       -1.67253113       -0.43550939
 C           6.65446000        0.79046248        0.09175311
 H           7.15570000        1.71409653        0.32028213
 C           7.33950000       -0.38720773       -0.12368600
 C           8.77661000       -0.38720773       -0.12368600
 H           8.96041000       -0.71590803        1.99870429
 C           9.46165000       -0.60264689        1.05398454
 S           9.87663000       -0.22379878       -1.43615977
 C          10.85520000       -0.62386133        0.88603617
 C          11.23229000       -0.42203927       -0.41832090
 H          11.55966000       -0.77119297        1.68365908
 H          12.22332000       -0.38141924       -0.82434480
$end


$rem
         jobtype = opt
        exchange = b3lyp
           basis = 6-31++g**
  max_scf_cycles = 150
      mem_static = 281
       mem_total = 2818
      sym_ignore = true
        symmetry = false
          thresh = 12
$end


$opt
CONSTRAINT
tors 13 15 16 18 90.0
ENDCONSTRAINT
$end

--------------------------------------------------------------
 ----------------------------------------------------------------
             Standard Nuclear Orientation (Angstroms)
    I     Atom           X                Y                Z
 ----------------------------------------------------------------
    1      H       0.0000000000     0.0000000000     0.0000000000
    2      H       0.6636600000    -2.4682800000    -0.5912700000
    3      C       0.9910300000    -0.3910600000    -0.1165200000
    4      C       1.3681200000    -1.6744200000    -0.4248500000
    5      S       2.3466900000     0.6258600000     0.0863800000
    6      C       2.7616700000    -1.8217500000    -0.5082200000
    7      H       3.2629100000    -2.7387700000    -0.7619900000
    8      C       3.4467100000    -0.6504300000    -0.2605700000
    9      H       4.5564500000     1.4390267100     0.1570438500
   10      C       4.8838200000    -0.6504300000    -0.2605700000
   11      C       5.2609100000     0.6409019400     0.0124539000
   12      S       6.2394800000    -1.6725311300    -0.4355093900
   13      C       6.6544600000     0.7904624800     0.0917531100
   14      H       7.1557000000     1.7140965300     0.3202821300
   15      C       7.3395000000    -0.3872077300    -0.1236860000
   16      C       8.7766100000    -0.3872077300    -0.1236860000
   17      H       8.9604100000    -0.7159080300     1.9987042900
   18      C       9.4616500000    -0.6026468900     1.0539845400
   19      S       9.8766300000    -0.2237987800    -1.4361597700
   20      C      10.8552000000    -0.6238613300     0.8860361700
   21      C      11.2322900000    -0.4220392700    -0.4183209000
   22      H      11.5596600000    -0.7711929700     1.6836590800
   23      H      12.2233200000    -0.3814192400    -0.8243448000
 ----------------------------------------------------------------
 Nuclear Repulsion Energy =  1184.7284940019 hartrees
 There are       64 alpha and       63 beta electrons
 Requested basis set is 6-31++G(d,p)
 There are 110 shells and 345 basis functions

 Total QAlloc Memory Limit   2818 MB
 Mega-Array Size       275 MB
 MEM_STATIC part       281 MB
 A cutoff of  1.0D-12 yielded   4721 shell pairs
 There are     48109 function pairs

 Q-Chem warning in module /project/projectdirs/jcesr/qchem/qc44/cnl_qc441/compile/cori/qc_src/libqints/qchem/aobasis.C, line 68:

 Using reconstructed effective core potential

 
 -------------------------------------------------------
 OpenMP Integral Computing Module                       
 Release: version 1.0, May 2013, Q-Chem Inc. Pittsburgh 
 -------------------------------------------------------
 Integral Job Info:
 Integral job number is                      11
 Integral operator is                         1
 short-range coefficients                     0
 long-range coefficients              100000000
 Omega coefficients                           0
 if combine SR and LR in K                    0
 Integral screening is                        0
 Integral computing path is                   2
 max size of driver memory is            800000
 size of driver memory is                593474
 size of scratch memory is             15166112
 max col of scratch BK array               1296
 max len of scratch array in speh3          155
 max len of scratch index in speh4           18
 max int batch size is                      520
 min int batch size is                       52
 fixed nKL is                                52
 max L of basis functions is                  2
 order of int derivative is                   0
 number of shells is                        110
 number of basis is                         345
 number of cartesian basis is               345
 number of contracted shell pairs          4721
 number of primitive shell pairs          14775
 maxK2 (contraction) of shell pair           36
 max number of K2 of shell pair               1
 max number of CS2 of shell pair            508
 max number of PS2 of shell pair           3042
 mem total for path MDJ                  101496
 -------------------------------------------------------
 Smallest overlap matrix eigenvalue = 9.37E-08
 Linear dependence detected in AO basis
 Number of orthogonalized atomic orbitals = 342
 Maximum deviation from orthogonality = 8.095E-11

 Scale SEOQF with 1.000000e-02/1.000000e-01/1.000000e-01

 Standard Electronic Orientation quadrupole field applied
 Nucleus-field energy     =     0.0000000248 hartrees
 Guess from superposition of atomic densities
 Warning:  Energy on first SCF cycle will be non-variational
 An unrestricted hybrid HF-DFT SCF calculation will be
 performed using Pulay DIIS extrapolation
 Exchange:     0.2000 Hartree-Fock + 0.0800 Slater + 0.7200 B88
 Correlation:  0.1900 VWN1RPA + 0.8100 LYP
 Using SG-1 standard quadrature grid
 SCF converges when DIIS error is below 1.0E-08
 Inaccurate integrated density:
   Number of electrons =   127
   Numerical integral  =   127.999160400481
   Relative error      =     0.7867404728 %
 ---------------------------------------
  Cycle       Energy         DIIS Error
 ---------------------------------------
    1   -1660.7193386221      3.84E-02
    2   -1656.1325655362      3.63E-03
    3   -1655.5388957774      6.35E-03
    4   -1656.2813914431      1.94E-03
    5   -1656.3475907137      4.26E-04
    6   -1656.3495543233      3.86E-04
    7   -1656.3517925335      1.51E-04
    8   -1656.3522424040      5.66E-05
    9   -1656.3523338892      1.50E-05
   10   -1656.3523576093      7.41E-06
   11   -1656.3523701424      6.22E-06
   12   -1656.3523774090      2.55E-06
   13   -1656.3523798897      1.80E-06
   14   -1656.3523804898      9.69E-07
   15   -1656.3523806825      5.57E-07
   16   -1656.3523807077      2.82E-07
   17   -1656.3523807165      1.21E-07
   18   -1656.3523807170      4.18E-08
   19   -1656.3523807168      2.15E-08
   20   -1656.3523807180      1.28E-08
   21   -1656.3523807180      5.95E-09 Convergence criterion met
 ---------------------------------------
 <S^2> = 0.7649
 SCF time:  CPU 28.98 s  wall 27.07 s
 SCF   energy in the final basis set = -1656.3523807180
 Total energy in the final basis set = -1656.3523807180
 
 --------------------------------------------------------------
 
                    Orbital Energies (a.u.)
 --------------------------------------------------------------
 
 Alpha MOs
 -- Occupied --
-89.091 -89.086 -89.041 -10.415 -10.414 -10.412 -10.401 -10.371
-10.371 -10.363 -10.358 -10.355 -10.336 -10.322 -10.310  -8.150
 -8.147  -8.101  -6.115  -6.111  -6.111  -6.107  -6.107  -6.103
 -6.065  -6.061  -6.058  -1.091  -1.064  -1.018  -0.962  -0.925
 -0.909  -0.900  -0.865  -0.846  -0.775  -0.756  -0.715  -0.703
 -0.693  -0.687  -0.674  -0.643  -0.612  -0.592  -0.590  -0.583
 -0.568  -0.556  -0.550  -0.529  -0.526  -0.521  -0.518  -0.508
 -0.499  -0.470  -0.455  -0.431  -0.422  -0.385  -0.377  -0.362
 -- Virtual --
 -0.228  -0.161  -0.158  -0.149  -0.124  -0.121  -0.116  -0.110
 -0.106  -0.099  -0.093  -0.090  -0.085  -0.078  -0.075  -0.069
 -0.066  -0.062  -0.059  -0.056  -0.043  -0.042  -0.036  -0.034
 -0.032  -0.018  -0.017  -0.012  -0.009  -0.001   0.002   0.005
  0.011   0.013   0.016   0.017   0.019   0.021   0.026   0.029
  0.029   0.037   0.039   0.043   0.045   0.045   0.051   0.056
  0.057   0.058   0.061   0.065   0.066   0.074   0.078   0.081
  0.085   0.093   0.097   0.100   0.104   0.110   0.113   0.116
  0.121   0.125   0.126   0.130   0.136   0.147   0.154   0.154
  0.158   0.163   0.170   0.172   0.179   0.183   0.190   0.191
  0.206   0.208   0.222   0.225   0.232   0.237   0.250   0.255
  0.260   0.264   0.274   0.288   0.310   0.338   0.342   0.355
  0.365   0.374   0.390   0.399   0.426   0.434   0.451   0.474
  0.477   0.486   0.489   0.497   0.501   0.503   0.514   0.520
  0.528   0.548   0.557   0.561   0.566   0.577   0.580   0.588
  0.599   0.609   0.622   0.629   0.639   0.640   0.652   0.655
  0.668   0.670   0.678   0.682   0.698   0.721   0.733   0.778
  0.784   0.794   0.797   0.806   0.826   0.827   0.836   0.843
  0.844   0.853   0.861   0.864   0.876   0.879   0.895   0.898
  0.902   0.912   0.928   0.934   0.952   0.958   0.961   0.998
  1.006   1.016   1.029   1.045   1.070   1.085   1.098   1.119
  1.138   1.150   1.168   1.171   1.186   1.195   1.201   1.211
  1.230   1.238   1.254   1.259   1.276   1.307   1.316   1.363
  1.382   1.422   1.438   1.470   1.491   1.538   1.592   1.659
  1.674   1.699   1.701   1.731   1.743   1.769   1.778   1.792
  1.809   1.829   1.843   1.866   1.875   1.899   1.908   1.933
  1.951   1.964   2.002   2.032   2.036   2.059   2.071   2.078
  2.106   2.129   2.137   2.168   2.178   2.210   2.216   2.260
  2.273   2.304   2.310   2.315   2.350   2.357   2.363   2.377
  2.385   2.403   2.411   2.438   2.438   2.488   2.494   2.511
  2.525   2.555   2.560   2.585   2.628   2.676   2.694   2.728
  2.747   2.783   2.792   2.807   3.020   3.062   3.083   3.143
  3.188   3.196   3.278   3.324   3.551   3.607   3.652   3.812
  3.836   3.860   4.089   4.147   4.167   4.179   4.197   4.237
  4.245   4.348   4.407   4.506   4.554   4.589
 
 Beta MOs
 -- Occupied --
-89.092 -89.086 -89.041 -10.413 -10.412 -10.408 -10.397 -10.369
-10.369 -10.363 -10.358 -10.355 -10.336 -10.321 -10.310  -8.151
 -8.147  -8.100  -6.115  -6.111  -6.111  -6.107  -6.107  -6.104
 -6.065  -6.061  -6.058  -1.085  -1.059  -1.016  -0.956  -0.922
 -0.907  -0.893  -0.864  -0.841  -0.771  -0.753  -0.711  -0.700
 -0.691  -0.685  -0.672  -0.642  -0.611  -0.588  -0.581  -0.577
 -0.566  -0.549  -0.542  -0.528  -0.525  -0.520  -0.513  -0.507
 -0.498  -0.468  -0.433  -0.427  -0.418  -0.377  -0.361
 -- Virtual --
 -0.320  -0.209  -0.157  -0.148  -0.146  -0.121  -0.120  -0.105
 -0.103  -0.099  -0.097  -0.092  -0.089  -0.084  -0.078  -0.074
 -0.068  -0.065  -0.061  -0.058  -0.055  -0.043  -0.041  -0.035
 -0.033  -0.031  -0.017  -0.015  -0.012  -0.009  -0.001   0.002
  0.006   0.011   0.014   0.016   0.018   0.020   0.022   0.027
  0.029   0.030   0.038   0.039   0.043   0.045   0.046   0.051
  0.056   0.058   0.060   0.063   0.066   0.066   0.074   0.079
  0.082   0.085   0.094   0.097   0.101   0.105   0.111   0.113
  0.117   0.121   0.126   0.127   0.131   0.137   0.147   0.154
  0.155   0.160   0.163   0.171   0.173   0.180   0.184   0.190
  0.192   0.207   0.210   0.223   0.226   0.234   0.238   0.251
  0.257   0.261   0.265   0.276   0.289   0.311   0.340   0.344
  0.356   0.365   0.376   0.391   0.401   0.427   0.435   0.453
  0.478   0.482   0.488   0.490   0.501   0.502   0.511   0.517
  0.523   0.531   0.550   0.558   0.563   0.570   0.579   0.581
  0.592   0.604   0.610   0.623   0.631   0.640   0.642   0.655
  0.659   0.669   0.674   0.680   0.684   0.701   0.723   0.735
  0.779   0.785   0.797   0.801   0.808   0.828   0.830   0.838
  0.844   0.846   0.854   0.862   0.865   0.878   0.880   0.896
  0.900   0.903   0.913   0.930   0.936   0.953   0.960   0.963
  0.998   1.007   1.018   1.031   1.048   1.073   1.088   1.102
  1.122   1.144   1.153   1.171   1.175   1.191   1.200   1.206
  1.213   1.232   1.239   1.255   1.267   1.280   1.312   1.319
  1.365   1.384   1.425   1.442   1.478   1.495   1.551   1.592
  1.661   1.683   1.703   1.706   1.733   1.748   1.771   1.780
  1.794   1.811   1.834   1.848   1.870   1.878   1.902   1.911
  1.937   1.959   1.967   2.007   2.038   2.044   2.065   2.074
  2.085   2.109   2.136   2.140   2.171   2.183   2.212   2.220
  2.264   2.277   2.307   2.313   2.320   2.352   2.359   2.365
  2.383   2.388   2.405   2.412   2.440   2.441   2.491   2.496
  2.513   2.528   2.557   2.564   2.586   2.630   2.681   2.697
  2.730   2.748   2.785   2.793   2.810   3.022   3.064   3.083
  3.144   3.188   3.196   3.279   3.324   3.553   3.609   3.653
  3.812   3.837   3.860   4.094   4.153   4.170   4.182   4.199
  4.240   4.250   4.351   4.411   4.509   4.557   4.590
 --------------------------------------------------------------
 
          Ground-State Mulliken Net Atomic Charges

     Atom                 Charge (a.u.)    Spin (a.u.)
  --------------------------------------------------------
      1 H                     0.256879      -0.015050
      2 H                     0.164117       0.000993
      3 C                     0.104409       0.305277
      4 C                    -0.392545      -0.039433
      5 S                    -0.100930      -0.046918
      6 C                     0.574541       0.161255
      7 H                     0.153251      -0.010100
      8 C                     0.153258       0.108318
      9 H                     0.071031      -0.009766
     10 C                    -0.129184       0.151750
     11 C                    -0.428337       0.144849
     12 S                     0.302247      -0.050116
     13 C                    -0.035236      -0.046803
     14 H                     0.179414       0.001168
     15 C                    -0.240933       0.303133
     16 C                    -0.081081       0.021710
     17 H                     0.146600      -0.002383
     18 C                     0.123447      -0.006994
     19 S                     0.153203       0.005789
     20 C                    -0.326731       0.007029
     21 C                    -0.016499       0.014660
     22 H                     0.145585       0.000954
     23 H                     0.223496       0.000678
  --------------------------------------------------------
  Sum of atomic charges =     1.000000
  Sum of spin   charges =     1.000000

 -----------------------------------------------------------------
                    Cartesian Multipole Moments
 -----------------------------------------------------------------
    Charge (ESU x 10^10)
                 4.8032
    Dipole Moment (Debye)
         X      24.0203      Y      -2.4230      Z      -0.2894
       Tot      24.1439
    Quadrupole Moments (Debye-Ang)
        XX      93.7614     XY      -8.8725     YY     -94.9685
        XZ       1.3334     YZ       2.4337     ZZ    -103.2209
    Octopole Moments (Debye-Ang^2)
       XXX       1.5991    XXY     -21.3137    XYY    -621.4322
       YYY     136.4598    XXZ      36.6674    XYZ       1.0697
       YYZ      16.6745    XZZ    -610.6588    YZZ      47.4438
       ZZZ      72.2711
    Hexadecapole Moments (Debye-Ang^3)
      XXXX  -10062.4405   XXXY     103.4688   XXYY   -5253.6654
      XYYY     881.6920   YYYY    -663.8922   XXXZ     485.2302
      XXYZ     -75.2205   XYYZ     137.2562   YYYZ     -37.8784
      XXZZ   -4805.6412   XYZZ     262.8436   YYZZ    -192.9368
      XZZZ     478.9457   YZZZ     -71.6974   ZZZZ    -401.9452
 -----------------------------------------------------------------
 Calculating analytic gradient of the SCF energy
 Gradient of SCF Energy
            1           2           3           4           5           6
    1   0.0072545   0.0044899  -0.0057681  -0.0055898   0.0041692   0.0310751
    2  -0.0034862   0.0049744  -0.0028471   0.0180948  -0.0299065   0.0169102
    3  -0.0011841   0.0011106  -0.0011306   0.0053303  -0.0062872   0.0044929
            7           8           9          10          11          12
    1  -0.0015064  -0.0286789  -0.0020202   0.0512052  -0.0613421   0.0012924
    2   0.0061161   0.0571660  -0.0063808  -0.0414317  -0.0361503   0.0419291
    3   0.0006114   0.0097847  -0.0005201  -0.0068797  -0.0094676   0.0107457
           13          14          15          16          17          18
    1   0.0275400  -0.0037383   0.0003637  -0.0080773   0.0020434   0.0004300
    2  -0.0180199  -0.0044969  -0.0233830   0.0217490   0.0022820  -0.0040215
    3  -0.0088537   0.0002725   0.0124115  -0.0163331  -0.0057206  -0.0033135
           19          20          21          22          23
    1   0.0045865  -0.0102058   0.0029856  -0.0039788  -0.0065299
    2  -0.0003043  -0.0006263   0.0023996   0.0010479  -0.0016145
    3   0.0228169   0.0021187  -0.0081959  -0.0051918   0.0033828
 Max gradient component =       6.134E-02
 RMS gradient           =       1.788E-02
 Gradient time:  CPU 4.35 s  wall 4.28 s
 Geometry Optimization Parameters
   NAtoms,    NIC,     NZ,  NCons,   NDum,   NFix, NCnnct, MaxDiis
       23     166       0       1       0       0       0       0


** CONSTRAINED OPTIMIZATION IN DELOCALIZED INTERNAL COORDINATES **
   Searching for a Minimum

   Optimization Cycle:   1

                       Coordinates (Angstroms)
     ATOM                X               Y               Z
      1  H         0.0000000000    0.0000000000    0.0000000000
      2  H         0.6636600000   -2.4682800000   -0.5912700000
      3  C         0.9910300000   -0.3910600000   -0.1165200000
      4  C         1.3681200000   -1.6744200000   -0.4248500000
      5  S         2.3466900000    0.6258600000    0.0863800000
      6  C         2.7616700000   -1.8217500000   -0.5082200000
      7  H         3.2629100000   -2.7387700000   -0.7619900000
      8  C         3.4467100000   -0.6504300000   -0.2605700000
      9  H         4.5564500000    1.4390267100    0.1570438500
     10  C         4.8838200000   -0.6504300000   -0.2605700000
     11  C         5.2609100000    0.6409019400    0.0124539000
     12  S         6.2394800000   -1.6725311300   -0.4355093900
     13  C         6.6544600000    0.7904624800    0.0917531100
     14  H         7.1557000000    1.7140965300    0.3202821300
     15  C         7.3395000000   -0.3872077300   -0.1236860000
     16  C         8.7766100000   -0.3872077300   -0.1236860000
     17  H         8.9604100000   -0.7159080300    1.9987042900
     18  C         9.4616500000   -0.6026468900    1.0539845400
     19  S         9.8766300000   -0.2237987800   -1.4361597700
     20  C        10.8552000000   -0.6238613300    0.8860361700
     21  C        11.2322900000   -0.4220392700   -0.4183209000
     22  H        11.5596600000   -0.7711929700    1.6836590800
     23  H        12.2233200000   -0.3814192400   -0.8243448000
   Point Group: c1    Number of degrees of freedom:    63


   Energy is  -1656.352380718

              Constraints and their Current Values
                                        Value     Constraint
   Dihedral:       13  15  16  18       90.000       90.000

 Attempting to Generate Delocalized Internal Coordinates

 62 Hessian modes will be used to form the next step
  Hessian Eigenvalues:
     0.045000    0.045000    0.045000    0.045000    0.045000    0.045000
     0.045001    0.045001    0.045001    0.045002    0.045003    0.045003
     0.045011    0.045012    0.045012    0.045025    0.045032    0.045058
     0.045059    0.159944    0.159945    0.159945    0.159992    0.159993
     0.159993    0.160000    0.160000    0.221307    0.221308    0.227041
     0.237995    0.238010    0.245411    0.249662    0.249670    0.249670
     0.249825    0.326317    0.326319    0.326962    0.340043    0.340044
     0.340629    0.365512    0.365512    0.365513    0.366888    0.366889
     0.366889    0.370099    0.370100    0.399845    0.399845    0.435419
     0.435419    0.435422    0.463117    0.463122    0.464282    0.495500
     0.495500    0.495533

 Minimum Search - Taking Simple RFO Step
 Searching for Lamda that Minimizes Along All modes
 Value Taken    Lamda =  -0.06523806
 Calculated Step too Large.  Step scaled by  0.690886
 Step Taken.  Stepsize is  0.300000

                             Maximum     Tolerance    Cnvgd?
         Gradient           0.075608      0.000300      NO
         Displacement       0.162685      0.001200      NO
         Energy change     *********      0.000001      NO


 New Cartesian Coordinates Obtained by Inverse Iteration

 Displacement from previous Coordinates is:  1.859384
 ----------------------------------------------------------------
             Standard Nuclear Orientation (Angstroms)
    I     Atom           X                Y                Z
 ----------------------------------------------------------------
    1      H      -0.1117294610    -0.2755035054    -0.0953761829
    2      H       0.7978354240    -2.6906373693    -0.6458475437
    3      C       0.9221183690    -0.5709974092    -0.1798204858
    4      C       1.4229522764    -1.8281352957    -0.4673205006
    5      S       2.1572579731     0.5972937263     0.0544329295
    6      C       2.8227231813    -1.8361829851    -0.5065409536
    7      H       3.4159333601    -2.7099397448    -0.7352529889
    8      C       3.3986716737    -0.5820534754    -0.2471566821
    9      H       4.6364107719     1.7547782890     0.2003294375
   10      C       4.8278910210    -0.4012042832    -0.1998854119
   11      C       5.2894544762     0.9087419243     0.0651545949
   12      S       6.1625310946    -1.4767845186    -0.3603479829
   13      C       6.6820672613     1.0053250094     0.1443764865
   14      H       7.2282277975     1.9123449680     0.3582344717
   15      C       7.3176520767    -0.2181554284    -0.0571421222
   16      C       8.7630519386    -0.3541404850    -0.0705369842
   17      H       9.0209810802    -0.6786913938     2.0589526565
   18      C       9.4840199522    -0.6179698379     1.0843460979
   19      S       9.8095374473    -0.3114100004    -1.4483112834
   20      C      10.8688681050    -0.7634597879     0.8489032983
   21      C      11.1925100653    -0.6121177531    -0.4786177024
   22      H      11.6004725052    -0.9625497476     1.6178886810
   23      H      12.1674416103    -0.6611563364    -0.9358616192
 ----------------------------------------------------------------
 Nuclear Repulsion Energy =  1174.9882123103 hartrees
 There are       64 alpha and       63 beta electrons
 Applying Cartesian multipole field
    Component          Value
    ---------          -----
     (2,0,0)        1.00000E-12
     (0,2,0)        2.00000E-11
     (0,0,2)       -3.00000E-11
 Nucleus-field energy     =     0.0000000248 hartrees
 Requested basis set is 6-31++G(d,p)
 There are 110 shells and 345 basis functions
 A cutoff of  1.0D-12 yielded   4700 shell pairs
 There are     47819 function pairs

 Q-Chem warning in module /project/projectdirs/jcesr/qchem/qc44/cnl_qc441/compile/cori/qc_src/libqints/qchem/aobasis.C, line 68:

 Using reconstructed effective core potential

 Smallest overlap matrix eigenvalue = 9.36E-08
 Linear dependence detected in AO basis
 Number of orthogonalized atomic orbitals = 343
 Maximum deviation from orthogonality = 3.350E-10
 No. of orbitals has changed due to linear dependencies.  Generating new SCF guess.
 Guess from superposition of atomic densities
 Warning:  Energy on first SCF cycle will be non-variational
 An unrestricted hybrid HF-DFT SCF calculation will be
 performed using Pulay DIIS extrapolation
 Exchange:     0.2000 Hartree-Fock + 0.0800 Slater + 0.7200 B88
 Correlation:  0.1900 VWN1RPA + 0.8100 LYP
 Using SG-1 standard quadrature grid
 SCF converges when DIIS error is below 1.0E-08
 Geometry optimization detected.  Setting ReadMinima to 0
 Setting SaveMinima to 0
 Inaccurate integrated density:
   Number of electrons =   127
   Numerical integral  =   128.000057049657
   Relative error      =     0.7874464958 %
 ---------------------------------------
  Cycle       Energy         DIIS Error
 ---------------------------------------
    1   -1660.4146799566      3.72E-02
    2   -1656.1775809812      3.49E-03
    3   -1655.5688967445      6.29E-03
    4   -1656.3145744163      1.90E-03
    5   -1656.3783418923      4.35E-04
    6   -1656.3802993535      3.97E-04
    7   -1656.3827589970      1.49E-04
    8   -1656.3832015580      5.45E-05
    9   -1656.3832858363      1.63E-05
   10   -1656.3833082958      7.57E-06
   11   -1656.3833201249      5.69E-06
   12   -1656.3833273061      2.47E-06
   13   -1656.3833302144      1.81E-06
   14   -1656.3833308979      8.53E-07
   15   -1656.3833310840      4.92E-07
   16   -1656.3833311075      2.47E-07
   17   -1656.3833311141      1.13E-07
   18   -1656.3833311139      3.64E-08
   19   -1656.3833311147      1.69E-08
   20   -1656.3833311148      1.08E-08
   21   -1656.3833311151      3.70E-09 Convergence criterion met
 ---------------------------------------
 <S^2> = 0.7670
 SCF time:  CPU 29.19 s  wall 27.05 s
 SCF   energy in the final basis set = -1656.3833311151
 Total energy in the final basis set = -1656.3833311151
 
 --------------------------------------------------------------
 
                    Orbital Energies (a.u.)
 --------------------------------------------------------------
 
 Alpha MOs
 -- Occupied --
-89.088 -89.087 -89.041 -10.421 -10.417 -10.416 -10.403 -10.377
-10.376 -10.365 -10.363 -10.356 -10.337 -10.324 -10.311  -8.147
 -8.147  -8.100  -6.111  -6.111  -6.107  -6.107  -6.104  -6.104
 -6.064  -6.060  -6.057  -1.079  -1.057  -1.012  -0.952  -0.922
 -0.908  -0.894  -0.862  -0.841  -0.773  -0.749  -0.717  -0.702
 -0.690  -0.683  -0.668  -0.641  -0.610  -0.584  -0.582  -0.579
 -0.568  -0.552  -0.550  -0.536  -0.525  -0.519  -0.516  -0.509
 -0.498  -0.470  -0.452  -0.430  -0.423  -0.382  -0.376  -0.361
 -- Virtual --
 -0.233  -0.165  -0.158  -0.147  -0.129  -0.119  -0.118  -0.107
 -0.104  -0.100  -0.094  -0.090  -0.085  -0.078  -0.075  -0.071
 -0.066  -0.062  -0.058  -0.055  -0.043  -0.042  -0.035  -0.034
 -0.031  -0.019  -0.017  -0.011  -0.009  -0.001   0.000   0.006
  0.010   0.011   0.015   0.016   0.019   0.021   0.024   0.028
  0.029   0.037   0.039   0.041   0.044   0.045   0.050   0.054
  0.056   0.059   0.059   0.060   0.065   0.072   0.077   0.080
  0.082   0.092   0.094   0.098   0.102   0.107   0.110   0.112
  0.117   0.122   0.123   0.128   0.135   0.140   0.146   0.150
  0.155   0.157   0.164   0.171   0.176   0.178   0.186   0.192
  0.195   0.202   0.215   0.219   0.225   0.226   0.235   0.243
  0.252   0.256   0.263   0.269   0.291   0.312   0.328   0.336
  0.358   0.366   0.374   0.388   0.398   0.426   0.430   0.451
  0.464   0.477   0.482   0.488   0.496   0.501   0.505   0.514
  0.519   0.525   0.548   0.556   0.563   0.567   0.569   0.576
  0.585   0.597   0.612   0.617   0.627   0.633   0.638   0.656
  0.660   0.665   0.674   0.679   0.687   0.696   0.712   0.734
  0.779   0.784   0.788   0.800   0.814   0.817   0.823   0.832
  0.838   0.844   0.850   0.855   0.862   0.870   0.873   0.888
  0.896   0.906   0.918   0.924   0.926   0.952   0.954   0.961
  0.995   0.998   1.015   1.021   1.035   1.065   1.089   1.096
  1.109   1.126   1.145   1.168   1.173   1.182   1.189   1.193
  1.208   1.232   1.242   1.254   1.271   1.274   1.308   1.318
  1.356   1.374   1.406   1.427   1.471   1.489   1.535   1.588
  1.662   1.673   1.688   1.691   1.727   1.742   1.757   1.773
  1.790   1.801   1.807   1.821   1.846   1.865   1.880   1.897
  1.920   1.926   1.955   1.991   2.017   2.020   2.048   2.056
  2.070   2.086   2.098   2.124   2.153   2.157   2.190   2.210
  2.253   2.269   2.294   2.297   2.303   2.333   2.346   2.352
  2.364   2.371   2.388   2.403   2.416   2.432   2.471   2.480
  2.489   2.512   2.543   2.550   2.578   2.618   2.678   2.682
  2.726   2.740   2.747   2.776   2.785   2.991   3.049   3.064
  3.130   3.175   3.186   3.259   3.310   3.533   3.584   3.635
  3.809   3.830   3.857   4.082   4.146   4.158   4.177   4.187
  4.221   4.244   4.338   4.398   4.499   4.547   4.581
 
 Beta MOs
 -- Occupied --
-89.089 -89.088 -89.041 -10.418 -10.415 -10.411 -10.399 -10.374
-10.374 -10.365 -10.363 -10.357 -10.337 -10.324 -10.311  -8.147
 -8.147  -8.100  -6.112  -6.111  -6.108  -6.107  -6.104  -6.104
 -6.064  -6.060  -6.057  -1.073  -1.051  -1.010  -0.945  -0.919
 -0.906  -0.888  -0.861  -0.836  -0.769  -0.746  -0.713  -0.699
 -0.689  -0.682  -0.666  -0.640  -0.608  -0.581  -0.577  -0.570
 -0.566  -0.548  -0.538  -0.534  -0.524  -0.518  -0.510  -0.508
 -0.497  -0.469  -0.428  -0.427  -0.420  -0.376  -0.360
 -- Virtual --
 -0.317  -0.213  -0.157  -0.150  -0.145  -0.127  -0.118  -0.107
 -0.104  -0.099  -0.095  -0.093  -0.089  -0.085  -0.077  -0.074
 -0.070  -0.065  -0.061  -0.058  -0.054  -0.042  -0.041  -0.034
 -0.033  -0.030  -0.018  -0.016  -0.011  -0.009  -0.000   0.001
  0.007   0.011   0.011   0.016   0.017   0.020   0.022   0.025
  0.029   0.030   0.038   0.039   0.042   0.045   0.046   0.050
  0.055   0.058   0.059   0.061   0.061   0.066   0.073   0.078
  0.081   0.083   0.092   0.095   0.099   0.102   0.108   0.111
  0.113   0.117   0.124   0.125   0.129   0.136   0.141   0.148
  0.151   0.156   0.158   0.164   0.172   0.177   0.178   0.186
  0.193   0.196   0.202   0.216   0.221   0.226   0.227   0.236
  0.245   0.254   0.256   0.264   0.270   0.292   0.313   0.329
  0.337   0.359   0.367   0.376   0.389   0.399   0.427   0.430
  0.452   0.466   0.478   0.487   0.491   0.498   0.505   0.512
  0.518   0.521   0.528   0.549   0.557   0.565   0.570   0.571
  0.576   0.590   0.604   0.613   0.619   0.628   0.636   0.640
  0.660   0.661   0.668   0.676   0.682   0.689   0.699   0.713
  0.734   0.780   0.785   0.793   0.803   0.816   0.819   0.827
  0.835   0.839   0.845   0.850   0.857   0.862   0.871   0.874
  0.889   0.897   0.908   0.920   0.926   0.927   0.953   0.955
  0.962   0.995   1.000   1.018   1.023   1.038   1.067   1.093
  1.101   1.112   1.133   1.147   1.172   1.176   1.186   1.194
  1.201   1.210   1.233   1.242   1.255   1.275   1.282   1.312
  1.322   1.359   1.375   1.409   1.430   1.475   1.497   1.547
  1.589   1.664   1.680   1.693   1.697   1.730   1.746   1.759
  1.775   1.791   1.804   1.813   1.825   1.849   1.869   1.883
  1.899   1.924   1.934   1.958   1.997   2.023   2.028   2.052
  2.060   2.076   2.089   2.107   2.128   2.156   2.162   2.192
  2.214   2.257   2.272   2.298   2.303   2.305   2.335   2.348
  2.353   2.370   2.372   2.390   2.403   2.419   2.435   2.473
  2.483   2.491   2.515   2.545   2.554   2.579   2.619   2.683
  2.685   2.729   2.741   2.749   2.778   2.787   2.992   3.050
  3.065   3.130   3.175   3.187   3.261   3.310   3.535   3.585
  3.635   3.809   3.830   3.857   4.087   4.151   4.161   4.181
  4.188   4.224   4.249   4.341   4.402   4.502   4.550   4.583
 --------------------------------------------------------------
 
          Ground-State Mulliken Net Atomic Charges

     Atom                 Charge (a.u.)    Spin (a.u.)
  --------------------------------------------------------
      1 H                     0.255946      -0.014937
      2 H                     0.169286       0.001386
      3 C                     0.093408       0.305658
      4 C                    -0.365209      -0.045440
      5 S                    -0.033459      -0.051493
      6 C                     0.491481       0.162166
      7 H                     0.146263      -0.010768
      8 C                    -0.077831       0.103400
      9 H                     0.119133      -0.010702
     10 C                     0.137881       0.165330
     11 C                    -0.496044       0.130355
     12 S                     0.194591      -0.056681
     13 C                     0.170998      -0.025537
     14 H                     0.175788       0.001226
     15 C                    -0.350584       0.310533
     16 C                    -0.138555       0.019844
     17 H                     0.149862      -0.002324
     18 C                     0.181584      -0.008792
     19 S                     0.131688       0.006392
     20 C                    -0.327626       0.005785
     21 C                     0.000124       0.012791
     22 H                     0.147104       0.000927
     23 H                     0.224171       0.000881
  --------------------------------------------------------
  Sum of atomic charges =     1.000000
  Sum of spin   charges =     1.000000

 -----------------------------------------------------------------
                    Cartesian Multipole Moments
 -----------------------------------------------------------------
    Charge (ESU x 10^10)
                 4.8032
    Dipole Moment (Debye)
         X      23.8577      Y      -2.2953      Z      -0.2703
       Tot      23.9693
    Quadrupole Moments (Debye-Ang)
        XX      91.9964     XY      -7.9230     YY     -93.8138
        XZ       1.8668     YZ       2.6987     ZZ    -103.4364
    Octopole Moments (Debye-Ang^2)
       XXX     -11.9643    XXY     -34.3926    XYY    -611.6313
       YYY     132.0819    XXZ      37.1980    XYZ       3.0785
       YYZ      16.1565    XZZ    -606.2433    YZZ      44.7597
       ZZZ      69.4465
    Hexadecapole Moments (Debye-Ang^3)
      XXXX  -10195.1209   XXXY    -211.1909   XXYY   -5166.4813
      XYYY     882.5861   YYYY    -668.0026   XXXZ     440.2309
      XXYZ     -52.4914   XYYZ     133.8236   YYYZ     -36.0971
      XXZZ   -4752.2798   XYZZ     246.9402   YYZZ    -195.9716
      XZZZ     446.8375   YZZZ     -71.6648   ZZZZ    -402.8315
 -----------------------------------------------------------------
 Calculating analytic gradient of the SCF energy
 Gradient of SCF Energy
            1           2           3           4           5           6
    1   0.0030916   0.0013881  -0.0020213  -0.0057269   0.0008775   0.0124148
    2  -0.0012279   0.0016684  -0.0023178   0.0056526  -0.0146868   0.0063612
    3  -0.0005071   0.0003990  -0.0008560   0.0020540  -0.0024863   0.0025804
            7           8           9          10          11          12
    1  -0.0010506  -0.0307611   0.0037466   0.0354614  -0.0245591  -0.0014629
    2   0.0025685   0.0343883  -0.0028641  -0.0413693  -0.0068583   0.0255944
    3  -0.0002185   0.0045553   0.0000588  -0.0069999  -0.0029608   0.0063615
           13          14          15          16          17          18
    1   0.0190517  -0.0014644  -0.0041346  -0.0015780   0.0007629   0.0017054
    2  -0.0035764  -0.0015943  -0.0160092   0.0164456   0.0014347  -0.0050050
    3  -0.0051580   0.0008100   0.0103717  -0.0174231  -0.0021536   0.0013805
           19          20          21          22          23
    1   0.0031899  -0.0055512   0.0004795  -0.0013472  -0.0025120
    2  -0.0000271  -0.0003806   0.0021234   0.0005230  -0.0008430
    3   0.0128579   0.0036381  -0.0059972  -0.0019466   0.0016399
 Max gradient component =       4.137E-02
 RMS gradient           =       1.126E-02
 Gradient time:  CPU 4.30 s  wall 4.26 s
 Geometry Optimization Parameters
   NAtoms,    NIC,     NZ,  NCons,   NDum,   NFix, NCnnct, MaxDiis
       23     166       0       1       0       0       0       0

 Cartesian Hessian Update
 Hessian Updated using BFGS Update


** CONSTRAINED OPTIMIZATION IN DELOCALIZED INTERNAL COORDINATES **
   Searching for a Minimum

   Optimization Cycle:   2

                       Coordinates (Angstroms)
     ATOM                X               Y               Z
      1  H        -0.1117294610   -0.2755035054   -0.0953761829
      2  H         0.7978354240   -2.6906373693   -0.6458475437
      3  C         0.9221183690   -0.5709974092   -0.1798204858
      4  C         1.4229522764   -1.8281352957   -0.4673205006
      5  S         2.1572579731    0.5972937263    0.0544329295
      6  C         2.8227231813   -1.8361829851   -0.5065409536
      7  H         3.4159333601   -2.7099397448   -0.7352529889
      8  C         3.3986716737   -0.5820534754   -0.2471566821
      9  H         4.6364107719    1.7547782890    0.2003294375
     10  C         4.8278910210   -0.4012042832   -0.1998854119
     11  C         5.2894544762    0.9087419243    0.0651545949
     12  S         6.1625310946   -1.4767845186   -0.3603479829
     13  C         6.6820672613    1.0053250094    0.1443764865
     14  H         7.2282277975    1.9123449680    0.3582344717
     15  C         7.3176520767   -0.2181554284   -0.0571421222
     16  C         8.7630519386   -0.3541404850   -0.0705369842
     17  H         9.0209810802   -0.6786913938    2.0589526565
     18  C         9.4840199522   -0.6179698379    1.0843460979
     19  S         9.8095374473   -0.3114100004   -1.4483112834
     20  C        10.8688681050   -0.7634597879    0.8489032983
     21  C        11.1925100653   -0.6121177531   -0.4786177024
     22  H        11.6004725052   -0.9625497476    1.6178886810
     23  H        12.1674416103   -0.6611563364   -0.9358616192
   Point Group: c1    Number of degrees of freedom:    63


   Energy is  -1656.383331115

              Constraints and their Current Values
                                        Value     Constraint
   Dihedral:       13  15  16  18       90.000       90.000
 Hessian Updated using BFGS Update

 61 Hessian modes will be used to form the next step
  Hessian Eigenvalues:
     0.044964    0.045000    0.045000    0.045000    0.045000    0.045000
     0.045001    0.045001    0.045002    0.045002    0.045003    0.045009
     0.045011    0.045012    0.045019    0.045025    0.045036    0.045053
     0.045060    0.159281    0.159945    0.159945    0.159975    0.159995
     0.160000    0.160293    0.190240    0.221308    0.221891    0.230284
     0.238023    0.238579    0.246426    0.249669    0.249671    0.282268
     0.324575    0.326617    0.327141    0.338408    0.340118    0.340373
     0.365174    0.365513    0.365520    0.366515    0.366889    0.367323
     0.369910    0.370100    0.397744    0.413706    0.434388    0.435420
     0.437229    0.462735    0.463147    0.471102    0.494433    0.495505
     0.576657

 Minimum Search - Taking Simple RFO Step
 Searching for Lamda that Minimizes Along All modes
 Value Taken    Lamda =  -0.02127631
 Calculated Step too Large.  Step scaled by  0.949431
 Step Taken.  Stepsize is  0.300000

                             Maximum     Tolerance    Cnvgd?
         Gradient           0.030529      0.000300      NO
         Displacement       0.120083      0.001200      NO
         Energy change     -0.030950      0.000001      NO


 New Cartesian Coordinates Obtained by Inverse Iteration

 Displacement from previous Coordinates is:  1.462258
 ----------------------------------------------------------------
             Standard Nuclear Orientation (Angstroms)
    I     Atom           X                Y                Z
 ----------------------------------------------------------------
    1      H      -0.0834165672    -0.4180789805    -0.1987132800
    2      H       0.9471293566    -2.8074608659    -0.6908810114
    3      C       0.9703796930    -0.6677512202    -0.2484645041
    4      C       1.5344049787    -1.9158052572    -0.5063869817
    5      S       2.1332334153     0.5749992618     0.0057641305
    6      C       2.9286574647    -1.8690030864    -0.5020803706
    7      H       3.5679394247    -2.7239249500    -0.6961964919
    8      C       3.4368600636    -0.5716671792    -0.2386768398
    9      H       4.5954430309     1.9494490449     0.2220258222
   10      C       4.7965715233    -0.2243455784    -0.1397310775
   11      C       5.2616475558     1.0983933848     0.1142670825
   12      S       6.1202154765    -1.3488032082    -0.2752745440
   13      C       6.6429175715     1.1710873298     0.2040065433
   14      H       7.2039403198     2.0766085611     0.4005455286
   15      C       7.2767852282    -0.0758916713     0.0276186302
   16      C       8.7162696402    -0.3236062632     0.0111019111
   17      H       9.0834863114    -0.6484529594     2.1306245938
   18      C       9.4863363016    -0.6255701518     1.1238985697
   19      S       9.6711716103    -0.3826690365    -1.4471791439
   20      C      10.8475856832    -0.8728300940     0.7989747145
   21      C      11.0921381984    -0.7661932841    -0.5484046929
   22      H      11.6134112324    -1.1142078278     1.5268844658
   23      H      12.0337724871    -0.8868814085    -1.0691228445
 ----------------------------------------------------------------
 Nuclear Repulsion Energy =  1176.7560105924 hartrees
 There are       64 alpha and       63 beta electrons
 Applying Cartesian multipole field
    Component          Value
    ---------          -----
     (2,0,0)        1.00000E-12
     (0,2,0)        2.00000E-11
     (0,0,2)       -3.00000E-11
 Nucleus-field energy     =     0.0000000250 hartrees
 Requested basis set is 6-31++G(d,p)
 There are 110 shells and 345 basis functions
 A cutoff of  1.0D-12 yielded   4696 shell pairs
 There are     47892 function pairs

 Q-Chem warning in module /project/projectdirs/jcesr/qchem/qc44/cnl_qc441/compile/cori/qc_src/libqints/qchem/aobasis.C, line 68:

 Using reconstructed effective core potential

 Smallest overlap matrix eigenvalue = 8.14E-08
 Linear dependence detected in AO basis
 Number of orthogonalized atomic orbitals = 343
 Maximum deviation from orthogonality = 2.726E-10
 Guess MOs from SCF MO coefficient file
 Reading MOs from coefficient file
 Reading MOs from coefficient file
 An unrestricted hybrid HF-DFT SCF calculation will be
 performed using Pulay DIIS extrapolation
 Exchange:     0.2000 Hartree-Fock + 0.0800 Slater + 0.7200 B88
 Correlation:  0.1900 VWN1RPA + 0.8100 LYP
 Using SG-1 standard quadrature grid
 SCF converges when DIIS error is below 1.0E-08
 Geometry optimization detected.  Setting ReadMinima to 0
 Setting SaveMinima to 0
 Inaccurate integrated density:
   Number of electrons =   127
   Numerical integral  =   126.864744341168
   Relative error      =    -0.1065005188 %
 ---------------------------------------
  Cycle       Energy         DIIS Error
 ---------------------------------------
    1   -1656.2391717342      3.52E-03
    2   -1656.3887637480      5.76E-04
    3   -1656.3758935828      1.04E-03
    4   -1656.3947845326      1.59E-04
    5   -1656.3951574884      5.90E-05
    6   -1656.3952086612      2.50E-05
    7   -1656.3952178526      1.07E-05
    8   -1656.3952199094      3.58E-06
    9   -1656.3952202477      1.56E-06
   10   -1656.3952203547      5.52E-07
   11   -1656.3952204085      3.67E-07
   12   -1656.3952204326      1.72E-07
   13   -1656.3952204398      8.07E-08
   14   -1656.3952204419      3.94E-08
   15   -1656.3952204423      2.08E-08
   16   -1656.3952204419      1.12E-08
   17   -1656.3952204420      5.84E-09 Convergence criterion met
 ---------------------------------------
 <S^2> = 0.7684
 SCF time:  CPU 23.99 s  wall 22.18 s
 SCF   energy in the final basis set = -1656.3952204420
 Total energy in the final basis set = -1656.3952204420
 
 --------------------------------------------------------------
 
                    Orbital Energies (a.u.)
 --------------------------------------------------------------
 
 Alpha MOs
 -- Occupied --
-89.087 -89.086 -89.039 -10.419 -10.419 -10.415 -10.405 -10.380
-10.380 -10.367 -10.367 -10.357 -10.337 -10.326 -10.312  -8.146
 -8.145  -8.098  -6.110  -6.109  -6.107  -6.105  -6.103  -6.101
 -6.063  -6.059  -6.055  -1.076  -1.051  -1.008  -0.950  -0.924
 -0.910  -0.887  -0.860  -0.838  -0.775  -0.750  -0.718  -0.701
 -0.691  -0.681  -0.661  -0.638  -0.609  -0.583  -0.580  -0.579
 -0.570  -0.551  -0.549  -0.535  -0.527  -0.518  -0.514  -0.511
 -0.496  -0.469  -0.451  -0.432  -0.425  -0.377  -0.375  -0.360
 -- Virtual --
 -0.239  -0.168  -0.158  -0.149  -0.135  -0.121  -0.118  -0.102
 -0.101  -0.099  -0.094  -0.091  -0.085  -0.078  -0.074  -0.071
 -0.066  -0.062  -0.058  -0.054  -0.044  -0.040  -0.035  -0.033
 -0.027  -0.020  -0.017  -0.010  -0.009  -0.002  -0.000   0.007
  0.009   0.010   0.014   0.017   0.021   0.022   0.024   0.026
  0.030   0.038   0.039   0.041   0.045   0.046   0.051   0.054
  0.055   0.057   0.058   0.060   0.066   0.075   0.075   0.082
  0.082   0.091   0.092   0.097   0.100   0.107   0.107   0.111
  0.116   0.120   0.122   0.129   0.134   0.137   0.141   0.150
  0.151   0.157   0.166   0.171   0.173   0.179   0.182   0.190
  0.193   0.199   0.209   0.215   0.221   0.228   0.231   0.239
  0.251   0.253   0.263   0.265   0.291   0.312   0.328   0.335
  0.359   0.368   0.380   0.386   0.408   0.423   0.436   0.446
  0.454   0.475   0.481   0.486   0.494   0.500   0.503   0.514
  0.519   0.524   0.550   0.554   0.563   0.566   0.569   0.576
  0.583   0.597   0.609   0.614   0.625   0.633   0.640   0.656
  0.666   0.674   0.678   0.682   0.694   0.697   0.715   0.740
  0.775   0.780   0.785   0.800   0.815   0.815   0.817   0.823
  0.836   0.841   0.848   0.852   0.861   0.871   0.872   0.888
  0.897   0.910   0.912   0.913   0.923   0.947   0.951   0.953
  0.991   0.997   1.009   1.024   1.037   1.063   1.089   1.094
  1.108   1.118   1.136   1.159   1.168   1.180   1.192   1.193
  1.200   1.236   1.247   1.262   1.281   1.292   1.322   1.325
  1.348   1.386   1.407   1.431   1.475   1.500   1.534   1.585
  1.655   1.670   1.681   1.692   1.705   1.748   1.764   1.771
  1.781   1.784   1.802   1.815   1.837   1.863   1.884   1.893
  1.911   1.921   1.959   1.983   2.009   2.014   2.031   2.052
  2.072   2.081   2.096   2.119   2.138   2.145   2.183   2.207
  2.253   2.268   2.280   2.288   2.295   2.322   2.338   2.347
  2.361   2.364   2.385   2.396   2.405   2.433   2.457   2.473
  2.486   2.505   2.535   2.549   2.567   2.606   2.670   2.700
  2.726   2.745   2.746   2.772   2.782   2.975   3.045   3.053
  3.120   3.165   3.167   3.248   3.301   3.525   3.575   3.624
  3.811   3.824   3.856   4.083   4.146   4.156   4.162   4.190
  4.216   4.251   4.335   4.397   4.500   4.548   4.579
 
 Beta MOs
 -- Occupied --
-89.087 -89.086 -89.039 -10.417 -10.414 -10.414 -10.401 -10.378
-10.378 -10.368 -10.368 -10.357 -10.337 -10.325 -10.312  -8.146
 -8.145  -8.098  -6.111  -6.109  -6.107  -6.105  -6.104  -6.102
 -6.062  -6.058  -6.055  -1.071  -1.046  -1.006  -0.943  -0.921
 -0.908  -0.881  -0.859  -0.833  -0.770  -0.746  -0.714  -0.698
 -0.690  -0.679  -0.659  -0.637  -0.608  -0.579  -0.577  -0.569
 -0.567  -0.549  -0.536  -0.533  -0.526  -0.517  -0.510  -0.508
 -0.495  -0.468  -0.430  -0.427  -0.421  -0.374  -0.360
 -- Virtual --
 -0.313  -0.218  -0.157  -0.153  -0.147  -0.133  -0.118  -0.109
 -0.101  -0.099  -0.093  -0.091  -0.088  -0.085  -0.077  -0.074
 -0.071  -0.065  -0.061  -0.057  -0.053  -0.043  -0.040  -0.034
 -0.032  -0.026  -0.019  -0.016  -0.009  -0.009  -0.002   0.001
  0.008   0.010   0.011   0.014   0.018   0.021   0.023   0.025
  0.027   0.031   0.038   0.040   0.042   0.046   0.046   0.051
  0.055   0.056   0.058   0.060   0.061   0.066   0.075   0.077
  0.083   0.083   0.093   0.093   0.098   0.101   0.107   0.108
  0.112   0.116   0.123   0.124   0.130   0.135   0.138   0.143
  0.151   0.152   0.158   0.167   0.172   0.174   0.180   0.183
  0.191   0.195   0.200   0.211   0.216   0.223   0.229   0.232
  0.240   0.252   0.254   0.263   0.266   0.292   0.314   0.329
  0.337   0.359   0.369   0.382   0.387   0.410   0.425   0.437
  0.447   0.455   0.476   0.482   0.492   0.496   0.504   0.510
  0.517   0.523   0.526   0.552   0.555   0.565   0.569   0.570
  0.576   0.588   0.604   0.611   0.615   0.626   0.635   0.644
  0.657   0.670   0.676   0.681   0.684   0.696   0.699   0.716
  0.741   0.779   0.782   0.786   0.802   0.816   0.817   0.821
  0.825   0.837   0.843   0.848   0.854   0.862   0.871   0.874
  0.889   0.898   0.912   0.913   0.914   0.925   0.948   0.952
  0.955   0.992   0.997   1.012   1.025   1.042   1.064   1.092
  1.098   1.114   1.123   1.138   1.162   1.170   1.184   1.196
  1.202   1.203   1.236   1.248   1.265   1.283   1.300   1.326
  1.331   1.352   1.388   1.411   1.434   1.479   1.509   1.546
  1.586   1.660   1.674   1.690   1.697   1.709   1.750   1.766
  1.773   1.784   1.789   1.804   1.818   1.841   1.868   1.887
  1.897   1.917   1.924   1.962   1.990   2.015   2.020   2.037
  2.056   2.074   2.087   2.104   2.123   2.140   2.151   2.187
  2.210   2.256   2.272   2.285   2.290   2.300   2.325   2.340
  2.349   2.365   2.367   2.387   2.397   2.408   2.435   2.460
  2.475   2.487   2.508   2.538   2.553   2.568   2.607   2.673
  2.705   2.730   2.747   2.748   2.774   2.784   2.976   3.047
  3.053   3.121   3.165   3.168   3.249   3.302   3.527   3.577
  3.624   3.811   3.824   3.856   4.088   4.151   4.159   4.166
  4.192   4.217   4.256   4.339   4.400   4.503   4.552   4.581
 --------------------------------------------------------------
 
          Ground-State Mulliken Net Atomic Charges

     Atom                 Charge (a.u.)    Spin (a.u.)
  --------------------------------------------------------
      1 H                     0.252687      -0.015387
      2 H                     0.172026       0.001379
      3 C                     0.080702       0.312382
      4 C                    -0.331897      -0.046146
      5 S                    -0.057285      -0.048538
      6 C                     0.546425       0.164103
      7 H                     0.152789      -0.010670
      8 C                    -0.233447       0.095450
      9 H                     0.143404      -0.009972
     10 C                     0.150179       0.155039
     11 C                    -0.331820       0.127176
     12 S                     0.036283      -0.057181
     13 C                     0.314298      -0.018482
     14 H                     0.176730       0.000570
     15 C                    -0.426971       0.320761
     16 C                    -0.217072       0.019200
     17 H                     0.154409      -0.002243
     18 C                     0.267753      -0.012876
     19 S                     0.102366       0.007619
     20 C                    -0.337618       0.005015
     21 C                     0.014301       0.010814
     22 H                     0.147737       0.000831
     23 H                     0.224020       0.001155
  --------------------------------------------------------
  Sum of atomic charges =     1.000000
  Sum of spin   charges =     1.000000

 -----------------------------------------------------------------
                    Cartesian Multipole Moments
 -----------------------------------------------------------------
    Charge (ESU x 10^10)
                 4.8032
    Dipole Moment (Debye)
         X      23.7454      Y      -2.2329      Z      -0.2669
       Tot      23.8516
    Quadrupole Moments (Debye-Ang)
        XX      87.9671     XY      -8.0474     YY     -92.2556
        XZ       2.4244     YZ       3.0159     ZZ    -103.3994
    Octopole Moments (Debye-Ang^2)
       XXX     -66.5442    XXY     -48.7401    XYY    -600.0474
       YYY     128.8942    XXZ      38.4837    XYZ       5.8580
       YYZ      15.0665    XZZ    -602.7407    YZZ      42.8847
       ZZZ      65.8017
    Hexadecapole Moments (Debye-Ang^3)
      XXXX  -10698.9914   XXXY    -454.9820   XXYY   -5036.2855
      XYYY     887.9741   YYYY    -687.2613   XXXZ     403.4631
      XXYZ     -23.3066   XYYZ     122.7072   YYYZ     -36.5611
      XXZZ   -4674.4817   XYZZ     238.5276   YYZZ    -201.4921
      XZZZ     403.8908   YZZZ     -73.4941   ZZZZ    -402.6405
 -----------------------------------------------------------------
 Calculating analytic gradient of the SCF energy
 Gradient of SCF Energy
            1           2           3           4           5           6
    1  -0.0003213   0.0001539   0.0022818  -0.0007827   0.0041025   0.0024327
    2   0.0008166  -0.0004433  -0.0018517  -0.0011818   0.0007690  -0.0024799
    3  -0.0000046  -0.0000379  -0.0003405   0.0000093   0.0006391   0.0006137
            7           8           9          10          11          12
    1   0.0003530  -0.0062031  -0.0010031   0.0096163  -0.0036288  -0.0038774
    2  -0.0004328   0.0151236   0.0013260  -0.0171794   0.0037747   0.0013279
    3  -0.0007267   0.0012558   0.0003446  -0.0020919   0.0000863   0.0008518
           13          14          15          16          17          18
    1   0.0004444  -0.0007258  -0.0042748   0.0014344  -0.0001064   0.0008333
    2   0.0032185   0.0002223  -0.0065931   0.0072139   0.0007270  -0.0051857
    3  -0.0036333   0.0007572   0.0069704  -0.0114990   0.0003696   0.0029753
           19          20          21          22          23
    1   0.0010253  -0.0011809  -0.0013603   0.0004444   0.0003425
    2  -0.0000896  -0.0001701   0.0015817  -0.0000452  -0.0004486
    3   0.0034481   0.0021004  -0.0020242   0.0000824  -0.0001460
 Max gradient component =       1.718E-02
 RMS gradient           =       4.061E-03
 Gradient time:  CPU 4.27 s  wall 4.22 s
 Geometry Optimization Parameters
   NAtoms,    NIC,     NZ,  NCons,   NDum,   NFix, NCnnct, MaxDiis
       23     166       0       1       0       0       0       0

 Cartesian Hessian Update
 Hessian Updated using BFGS Update


** CONSTRAINED OPTIMIZATION IN DELOCALIZED INTERNAL COORDINATES **
   Searching for a Minimum

   Optimization Cycle:   3

                       Coordinates (Angstroms)
     ATOM                X               Y               Z
      1  H        -0.0834165672   -0.4180789805   -0.1987132800
      2  H         0.9471293566   -2.8074608659   -0.6908810114
      3  C         0.9703796930   -0.6677512202   -0.2484645041
      4  C         1.5344049787   -1.9158052572   -0.5063869817
      5  S         2.1332334153    0.5749992618    0.0057641305
      6  C         2.9286574647   -1.8690030864   -0.5020803706
      7  H         3.5679394247   -2.7239249500   -0.6961964919
      8  C         3.4368600636   -0.5716671792   -0.2386768398
      9  H         4.5954430309    1.9494490449    0.2220258222
     10  C         4.7965715233   -0.2243455784   -0.1397310775
     11  C         5.2616475558    1.0983933848    0.1142670825
     12  S         6.1202154765   -1.3488032082   -0.2752745440
     13  C         6.6429175715    1.1710873298    0.2040065433
     14  H         7.2039403198    2.0766085611    0.4005455286
     15  C         7.2767852282   -0.0758916713    0.0276186302
     16  C         8.7162696402   -0.3236062632    0.0111019111
     17  H         9.0834863114   -0.6484529594    2.1306245938
     18  C         9.4863363016   -0.6255701518    1.1238985697
     19  S         9.6711716103   -0.3826690365   -1.4471791439
     20  C        10.8475856832   -0.8728300940    0.7989747145
     21  C        11.0921381984   -0.7661932841   -0.5484046929
     22  H        11.6134112324   -1.1142078278    1.5268844658
     23  H        12.0337724871   -0.8868814085   -1.0691228445
   Point Group: c1    Number of degrees of freedom:    63


   Energy is  -1656.395220442

              Constraints and their Current Values
                                        Value     Constraint
   Dihedral:       13  15  16  18       90.000       90.000
 Hessian Updated using BFGS Update

 62 Hessian modes will be used to form the next step
  Hessian Eigenvalues:
     0.044693    0.045000    0.045000    0.045000    0.045000    0.045001
     0.045001    0.045002    0.045002    0.045003    0.045003    0.045008
     0.045011    0.045012    0.045020    0.045025    0.045048    0.045051
     0.045094    0.150786    0.159945    0.159954    0.159977    0.159993
     0.159997    0.160050    0.160506    0.168695    0.221308    0.223071
     0.230193    0.238022    0.240336    0.249207    0.249670    0.262053
     0.278349    0.323325    0.326605    0.328341    0.337757    0.340124
     0.341522    0.365511    0.365516    0.365831    0.366889    0.367248
     0.367898    0.370100    0.370916    0.401321    0.424425    0.435027
     0.435423    0.443176    0.462851    0.464638    0.482105    0.493874
     0.497160    0.577540

 Minimum Search - Taking Simple RFO Step
 Searching for Lamda that Minimizes Along All modes
 Value Taken    Lamda =  -0.00263423
 Step Taken.  Stepsize is  0.130023

                             Maximum     Tolerance    Cnvgd?
         Gradient           0.009509      0.000300      NO
         Displacement       0.054838      0.001200      NO
         Energy change     -0.011889      0.000001      NO


 New Cartesian Coordinates Obtained by Inverse Iteration

 Displacement from previous Coordinates is:  0.584025
 ----------------------------------------------------------------
             Standard Nuclear Orientation (Angstroms)
    I     Atom           X                Y                Z
 ----------------------------------------------------------------
    1      H      -0.1064120789    -0.4779750377    -0.2756796309
    2      H       0.9833768619    -2.8428622571    -0.7199142462
    3      C       0.9532905028    -0.7040096603    -0.2981692507
    4      C       1.5522297003    -1.9407240465    -0.5304415982
    5      S       2.0937188624     0.5525866052    -0.0313587451
    6      C       2.9457098912    -1.8751603264    -0.4924990981
    7      H       3.5982661054    -2.7248725285    -0.6592615938
    8      C       3.4372707481    -0.5724120190    -0.2280979068
    9      H       4.5999452928     2.0077882716     0.2343407431
   10      C       4.7776947512    -0.1620340919    -0.1036353788
   11      C       5.2610964476     1.1527913189     0.1427575815
   12      S       6.1156440926    -1.2911427606    -0.2213297982
   13      C       6.6437690900     1.2185765032     0.2378587784
   14      H       7.2110105050     2.1237485755     0.4192400333
   15      C       7.2821901589    -0.0265275651     0.0777209781
   16      C       8.7147215522    -0.3075206199     0.0590529679
   17      H       9.1472642765    -0.6255808970     2.1623502598
   18      C       9.5142001617    -0.6155144757     1.1421154776
   19      S       9.6161668588    -0.4075732477    -1.4380019818
   20      C      10.8579354775    -0.9032839360     0.7703385404
   21      C      11.0591927552    -0.8220809136    -0.5834203620
   22      H      11.6399528932    -1.1579394929     1.4756267103
   23      H      11.9786450938    -0.9708828387    -1.1349922700
 ----------------------------------------------------------------
 Nuclear Repulsion Energy =  1176.0539696765 hartrees
 There are       64 alpha and       63 beta electrons
 Applying Cartesian multipole field
    Component          Value
    ---------          -----
     (2,0,0)        1.00000E-12
     (0,2,0)        2.00000E-11
     (0,0,2)       -3.00000E-11
 Nucleus-field energy     =     0.0000000250 hartrees
 Requested basis set is 6-31++G(d,p)
 There are 110 shells and 345 basis functions
 A cutoff of  1.0D-12 yielded   4688 shell pairs
 There are     47797 function pairs

 Q-Chem warning in module /project/projectdirs/jcesr/qchem/qc44/cnl_qc441/compile/cori/qc_src/libqints/qchem/aobasis.C, line 68:

 Using reconstructed effective core potential

 Smallest overlap matrix eigenvalue = 8.55E-08
 Linear dependence detected in AO basis
 Number of orthogonalized atomic orbitals = 343
 Maximum deviation from orthogonality = 2.304E-10
 Guess MOs from SCF MO coefficient file
 Reading MOs from coefficient file
 Reading MOs from coefficient file
 An unrestricted hybrid HF-DFT SCF calculation will be
 performed using Pulay DIIS extrapolation
 Exchange:     0.2000 Hartree-Fock + 0.0800 Slater + 0.7200 B88
 Correlation:  0.1900 VWN1RPA + 0.8100 LYP
 Using SG-1 standard quadrature grid
 SCF converges when DIIS error is below 1.0E-08
 Geometry optimization detected.  Setting ReadMinima to 0
 Setting SaveMinima to 0
 ---------------------------------------
  Cycle       Energy         DIIS Error
 ---------------------------------------
    1   -1656.3484157492      1.39E-03
    2   -1656.3950454434      2.86E-04
    3   -1656.3914464178      5.42E-04
    4   -1656.3964738963      9.34E-05
    5   -1656.3966080523      3.12E-05
    6   -1656.3966238254      1.10E-05
    7   -1656.3966257437      5.42E-06
    8   -1656.3966263532      1.47E-06
    9   -1656.3966264766      8.64E-07
   10   -1656.3966265372      3.73E-07
   11   -1656.3966265735      2.38E-07
   12   -1656.3966265915      1.14E-07
   13   -1656.3966265953      4.92E-08
   14   -1656.3966265949      1.52E-08
   15   -1656.3966265953      7.52E-09 Convergence criterion met
 ---------------------------------------
 <S^2> = 0.7673
 SCF time:  CPU 20.83 s  wall 19.39 s
 SCF   energy in the final basis set = -1656.3966265953
 Total energy in the final basis set = -1656.3966265953
 
 --------------------------------------------------------------
 
                    Orbital Energies (a.u.)
 --------------------------------------------------------------
 
 Alpha MOs
 -- Occupied --
-89.086 -89.083 -89.039 -10.420 -10.419 -10.417 -10.405 -10.381
-10.380 -10.368 -10.368 -10.359 -10.338 -10.326 -10.313  -8.145
 -8.142  -8.098  -6.109  -6.106  -6.106  -6.103  -6.102  -6.099
 -6.062  -6.058  -6.055  -1.074  -1.051  -1.008  -0.950  -0.922
 -0.909  -0.886  -0.860  -0.839  -0.776  -0.750  -0.719  -0.701
 -0.691  -0.682  -0.661  -0.639  -0.610  -0.583  -0.581  -0.580
 -0.569  -0.552  -0.549  -0.536  -0.524  -0.519  -0.514  -0.507
 -0.496  -0.469  -0.452  -0.431  -0.424  -0.378  -0.375  -0.361
 -- Virtual --
 -0.239  -0.169  -0.158  -0.147  -0.135  -0.121  -0.118  -0.103
 -0.101  -0.097  -0.094  -0.091  -0.086  -0.078  -0.074  -0.071
 -0.065  -0.062  -0.058  -0.054  -0.044  -0.040  -0.035  -0.032
 -0.027  -0.020  -0.018  -0.010  -0.009  -0.002   0.000   0.007
  0.009   0.011   0.013   0.017   0.021   0.023   0.024   0.026
  0.031   0.038   0.039   0.042   0.045   0.046   0.051   0.053
  0.054   0.056   0.058   0.060   0.065   0.074   0.076   0.081
  0.083   0.089   0.092   0.097   0.099   0.104   0.108   0.112
  0.116   0.121   0.122   0.129   0.134   0.136   0.139   0.149
  0.151   0.157   0.166   0.171   0.174   0.180   0.181   0.190
  0.193   0.198   0.207   0.213   0.222   0.229   0.231   0.238
  0.252   0.255   0.263   0.265   0.292   0.310   0.330   0.335
  0.359   0.370   0.379   0.387   0.409   0.422   0.438   0.445
  0.450   0.474   0.479   0.488   0.493   0.499   0.503   0.513
  0.518   0.527   0.551   0.553   0.562   0.566   0.567   0.575
  0.583   0.596   0.607   0.615   0.624   0.633   0.642   0.653
  0.667   0.673   0.678   0.682   0.694   0.697   0.715   0.741
  0.774   0.779   0.787   0.799   0.813   0.815   0.817   0.823
  0.836   0.840   0.847   0.852   0.861   0.869   0.876   0.888
  0.898   0.910   0.910   0.912   0.925   0.947   0.952   0.954
  0.990   0.996   1.007   1.020   1.037   1.061   1.086   1.089
  1.106   1.115   1.130   1.155   1.168   1.179   1.192   1.194
  1.196   1.236   1.248   1.257   1.295   1.300   1.325   1.328
  1.347   1.393   1.408   1.434   1.477   1.504   1.537   1.583
  1.651   1.668   1.681   1.693   1.694   1.747   1.763   1.765
  1.773   1.778   1.801   1.814   1.837   1.862   1.883   1.892
  1.908   1.922   1.962   1.981   2.004   2.013   2.024   2.048
  2.068   2.083   2.091   2.120   2.132   2.145   2.187   2.208
  2.254   2.269   2.279   2.282   2.298   2.319   2.336   2.347
  2.362   2.368   2.385   2.395   2.404   2.433   2.456   2.471
  2.488   2.504   2.535   2.550   2.565   2.605   2.666   2.702
  2.729   2.749   2.751   2.779   2.793   2.977   3.047   3.054
  3.123   3.165   3.168   3.248   3.303   3.524   3.575   3.624
  3.812   3.822   3.855   4.082   4.146   4.155   4.159   4.193
  4.215   4.253   4.334   4.396   4.500   4.548   4.581
 
 Beta MOs
 -- Occupied --
-89.086 -89.084 -89.039 -10.418 -10.415 -10.415 -10.401 -10.379
-10.378 -10.369 -10.368 -10.359 -10.338 -10.326 -10.313  -8.145
 -8.142  -8.098  -6.109  -6.107  -6.106  -6.103  -6.102  -6.100
 -6.062  -6.058  -6.055  -1.069  -1.045  -1.006  -0.944  -0.920
 -0.907  -0.881  -0.859  -0.835  -0.772  -0.746  -0.716  -0.698
 -0.689  -0.680  -0.659  -0.638  -0.609  -0.580  -0.578  -0.568
 -0.567  -0.550  -0.536  -0.534  -0.523  -0.518  -0.508  -0.506
 -0.495  -0.468  -0.430  -0.427  -0.420  -0.375  -0.361
 -- Virtual --
 -0.314  -0.218  -0.157  -0.153  -0.146  -0.133  -0.118  -0.109
 -0.101  -0.100  -0.094  -0.090  -0.086  -0.084  -0.077  -0.074
 -0.071  -0.065  -0.061  -0.057  -0.053  -0.043  -0.039  -0.034
 -0.032  -0.026  -0.019  -0.017  -0.009  -0.009  -0.002   0.001
  0.007   0.010   0.012   0.014   0.018   0.022   0.023   0.025
  0.027   0.032   0.038   0.040   0.042   0.046   0.046   0.051
  0.055   0.055   0.057   0.060   0.061   0.066   0.075   0.077
  0.083   0.084   0.090   0.093   0.098   0.100   0.105   0.109
  0.113   0.117   0.123   0.124   0.130   0.134   0.137   0.140
  0.150   0.152   0.158   0.167   0.172   0.174   0.181   0.182
  0.191   0.194   0.199   0.208   0.215   0.223   0.230   0.233
  0.239   0.253   0.257   0.264   0.266   0.292   0.312   0.331
  0.336   0.360   0.371   0.381   0.388   0.411   0.424   0.439
  0.446   0.451   0.476   0.480   0.493   0.495   0.505   0.510
  0.516   0.524   0.528   0.552   0.554   0.564   0.568   0.569
  0.575   0.588   0.603   0.608   0.617   0.625   0.635   0.645
  0.655   0.671   0.675   0.681   0.684   0.696   0.699   0.716
  0.742   0.778   0.781   0.788   0.800   0.816   0.818   0.819
  0.824   0.837   0.841   0.847   0.853   0.861   0.871   0.878
  0.889   0.899   0.911   0.912   0.914   0.927   0.949   0.953
  0.955   0.991   0.997   1.010   1.021   1.042   1.062   1.089
  1.093   1.114   1.119   1.132   1.158   1.170   1.183   1.196
  1.199   1.201   1.237   1.249   1.259   1.297   1.308   1.329
  1.333   1.350   1.394   1.411   1.437   1.481   1.514   1.548
  1.584   1.655   1.671   1.689   1.697   1.698   1.749   1.765
  1.770   1.777   1.780   1.802   1.816   1.840   1.867   1.886
  1.896   1.914   1.925   1.965   1.987   2.008   2.018   2.030
  2.053   2.071   2.089   2.099   2.123   2.135   2.150   2.190
  2.211   2.256   2.272   2.282   2.288   2.303   2.322   2.338
  2.349   2.368   2.370   2.386   2.396   2.406   2.436   2.459
  2.473   2.489   2.507   2.538   2.555   2.567   2.606   2.669
  2.705   2.733   2.751   2.753   2.782   2.795   2.977   3.048
  3.055   3.123   3.166   3.168   3.250   3.303   3.525   3.576
  3.625   3.812   3.823   3.855   4.087   4.150   4.158   4.162
  4.195   4.216   4.258   4.338   4.399   4.503   4.551   4.582
 --------------------------------------------------------------
 
          Ground-State Mulliken Net Atomic Charges

     Atom                 Charge (a.u.)    Spin (a.u.)
  --------------------------------------------------------
      1 H                     0.253989      -0.015147
      2 H                     0.172049       0.001072
      3 C                     0.102322       0.307611
      4 C                    -0.346101      -0.041522
      5 S                    -0.065354      -0.044795
      6 C                     0.605418       0.156437
      7 H                     0.155764      -0.010193
      8 C                    -0.321314       0.098651
      9 H                     0.151780      -0.009432
     10 C                     0.126209       0.155684
     11 C                    -0.225485       0.122797
     12 S                    -0.035018      -0.054810
     13 C                     0.306509      -0.012113
     14 H                     0.176064      -0.000082
     15 C                    -0.432898       0.312922
     16 C                    -0.233268       0.022419
     17 H                     0.157199      -0.002192
     18 C                     0.314089      -0.015249
     19 S                     0.087681       0.007959
     20 C                    -0.347753       0.005177
     21 C                     0.025838       0.012984
     22 H                     0.147948       0.000737
     23 H                     0.224333       0.001084
  --------------------------------------------------------
  Sum of atomic charges =     1.000000
  Sum of spin   charges =     1.000000

 -----------------------------------------------------------------
                    Cartesian Multipole Moments
 -----------------------------------------------------------------
    Charge (ESU x 10^10)
                 4.8032
    Dipole Moment (Debye)
         X      23.7939      Y      -2.2198      Z      -0.2709
       Tot      23.8988
    Quadrupole Moments (Debye-Ang)
        XX      89.0245     XY      -8.0099     YY     -92.0568
        XZ       2.9071     YZ       3.0831     ZZ    -103.3454
    Octopole Moments (Debye-Ang^2)
       XXX     -52.8593    XXY     -53.9807    XYY    -596.8018
       YYY     128.0440    XXZ      40.3362    XYZ       6.8720
       YYZ      14.4224    XZZ    -600.7159    YZZ      42.2640
       ZZZ      63.4894
    Hexadecapole Moments (Debye-Ang^3)
      XXXX  -10538.4918   XXXY    -554.3600   XXYY   -4996.8094
      XYYY     885.7764   YYYY    -692.3117   XXXZ     388.3462
      XXYZ      -9.1230   XYYZ     114.0845   YYYZ     -37.7260
      XXZZ   -4645.9119   XYZZ     234.3135   YYZZ    -202.7956
      XZZZ     374.7421   YZZZ     -74.1249   ZZZZ    -401.4708
 -----------------------------------------------------------------
 Calculating analytic gradient of the SCF energy
 Gradient of SCF Energy
            1           2           3           4           5           6
    1  -0.0003495  -0.0002667  -0.0017340  -0.0004804   0.0021711  -0.0000325
    2   0.0003344   0.0001901  -0.0013301   0.0004560  -0.0016001  -0.0015892
    3  -0.0000264   0.0000912  -0.0000875   0.0000883  -0.0002196   0.0003574
            7           8           9          10          11          12
    1   0.0002762   0.0014693  -0.0008099  -0.0001362   0.0010846  -0.0027246
    2   0.0001962   0.0040126  -0.0001759  -0.0044490   0.0022538   0.0016522
    3  -0.0003903  -0.0000763  -0.0000845  -0.0001519   0.0004273   0.0006283
           13          14          15          16          17          18
    1  -0.0011276   0.0003712   0.0010807   0.0020374  -0.0001123  -0.0011049
    2   0.0009975  -0.0003266  -0.0018060   0.0040799   0.0004100  -0.0041318
    3  -0.0039708   0.0002875   0.0055571  -0.0041411   0.0000691   0.0003987
           19          20          21          22          23
    1   0.0001604   0.0000748  -0.0001299   0.0001875   0.0000953
    2   0.0004769   0.0001605   0.0005118  -0.0000059  -0.0003173
    3   0.0016420  -0.0002499   0.0000900  -0.0000840  -0.0001547
 Max gradient component =       5.557E-03
 RMS gradient           =       1.639E-03
 Gradient time:  CPU 4.28 s  wall 4.22 s
 Geometry Optimization Parameters
   NAtoms,    NIC,     NZ,  NCons,   NDum,   NFix, NCnnct, MaxDiis
       23     166       0       1       0       0       0       0

 Cartesian Hessian Update
 Hessian Updated using BFGS Update


** CONSTRAINED OPTIMIZATION IN DELOCALIZED INTERNAL COORDINATES **
   Searching for a Minimum

   Optimization Cycle:   4

                       Coordinates (Angstroms)
     ATOM                X               Y               Z
      1  H        -0.1064120789   -0.4779750377   -0.2756796309
      2  H         0.9833768619   -2.8428622571   -0.7199142462
      3  C         0.9532905028   -0.7040096603   -0.2981692507
      4  C         1.5522297003   -1.9407240465   -0.5304415982
      5  S         2.0937188624    0.5525866052   -0.0313587451
      6  C         2.9457098912   -1.8751603264   -0.4924990981
      7  H         3.5982661054   -2.7248725285   -0.6592615938
      8  C         3.4372707481   -0.5724120190   -0.2280979068
      9  H         4.5999452928    2.0077882716    0.2343407431
     10  C         4.7776947512   -0.1620340919   -0.1036353788
     11  C         5.2610964476    1.1527913189    0.1427575815
     12  S         6.1156440926   -1.2911427606   -0.2213297982
     13  C         6.6437690900    1.2185765032    0.2378587784
     14  H         7.2110105050    2.1237485755    0.4192400333
     15  C         7.2821901589   -0.0265275651    0.0777209781
     16  C         8.7147215522   -0.3075206199    0.0590529679
     17  H         9.1472642765   -0.6255808970    2.1623502598
     18  C         9.5142001617   -0.6155144757    1.1421154776
     19  S         9.6161668588   -0.4075732477   -1.4380019818
     20  C        10.8579354775   -0.9032839360    0.7703385404
     21  C        11.0591927552   -0.8220809136   -0.5834203620
     22  H        11.6399528932   -1.1579394929    1.4756267103
     23  H        11.9786450938   -0.9708828387   -1.1349922700
   Point Group: c1    Number of degrees of freedom:    63


   Energy is  -1656.396626595

              Constraints and their Current Values
                                        Value     Constraint
   Dihedral:       13  15  16  18       90.000       90.000
 Hessian Updated using BFGS Update

 62 Hessian modes will be used to form the next step
  Hessian Eigenvalues:
     0.041960    0.045000    0.045000    0.045000    0.045001    0.045001
     0.045001    0.045002    0.045002    0.045003    0.045006    0.045011
     0.045012    0.045013    0.045020    0.045044    0.045048    0.045090
     0.045195    0.144442    0.159945    0.159964    0.159980    0.159997
     0.160023    0.160436    0.162482    0.162804    0.221309    0.223284
     0.229882    0.238025    0.241676    0.249669    0.251087    0.269072
     0.286844    0.322018    0.326744    0.327478    0.337762    0.340216
     0.341212    0.365509    0.365521    0.365841    0.366890    0.367234
     0.367876    0.370108    0.370608    0.400455    0.418647    0.435043
     0.435535    0.445202    0.463337    0.463539    0.481466    0.494207
     0.499521    0.581563

 Minimum Search - Taking Simple RFO Step
 Searching for Lamda that Minimizes Along All modes
 Value Taken    Lamda =  -0.00021930
 Step Taken.  Stepsize is  0.048295

                             Maximum     Tolerance    Cnvgd?
         Gradient           0.002534      0.000300      NO
         Displacement       0.022511      0.001200      NO
         Energy change     -0.001406      0.000001      NO


 New Cartesian Coordinates Obtained by Inverse Iteration

 Displacement from previous Coordinates is:  0.194881
 ----------------------------------------------------------------
             Standard Nuclear Orientation (Angstroms)
[...]
      2 H                     0.169221       0.000985
      3 C                     0.083699       0.277725
      4 C                    -0.301827      -0.035872
      5 S                    -0.053803      -0.035184
      6 C                     0.535802       0.140661
      7 H                     0.150227      -0.009413
      8 C                    -0.334477       0.081276
      9 H                     0.150854      -0.007720
     10 C                     0.119394       0.159702
     11 C                    -0.126833       0.097117
     12 S                    -0.108739      -0.045980
     13 C                     0.156753       0.002182
     14 H                     0.174439      -0.000689
     15 C                    -0.578901       0.279732
     16 C                     0.175758       0.038751
     17 H                     0.168530      -0.003642
     18 C                     0.121395       0.011704
     19 S                     0.110864       0.000702
     20 C                    -0.217247      -0.003776
     21 C                    -0.026681       0.067322
     22 H                     0.153750       0.000906
     23 H                     0.228741      -0.002533
  --------------------------------------------------------
  Sum of atomic charges =     1.000000
  Sum of spin   charges =     1.000000

 -----------------------------------------------------------------
                    Cartesian Multipole Moments
 -----------------------------------------------------------------
    Charge (ESU x 10^10)
                 4.8032
    Dipole Moment (Debye)
         X      25.4548      Y      -2.3460      Z      -0.2685
       Tot      25.5641
    Quadrupole Moments (Debye-Ang)
        XX     109.8644     XY     -10.9247     YY     -91.8657
        XZ       3.7833     YZ       4.8568     ZZ    -102.6422
    Octopole Moments (Debye-Ang^2)
       XXX     181.7496    XXY     -88.9960    XYY    -587.5528
       YYY     134.0840    XXZ      46.0850    XYZ      21.6729
       YYZ      10.7248    XZZ    -591.9238    YZZ      43.8470
       ZZZ      57.5245
    Hexadecapole Moments (Debye-Ang^3)
      XXXX   -7884.0755   XXXY    -933.1003   XXYY   -4859.1362
      XYYY     937.3720   YYYY    -714.3958   XXXZ     412.1651
      XXYZ     126.4983   XYYZ      76.8264   YYYZ     -63.1073
      XXZZ   -4528.5474   XYZZ     252.1224   YYZZ    -204.5210
      XZZZ     309.6291   YZZZ     -98.6255   ZZZZ    -409.9474
 -----------------------------------------------------------------
 Calculating analytic gradient of the SCF energy
 Gradient of SCF Energy
            1           2           3           4           5           6
    1   0.0000055   0.0000017   0.0000141   0.0000198  -0.0000361  -0.0000047
    2  -0.0000037  -0.0000072   0.0000370  -0.0000202   0.0000242   0.0000116
    3  -0.0000043   0.0000011   0.0000100   0.0000033  -0.0000258   0.0000281
            7           8           9          10          11          12
    1  -0.0000093  -0.0000434   0.0000310   0.0000137   0.0000085  -0.0000246
    2  -0.0000049  -0.0000697   0.0000093   0.0000122   0.0000182  -0.0000598
    3   0.0000127  -0.0000243  -0.0000110  -0.0000182   0.0000446  -0.0000427
           13          14          15          16          17          18
    1  -0.0005516  -0.0000045   0.0000711   0.0019842   0.0000042  -0.0014638
    2   0.0007739   0.0000095  -0.0062669   0.0143157   0.0000210  -0.0087946
    3  -0.0087944   0.0000024   0.0135547  -0.0040842  -0.0000016  -0.0006931
           19          20          21          22          23
    1  -0.0000526  -0.0000086   0.0000575  -0.0000025  -0.0000096
    2   0.0000201  -0.0000204   0.0000095   0.0000024  -0.0000171
    3   0.0000199  -0.0000150   0.0000295   0.0000068   0.0000015
 Max gradient component =       1.432E-02
 RMS gradient           =       2.966E-03
 Gradient time:  CPU 4.22 s  wall 4.23 s
 Geometry Optimization Parameters
   NAtoms,    NIC,     NZ,  NCons,   NDum,   NFix, NCnnct, MaxDiis
       23     166       0       1       0       0       0       0

 Cartesian Hessian Update
 Hessian Updated using BFGS Update


** CONSTRAINED OPTIMIZATION IN DELOCALIZED INTERNAL COORDINATES **
   Searching for a Minimum

   Optimization Cycle:  13

                       Coordinates (Angstroms)
     ATOM                X               Y               Z
      1  H        -0.0895858140   -0.5224469057   -0.3972705681
      2  H         1.0479468450   -2.8568616862   -0.8663507970
      3  C         0.9731943335   -0.7310071034   -0.3855798312
      4  C         1.5947068009   -1.9524570498   -0.6290398146
      5  S         2.0818141458    0.5314107174   -0.0376613679
      6  C         2.9859990167   -1.8706540316   -0.5352726308
      7  H         3.6523228517   -2.7112508166   -0.6931392086
      8  C         3.4477193192   -0.5761308554   -0.2172720495
      9  H         4.5717291159    2.0166983827    0.3217580376
     10  C         4.7803101024   -0.1425244800   -0.0476920035
     11  C         5.2376696982    1.1646104927    0.2452164126
     12  S         6.1410427863   -1.2554891375   -0.1549119572
     13  C         6.6160330162    1.2469348949    0.3879014753
     14  H         7.1591557195    2.1636843906    0.5852250354
     15  C         7.2776313484    0.0144182422    0.2334275781
     16  C         8.7094100263   -0.2141071136    0.1241767460
     17  H         9.3450848814   -0.3086863796    2.2001869303
     18  C         9.6053802866   -0.4474693250    1.1568450477
     19  S         9.4307141892   -0.6412130037   -1.4229996408
     20  C        10.8755968568   -0.8858158337    0.7062132796
     21  C        10.9321688276   -1.0192726519   -0.6615188102
     22  H        11.7124398296   -1.0935284169    1.3619573258
     23  H        11.7883958166   -1.2814477698   -1.2695989790
   Point Group: c1    Number of degrees of freedom:    63


   Energy is  -1656.397378646

              Constraints and their Current Values
                                        Value     Constraint
   Dihedral:       13  15  16  18       90.000       90.000
 Hessian Updated using BFGS Update

 62 Hessian modes will be used to form the next step
  Hessian Eigenvalues:
     0.007345    0.010756    0.035022    0.044548    0.045000    0.045001
     0.045001    0.045002    0.045003    0.045006    0.045009    0.045018
     0.045022    0.045036    0.045038    0.045064    0.045083    0.045151
     0.046212    0.143094    0.159226    0.159914    0.159981    0.160028
     0.160139    0.160688    0.161312    0.165854    0.200125    0.223428
     0.223849    0.234777    0.239018    0.245152    0.249676    0.275466
     0.288754    0.295759    0.323058    0.326029    0.333858    0.339441
     0.341757    0.365505    0.365553    0.365985    0.366930    0.367379
     0.367997    0.370197    0.371292    0.402611    0.425487    0.433467
     0.435619    0.461543    0.463383    0.476315    0.484864    0.490197
     0.502772    0.552053

 Minimum Search - Taking Simple RFO Step
 Searching for Lamda that Minimizes Along All modes
 Value Taken    Lamda =   0.00000000
 Step Taken.  Stepsize is  0.004741

                             Maximum     Tolerance    Cnvgd?
         Gradient           0.000053      0.000300     YES
         Displacement       0.002908      0.001200      NO
         Energy change     -0.000001      0.000001     YES

 Final energy is   -1656.39737864563     


 ******************************
 **  OPTIMIZATION CONVERGED  **
 ******************************

                       Coordinates (Angstroms)
     ATOM                X               Y               Z
      1  H        -0.0895858140   -0.5224469057   -0.3972705681
      2  H         1.0479468450   -2.8568616862   -0.8663507970
      3  C         0.9731943335   -0.7310071034   -0.3855798312
      4  C         1.5947068009   -1.9524570498   -0.6290398146
      5  S         2.0818141458    0.5314107174   -0.0376613679
      6  C         2.9859990167   -1.8706540316   -0.5352726308
      7  H         3.6523228517   -2.7112508166   -0.6931392086
      8  C         3.4477193192   -0.5761308554   -0.2172720495
      9  H         4.5717291159    2.0166983827    0.3217580376
     10  C         4.7803101024   -0.1425244800   -0.0476920035
     11  C         5.2376696982    1.1646104927    0.2452164126
     12  S         6.1410427863   -1.2554891375   -0.1549119572
     13  C         6.6160330162    1.2469348949    0.3879014753
     14  H         7.1591557195    2.1636843906    0.5852250354
     15  C         7.2776313484    0.0144182422    0.2334275781
     16  C         8.7094100263   -0.2141071136    0.1241767460
     17  H         9.3450848814   -0.3086863796    2.2001869303
     18  C         9.6053802866   -0.4474693250    1.1568450477
     19  S         9.4307141892   -0.6412130037   -1.4229996408
     20  C        10.8755968568   -0.8858158337    0.7062132796
     21  C        10.9321688276   -1.0192726519   -0.6615188102
     22  H        11.7124398296   -1.0935284169    1.3619573258
     23  H        11.7883958166   -1.2814477698   -1.2695989790

Z-matrix Print:
$molecule
1 2
S 
C  1 1.747943
C  2 1.407363 1 110.791158
H  3 1.083674 2 121.684661 1 -177.089116 0
C  3 1.388172 2 113.800775 1 2.063677 0
H  5 1.084154 3 123.782533 2 -179.323486 0
C  5 1.415477 3 113.382348 2 -0.918695 0
C  7 1.411584 5 127.847141 3 178.175013 0
C  8 1.410709 7 128.165816 5 178.616124 0
H  9 1.084210 8 122.896881 7 -0.189942 0
C  9 1.396846 8 113.257659 7 -179.967506 0
H  11 1.083149 9 124.498627 8 179.811334 0
C  11 1.391938 9 112.432993 8 -0.025531 0
H  13 1.083114 11 127.243945 9 179.900018 0
C  2 1.454012 1 120.625326 3 -168.972133 0
C  15 1.386948 2 127.345766 1 -103.027487 0
H  16 1.084240 15 122.673625 2 -11.259659 0
C  16 1.417274 15 113.220635 2 168.475448 0
H  18 1.083259 16 124.000335 15 178.328342 0
C  18 1.375392 16 112.523382 15 -1.638825 0
H  20 1.082415 18 127.929496 16 176.231015 0
S  13 1.715746 11 113.117722 9 -0.057866 0
S  20 1.725441 18 112.446144 16 -1.047856 0
$end

 
 --------------------------------------------------------------
 
                    Orbital Energies (a.u.)
 --------------------------------------------------------------
 
 Alpha MOs
 -- Occupied --
-89.080 -89.080 -89.047 -10.416 -10.415 -10.409 -10.397 -10.374
-10.373 -10.369 -10.367 -10.361 -10.351 -10.336 -10.323  -8.139
 -8.139  -8.105  -6.103  -6.103  -6.099  -6.099  -6.096  -6.095
 -6.070  -6.066  -6.063  -1.069  -1.046  -1.015  -0.946  -0.918
 -0.904  -0.885  -0.869  -0.841  -0.773  -0.748  -0.716  -0.697
 -0.691  -0.686  -0.662  -0.642  -0.610  -0.578  -0.575  -0.575
 -0.564  -0.554  -0.547  -0.536  -0.527  -0.519  -0.517  -0.503
 -0.502  -0.477  -0.449  -0.426  -0.418  -0.385  -0.380  -0.363
 -- Virtual --
 -0.233  -0.169  -0.163  -0.144  -0.133  -0.118  -0.115  -0.106
 -0.099  -0.095  -0.092  -0.089  -0.084  -0.079  -0.076  -0.073
 -0.066  -0.063  -0.058  -0.054  -0.045  -0.040  -0.036  -0.030
 -0.027  -0.021  -0.018  -0.011  -0.007   0.000   0.002   0.005
  0.008   0.010   0.012   0.019   0.023   0.024   0.027   0.029
  0.029   0.037   0.040   0.044   0.045   0.047   0.049   0.052
  0.053   0.056   0.058   0.061   0.066   0.074   0.075   0.082
  0.084   0.089   0.092   0.095   0.099   0.107   0.108   0.116
  0.119   0.122   0.123   0.131   0.134   0.138   0.141   0.150
  0.154   0.157   0.164   0.171   0.175   0.178   0.181   0.186
  0.196   0.200   0.205   0.215   0.224   0.229   0.232   0.242
  0.254   0.257   0.258   0.266   0.289   0.309   0.331   0.340
  0.357   0.372   0.376   0.386   0.405   0.419   0.437   0.447
  0.451   0.464   0.471   0.488   0.495   0.501   0.507   0.510
  0.519   0.533   0.543   0.549   0.556   0.569   0.570   0.579
  0.585   0.598   0.603   0.619   0.623   0.637   0.640   0.653
  0.666   0.668   0.676   0.685   0.689   0.696   0.711   0.737
  0.777   0.782   0.784   0.802   0.810   0.814   0.821   0.824
  0.833   0.837   0.841   0.849   0.855   0.868   0.872   0.885
  0.892   0.902   0.912   0.917   0.929   0.949   0.955   0.956
  0.983   0.986   1.010   1.017   1.044   1.061   1.077   1.091
  1.109   1.113   1.135   1.155   1.167   1.184   1.192   1.197
  1.199   1.219   1.228   1.240   1.279   1.308   1.320   1.326
  1.340   1.398   1.412   1.458   1.485   1.510   1.545   1.568
  1.622   1.656   1.691   1.697   1.706   1.753   1.763   1.769
  1.779   1.781   1.799   1.812   1.826   1.865   1.877   1.899
  1.904   1.919   1.958   1.983   2.003   2.010   2.031   2.050
  2.059   2.084   2.091   2.107   2.137   2.144   2.180   2.215
  2.248   2.269   2.279   2.286   2.303   2.318   2.337   2.344
  2.363   2.371   2.380   2.392   2.407   2.436   2.455   2.463
  2.485   2.509   2.541   2.557   2.569   2.597   2.654   2.705
  2.739   2.746   2.755   2.786   2.789   2.983   3.045   3.054
  3.129   3.158   3.171   3.256   3.292   3.523   3.582   3.612
  3.811   3.825   3.851   4.089   4.151   4.157   4.165   4.187
  4.209   4.252   4.337   4.394   4.502   4.552   4.570
 
 Beta MOs
 -- Occupied --
-89.080 -89.080 -89.047 -10.414 -10.411 -10.408 -10.393 -10.373
-10.371 -10.369 -10.366 -10.361 -10.350 -10.336 -10.323  -8.139
 -8.139  -8.105  -6.103  -6.103  -6.099  -6.099  -6.096  -6.096
 -6.070  -6.066  -6.063  -1.064  -1.041  -1.013  -0.940  -0.915
 -0.902  -0.880  -0.868  -0.835  -0.769  -0.744  -0.712  -0.694
 -0.689  -0.685  -0.660  -0.640  -0.608  -0.575  -0.573  -0.564
 -0.562  -0.552  -0.537  -0.535  -0.526  -0.518  -0.510  -0.501
 -0.500  -0.476  -0.427  -0.423  -0.415  -0.383  -0.367
 -- Virtual --
 -0.310  -0.215  -0.164  -0.150  -0.142  -0.130  -0.116  -0.108
 -0.101  -0.098  -0.094  -0.090  -0.084  -0.080  -0.078  -0.074
 -0.073  -0.065  -0.062  -0.057  -0.053  -0.044  -0.039  -0.036
 -0.029  -0.026  -0.020  -0.017  -0.010  -0.006   0.001   0.002
  0.006   0.008   0.011   0.013   0.020   0.023   0.025   0.028
  0.030   0.031   0.038   0.041   0.044   0.046   0.048   0.050
  0.053   0.054   0.057   0.060   0.062   0.067   0.074   0.076
  0.083   0.086   0.090   0.093   0.096   0.100   0.108   0.109
  0.116   0.120   0.123   0.125   0.131   0.134   0.139   0.142
  0.151   0.155   0.158   0.165   0.171   0.176   0.179   0.182
  0.187   0.197   0.201   0.207   0.217   0.226   0.230   0.234
  0.242   0.254   0.258   0.260   0.267   0.290   0.311   0.332
  0.342   0.358   0.372   0.378   0.387   0.407   0.420   0.438
  0.449   0.453   0.465   0.472   0.490   0.500   0.505   0.513
  0.517   0.522   0.534   0.544   0.551   0.559   0.570   0.573
  0.580   0.588   0.603   0.605   0.619   0.625   0.639   0.642
  0.655   0.668   0.670   0.679   0.686   0.691   0.699   0.713
  0.738   0.780   0.785   0.786   0.803   0.814   0.817   0.823
  0.825   0.834   0.838   0.843   0.850   0.856   0.870   0.873
  0.886   0.893   0.903   0.914   0.919   0.930   0.950   0.956
  0.958   0.984   0.987   1.011   1.020   1.048   1.062   1.080
  1.094   1.113   1.119   1.139   1.158   1.169   1.189   1.194
  1.200   1.206   1.222   1.230   1.242   1.281   1.315   1.325
  1.329   1.344   1.400   1.415   1.462   1.489   1.520   1.555
  1.571   1.629   1.659   1.693   1.701   1.714   1.756   1.765
  1.773   1.781   1.784   1.802   1.814   1.830   1.869   1.880
  1.902   1.908   1.923   1.961   1.989   2.008   2.016   2.038
  2.056   2.062   2.091   2.096   2.112   2.140   2.148   2.184
  2.218   2.250   2.271   2.282   2.291   2.308   2.320   2.341
  2.346   2.366   2.375   2.382   2.394   2.410   2.439   2.457
  2.465   2.488   2.511   2.544   2.561   2.571   2.599   2.657
  2.708   2.743   2.747   2.757   2.787   2.792   2.984   3.046
  3.056   3.130   3.158   3.172   3.258   3.292   3.524   3.584
  3.613   3.811   3.826   3.851   4.093   4.154   4.160   4.168
  4.192   4.211   4.257   4.340   4.398   4.506   4.555   4.572
 --------------------------------------------------------------
 
          Ground-State Mulliken Net Atomic Charges

     Atom                 Charge (a.u.)    Spin (a.u.)
  --------------------------------------------------------
      1 H                     0.249083      -0.013957
      2 H                     0.169221       0.000985
      3 C                     0.083699       0.277725
      4 C                    -0.301827      -0.035872
      5 S                    -0.053803      -0.035184
      6 C                     0.535802       0.140661
      7 H                     0.150227      -0.009413
      8 C                    -0.334477       0.081276
      9 H                     0.150854      -0.007720
     10 C                     0.119394       0.159702
     11 C                    -0.126833       0.097117
     12 S                    -0.108739      -0.045980
     13 C                     0.156753       0.002182
     14 H                     0.174439      -0.000689
     15 C                    -0.578901       0.279732
     16 C                     0.175758       0.038751
     17 H                     0.168530      -0.003642
     18 C                     0.121395       0.011704
     19 S                     0.110864       0.000702
     20 C                    -0.217247      -0.003776
     21 C                    -0.026681       0.067322
     22 H                     0.153750       0.000906
     23 H                     0.228741      -0.002533
  --------------------------------------------------------
  Sum of atomic charges =     1.000000
  Sum of spin   charges =     1.000000

 -----------------------------------------------------------------
                    Cartesian Multipole Moments
 -----------------------------------------------------------------
    Charge (ESU x 10^10)
                 4.8032
    Dipole Moment (Debye)
         X      25.4548      Y      -2.3460      Z      -0.2685
       Tot      25.5641
    Quadrupole Moments (Debye-Ang)
        XX     109.8644     XY     -10.9247     YY     -91.8657
        XZ       3.7833     YZ       4.8568     ZZ    -102.6422
    Octopole Moments (Debye-Ang^2)
       XXX     181.7496    XXY     -88.9960    XYY    -587.5528
       YYY     134.0840    XXZ      46.0850    XYZ      21.6729
       YYZ      10.7248    XZZ    -591.9238    YZZ      43.8470
       ZZZ      57.5245
    Hexadecapole Moments (Debye-Ang^3)
      XXXX   -7884.0755   XXXY    -933.1003   XXYY   -4859.1362
      XYYY     937.3720   YYYY    -714.3958   XXXZ     412.1651
      XXYZ     126.4983   XYYZ      76.8264   YYYZ     -63.1073
      XXZZ   -4528.5474   XYZZ     252.1224   YYZZ    -204.5210
      XZZZ     309.6291   YZZZ     -98.6255   ZZZZ    -409.9474
 -----------------------------------------------------------------
Archival summary:
1\1\nid00528\OPT\ProcedureUnspecified\BasisUnspecified\3128(1+,2)\bwood\TueMay3011:04:112017TueMay3011:04:112017\0\\#,OPT,ProcedureUnspecified,BasisUnspecified,\\1,2\S\C,1,1.74794\C,2,1.40736,1,110.791\H,3,1.08367,2,121.685,1,-177.089,0\C,3,1.38817,2,113.801,1,2.06368,0\H,5,1.08415,3,123.783,2,-179.323,0\C,5,1.41548,3,113.382,2,-0.918695,0\C,7,1.41158,5,127.847,3,178.175,0\C,8,1.41071,7,128.166,5,178.616,0\H,9,1.08421,8,122.897,7,-0.189942,0\C,9,1.39685,8,113.258,7,-179.968,0\H,11,1.08315,9,124.499,8,179.811,0\C,11,1.39194,9,112.433,8,-0.0255305,0\H,13,1.08311,11,127.244,9,179.9,0\C,2,1.45401,1,120.625,3,-168.972,0\C,15,1.38695,2,127.346,1,-103.027,0\H,16,1.08424,15,122.674,2,-11.2597,0\C,16,1.41727,15,113.221,2,168.475,0\H,18,1.08326,16,124,15,178.328,0\C,18,1.37539,16,112.523,15,-1.63882,0\H,20,1.08241,18,127.929,16,176.231,0\S,13,1.71575,11,113.118,9,-0.0578663,0\S,20,1.72544,18,112.446,16,-1.04786,0\\\@

 Total job time:  324.43s(wall), 344.20s(cpu) 
 Tue May 30 11:04:11 2017

        *************************************************************
        *                                                           *
        *  Thank you very much for using Q-Chem.  Have a nice day.  *
        *                                                           *
        *************************************************************


0 sent ACK to 0 
now end server 0 ... 
