srun -N 1 --ntasks-per-node 22 --cpus-per-task 2 --cpu_bind=cores --nodelist nid00479 /global/project/projectdirs/jcesr/qchem/qc44/cnl_qc441/dist/exe/qcprog.cori.haswell.exe .pt_nn_cation_20.0.in.32943.qcin.1 /dev/shm/eg_qchem/qchem32943/
Process 1 of 22 is on nid00479 - thread support 0
Process 2 of 22 is on nid00479 - thread support 0
Process 3 of 22 is on nid00479 - thread support 0
Process 4 of 22 is on nid00479 - thread support 0
Process 5 of 22 is on nid00479 - thread support 0
Process 21 of 22 is on nid00479 - thread support 0
Process 0 of 22 is on nid00479 - thread support 0
initial socket setup ...start
Process 6 of 22 is on nid00479 - thread support 0
initial socket setup ...done 
now start server 0 ... 
nid00479 10.128.1
Q-Chem Developer Version! Running on 10.128.1.*
                  Welcome to Q-Chem
     A Quantum Leap Into The Future Of Chemistry


 Q-Chem 4.4, Q-Chem, Inc., Pleasanton, CA (2016)

 Y. Shao,  Z. Gan,  E. Epifanovsky,  A. T. B. Gilbert,  M. Wormit,  
 J. Kussmann,  A. W. Lange,  A. Behn,  J. Deng,  X. Feng,  D. Ghosh,  
 M. Goldey,  P. R. Horn,  L. D. Jacobson,  I. Kaliman,  F. Rob,  
 R. Z. Khaliullin,  T. Kus,  A. Landau,  J. Liu,  E. I. Proynov,  Y. M. Rhee,  
 R. M. Richard,  M. A. Rohrdanz,  R. P. Steele,  E. J. Sundstrom,  
 H. L. Woodcock III,  P. M. Zimmerman,  D. Zuev,  B. Albrecht,  E. Alguire,  
 B. Austin,  S. A. Baeppler,  G. J. O. Beran,  Y. A. Bernard,  
 E. J. Berquist,  K. Brandhorst,  K. B. Bravaya,  S. T. Brown,  D. Casanova,  
 C.-M. Chang,  Y. Chen,  S. H. Chien,  K. D. Closser,  M. P. Coons,  
 D. L. Crittenden,  S. Dasgupta,  M. Diedenhofen,  R. A. DiStasio Jr.,  
 H. Do,  A. D. Dutoi,  R. G. Edgar,  P.-T. Fang,  S. Fatehi,  Q. Feng,  
 L. Fusti-Molnar,  A. Ghysels,  A. Golubeva-Zadorozhnaya,  J. Gomes,  
 A. Gunina,  M. W. D. Hanson-Heine,  P. H. P. Harbach,  A. W. Hauser,  
 J. E. Herr,  E. G. Hohenstein,  Z. C. Holden,  K. Hui,  T.-C. Jagau,  H. Ji,  
 B. Kaduk,  K. Khistyaev,  Jaehoon Kim,  Jihan Kim,  R. A. King,  
 P. Klunzinger,  K. Koh,  D. Kosenkov,  T. Kowalczyk,  C. M. Krauter,  
 A. Kunitsa,  K. U. Lao,  A. Laurent,  K. V. Lawler,  J. Lee,  D. Lefrancois,  
 S. Lehtola,  S. V. Levchenko,  C. Y. Lin,  Y.-S. Lin,  F. Liu,  E. Livshits,  
 R. C. Lochan,  A. Luenser,  P. Manohar,  S. F. Manzer,  S.-P. Mao,  Y. Mao,  
 N. Mardirossian,  A. V. Marenich,  L. A. Martinez-Martinez,  S. A. Maurer,  
 N. J. Mayhall,  J.-M. Mewes,  A. F. Morrison,  K. Nanda,  T. S. Nguyen-Beck,  
 C. M. Oana,  R. Olivares-Amaya,  D. P. O'Neill,  J. A. Parkhill,  
 T. M. Perrine,  R. Peverati,  P. A. Pieniazek,  F. Plasser,  A. Prociuk,  
 D. R. Rehn,  E. Rosta,  N. J. Russ,  N. Sergueev,  S. M. Sharada,  
 S. Sharma,  D. W. Small,  A. Sodt,  T. Stauch,  T. Stein,  D. Stuck,  
 Y.-C. Su,  A. J. W. Thom,  T. Tsuchimochi,  L. Vogt,  O. Vydrov,  T. Wang,  
 M. A. Watson,  J. Wenzel,  A. White,  C. F. Williams,  V. Vanovschi,  
 K. Yao,  S. Yeganeh,  S. R. Yost,  Z.-Q. You,  I. Y. Zhang,  X. Zhang,  
 Y. Zhao,  B. R. Brooks,  G. K. L. Chan,  D. M. Chipman,  C. J. Cramer,  
 W. A. Goddard III,  M. S. Gordon,  W. J. Hehre,  A. Klamt,  
 H. F. Schaefer III,  M. W. Schmidt,  C. D. Sherrill,  D. G. Truhlar,  
 A. Warshel,  X. Xu,  A. Aspuru-Guzik,  R. Baer,  A. T. Bell,  N. A. Besley,  
 J.-D. Chai,  A. Dreuw,  B. D. Dunietz,  T. R. Furlani,  S. R. Gwaltney,  
 C.-P. Hsu,  Y. Jung,  J. Kong,  D. S. Lambrecht,  W. Liang,  C. Ochsenfeld,  
 V. A. Rassolov,  L. V. Slipchenko,  J. E. Subotnik,  T. Van Voorhis,  
 J. M. Herbert,  A. I. Krylov,  P. M. W. Gill,  M. Head-Gordon

 Contributors to earlier versions of Q-Chem not listed above: 
 R. D. Adamson,  J. Baker,  E. F. C. Byrd,  A. K. Chakraborty,  C.-L. Cheng,  
 H. Dachsel,  R. J. Doerksen,  G. Hawkins,  A. Heyden,  S. Hirata,  
 G. Kedziora,  F. J. Keil,  C. Kelley,  P. P. Korambath,  W. Kurlancheek,  
 A. M. Lee,  M. S. Lee,  D. Liotard,  I. Lotan,  P. E. Maslen,  N. Nair,  
 D. Neuhauser,  R. Olson,  B. Peters,  J. Ritchie,  N. E. Schultz,  
 N. Shenvi,  A. C. Simmonett,  K. S. Thanthiriwatte,  Q. Wu,  W. Zhang

 Please cite Q-Chem as follows:
 Y. Shao et al., Mol. Phys. 113, 184-215 (2015)
 DOI: 10.1080/00268976.2014.952696

 Q-Chem 4.4.2 for Intel X86 EM64T Linux

 Parts of Q-Chem use Armadillo 5.200.1 (Boston Tea Smuggler).
 http://arma.sourceforge.net/

 Q-Chem begins on Tue May 30 10:58:42 2017  

Host: nid00444
0

     Scratch files written to /dev/shm/eg_qchem/qchem32943.0//
 Parallel job on  22  processors

Checking the input file for inconsistencies... 	...done.

--------------------------------------------------------------
User input:
--------------------------------------------------------------
$molecule
 1  2
 H           0.00000000        0.00000000        0.00000000
 H           0.66366000       -2.46828000       -0.59127000
 C           0.99103000       -0.39106000       -0.11652000
 C           1.36812000       -1.67442000       -0.42485000
 S           2.34669000        0.62586000        0.08638000
 C           2.76167000       -1.82175000       -0.50822000
 H           3.26291000       -2.73877000       -0.76199000
 C           3.44671000       -0.65043000       -0.26057000
 H           4.55645000        1.43902671        0.15704385
 C           4.88382000       -0.65043000       -0.26057000
 C           5.26091000        0.64090194        0.01245390
 S           6.23948000       -1.67253113       -0.43550939
 C           6.65446000        0.79046248        0.09175311
 H           7.15570000        1.71409653        0.32028213
 C           7.33950000       -0.38720773       -0.12368600
 C           8.77661000       -0.38720773       -0.12368600
 H           8.96041000        1.49476464        0.91109148
 C           9.46165000        0.64575605        0.48154764
 S           9.87663000       -1.56464050       -0.72613264
 C          10.85520000        0.48068045        0.44404097
 C          11.23229000       -0.67598706       -0.19172612
 H          11.55966000        1.17981042        0.85529052
 H          12.22332000       -1.04363185       -0.36876482
$end


$rem
         jobtype = opt
        exchange = b3lyp
           basis = 6-31++g**
  max_scf_cycles = 150
      mem_static = 281
       mem_total = 2818
      sym_ignore = true
        symmetry = false
          thresh = 12
$end


$opt
CONSTRAINT
tors 13 15 16 18 20.0
ENDCONSTRAINT
$end

--------------------------------------------------------------
 ----------------------------------------------------------------
             Standard Nuclear Orientation (Angstroms)
    I     Atom           X                Y                Z
 ----------------------------------------------------------------
    1      H       0.0000000000     0.0000000000     0.0000000000
    2      H       0.6636600000    -2.4682800000    -0.5912700000
    3      C       0.9910300000    -0.3910600000    -0.1165200000
    4      C       1.3681200000    -1.6744200000    -0.4248500000
    5      S       2.3466900000     0.6258600000     0.0863800000
    6      C       2.7616700000    -1.8217500000    -0.5082200000
    7      H       3.2629100000    -2.7387700000    -0.7619900000
    8      C       3.4467100000    -0.6504300000    -0.2605700000
    9      H       4.5564500000     1.4390267100     0.1570438500
   10      C       4.8838200000    -0.6504300000    -0.2605700000
   11      C       5.2609100000     0.6409019400     0.0124539000
   12      S       6.2394800000    -1.6725311300    -0.4355093900
   13      C       6.6544600000     0.7904624800     0.0917531100
   14      H       7.1557000000     1.7140965300     0.3202821300
   15      C       7.3395000000    -0.3872077300    -0.1236860000
   16      C       8.7766100000    -0.3872077300    -0.1236860000
   17      H       8.9604100000     1.4947646400     0.9110914800
   18      C       9.4616500000     0.6457560500     0.4815476400
   19      S       9.8766300000    -1.5646405000    -0.7261326400
   20      C      10.8552000000     0.4806804500     0.4440409700
   21      C      11.2322900000    -0.6759870600    -0.1917261200
   22      H      11.5596600000     1.1798104200     0.8552905200
   23      H      12.2233200000    -1.0436318500    -0.3687648200
 ----------------------------------------------------------------
 Nuclear Repulsion Energy =  1186.8146171236 hartrees
 There are       64 alpha and       63 beta electrons
 Requested basis set is 6-31++G(d,p)
 There are 110 shells and 345 basis functions

 Total QAlloc Memory Limit   2818 MB
 Mega-Array Size       275 MB
 MEM_STATIC part       281 MB
 A cutoff of  1.0D-12 yielded   4722 shell pairs
 There are     48115 function pairs

 Q-Chem warning in module /project/projectdirs/jcesr/qchem/qc44/cnl_qc441/compile/cori/qc_src/libqints/qchem/aobasis.C, line 68:

 Using reconstructed effective core potential

 
 -------------------------------------------------------
 OpenMP Integral Computing Module                       
 Release: version 1.0, May 2013, Q-Chem Inc. Pittsburgh 
 -------------------------------------------------------
 Integral Job Info:
 Integral job number is                      11
 Integral operator is                         1
 short-range coefficients                     0
 long-range coefficients              100000000
 Omega coefficients                           0
 if combine SR and LR in K                    0
 Integral screening is                        0
 Integral computing path is                   2
 max size of driver memory is            800000
 size of driver memory is                593474
 size of scratch memory is             15166112
 max col of scratch BK array               1296
 max len of scratch array in speh3          155
 max len of scratch index in speh4           18
 max int batch size is                      520
 min int batch size is                       52
 fixed nKL is                                52
 max L of basis functions is                  2
 order of int derivative is                   0
 number of shells is                        110
 number of basis is                         345
 number of cartesian basis is               345
 number of contracted shell pairs          4722
 number of primitive shell pairs          14795
 maxK2 (contraction) of shell pair           36
 max number of K2 of shell pair               1
 max number of CS2 of shell pair            509
 max number of PS2 of shell pair           3054
 mem total for path MDJ                  101288
 -------------------------------------------------------
 Smallest overlap matrix eigenvalue = 8.51E-08
 Linear dependence detected in AO basis
 Number of orthogonalized atomic orbitals = 342
 Maximum deviation from orthogonality = 1.387E-10

 Scale SEOQF with 1.000000e-02/1.000000e-01/1.000000e-01

 Standard Electronic Orientation quadrupole field applied
 Nucleus-field energy     =     0.0000000322 hartrees
 Guess from superposition of atomic densities
 Warning:  Energy on first SCF cycle will be non-variational
 An unrestricted hybrid HF-DFT SCF calculation will be
 performed using Pulay DIIS extrapolation
 Exchange:     0.2000 Hartree-Fock + 0.0800 Slater + 0.7200 B88
 Correlation:  0.1900 VWN1RPA + 0.8100 LYP
 Using SG-1 standard quadrature grid
 SCF converges when DIIS error is below 1.0E-08
 Inaccurate integrated density:
   Number of electrons =   127
   Numerical integral  =   127.999782836972
   Relative error      =     0.7872305803 %
 ---------------------------------------
  Cycle       Energy         DIIS Error
 ---------------------------------------
    1   -1660.7457547809      3.84E-02
    2   -1656.1691728624      3.50E-03
    3   -1655.8540468771      5.43E-03
    4   -1656.3590120470      7.96E-04
    5   -1656.3658084092      5.26E-04
    6   -1656.3699815769      2.08E-04
    7   -1656.3707363722      6.63E-05
    8   -1656.3708385719      1.41E-05
    9   -1656.3708549246      6.22E-06
   10   -1656.3708661959      3.72E-06
   11   -1656.3708738160      1.88E-06
   12   -1656.3708773723      1.26E-06
   13   -1656.3708783899      5.10E-07
   14   -1656.3708784515      3.10E-07
   15   -1656.3708784649      8.89E-08
   16   -1656.3708784662      4.44E-08
   17   -1656.3708784663      1.53E-08
   18   -1656.3708784662      8.84E-09 Convergence criterion met
 ---------------------------------------
 <S^2> = 0.7669
 SCF time:  CPU 24.88 s  wall 23.58 s
 SCF   energy in the final basis set = -1656.3708784662
 Total energy in the final basis set = -1656.3708784662
 
 --------------------------------------------------------------
 
                    Orbital Energies (a.u.)
 --------------------------------------------------------------
 
 Alpha MOs
 -- Occupied --
-89.086 -89.066 -89.063 -10.408 -10.403 -10.389 -10.388 -10.375
-10.372 -10.358 -10.357 -10.351 -10.349 -10.340 -10.339  -8.145
 -8.127  -8.123  -6.109  -6.105  -6.101  -6.091  -6.087  -6.087
 -6.083  -6.083  -6.080  -1.080  -1.052  -1.039  -0.957  -0.917
 -0.901  -0.893  -0.888  -0.848  -0.775  -0.750  -0.715  -0.703
 -0.693  -0.679  -0.676  -0.657  -0.607  -0.584  -0.582  -0.570
 -0.565  -0.552  -0.550  -0.545  -0.536  -0.526  -0.518  -0.508
 -0.492  -0.489  -0.460  -0.423  -0.407  -0.403  -0.398  -0.353
 -- Virtual --
 -0.222  -0.171  -0.148  -0.132  -0.124  -0.114  -0.110  -0.105
 -0.098  -0.093  -0.091  -0.089  -0.081  -0.078  -0.072  -0.069
 -0.067  -0.064  -0.060  -0.052  -0.046  -0.044  -0.039  -0.035
 -0.027  -0.024  -0.016  -0.014  -0.006  -0.004   0.002   0.005
  0.011   0.014   0.015   0.019   0.022   0.028   0.030   0.031
  0.036   0.038   0.043   0.045   0.047   0.049   0.050   0.057
  0.058   0.061   0.067   0.069   0.073   0.076   0.082   0.082
  0.087   0.094   0.098   0.103   0.105   0.110   0.116   0.119
  0.122   0.124   0.132   0.135   0.143   0.145   0.148   0.156
  0.159   0.168   0.172   0.176   0.179   0.188   0.192   0.198
  0.207   0.211   0.223   0.230   0.238   0.243   0.245   0.256
  0.265   0.273   0.277   0.291   0.305   0.325   0.351   0.362
  0.378   0.381   0.394   0.412   0.425   0.439   0.457   0.469
  0.476   0.493   0.498   0.508   0.512   0.517   0.520   0.522
  0.523   0.534   0.543   0.568   0.571   0.576   0.582   0.588
  0.597   0.599   0.605   0.608   0.618   0.641   0.656   0.662
  0.665   0.667   0.674   0.679   0.696   0.709   0.746   0.760
  0.795   0.801   0.804   0.811   0.816   0.824   0.831   0.838
  0.856   0.862   0.866   0.873   0.879   0.891   0.902   0.913
  0.921   0.937   0.944   0.947   0.962   0.971   0.980   0.990
  1.008   1.028   1.035   1.049   1.064   1.071   1.106   1.119
  1.131   1.151   1.154   1.181   1.191   1.198   1.201   1.217
  1.219   1.228   1.243   1.271   1.277   1.310   1.320   1.368
  1.386   1.418   1.468   1.475   1.500   1.536   1.561   1.566
  1.671   1.699   1.716   1.732   1.756   1.768   1.787   1.795
  1.827   1.835   1.855   1.866   1.873   1.899   1.919   1.947
  1.956   1.965   1.995   2.018   2.028   2.051   2.058   2.089
  2.097   2.097   2.151   2.172   2.187   2.209   2.236   2.240
  2.272   2.298   2.317   2.329   2.335   2.342   2.375   2.391
  2.397   2.400   2.424   2.439   2.453   2.466   2.475   2.511
  2.530   2.557   2.578   2.580   2.597   2.679   2.696   2.719
  2.769   2.786   2.830   2.838   3.017   3.062   3.112   3.163
  3.163   3.205   3.298   3.300   3.559   3.625   3.635   3.810
  3.852   3.863   4.104   4.122   4.167   4.170   4.191   4.195
  4.231   4.323   4.413   4.504   4.565   4.584
 
 Beta MOs
 -- Occupied --
-89.086 -89.066 -89.063 -10.405 -10.401 -10.388 -10.388 -10.372
-10.370 -10.357 -10.357 -10.349 -10.347 -10.340 -10.340  -8.145
 -8.127  -8.123  -6.110  -6.106  -6.102  -6.091  -6.087  -6.087
 -6.083  -6.083  -6.080  -1.076  -1.049  -1.035  -0.951  -0.916
 -0.896  -0.891  -0.887  -0.841  -0.771  -0.747  -0.713  -0.701
 -0.691  -0.677  -0.674  -0.656  -0.605  -0.582  -0.572  -0.569
 -0.563  -0.549  -0.543  -0.543  -0.535  -0.518  -0.515  -0.507
 -0.491  -0.488  -0.441  -0.421  -0.402  -0.400  -0.380
 -- Virtual --
 -0.299  -0.207  -0.161  -0.147  -0.128  -0.117  -0.113  -0.104
 -0.101  -0.096  -0.093  -0.090  -0.082  -0.080  -0.077  -0.069
 -0.067  -0.065  -0.062  -0.057  -0.051  -0.045  -0.042  -0.039
 -0.034  -0.026  -0.023  -0.015  -0.013  -0.005  -0.003   0.003
  0.006   0.012   0.014   0.015   0.019   0.023   0.029   0.030
  0.032   0.036   0.039   0.044   0.046   0.048   0.050   0.051
  0.058   0.059   0.062   0.068   0.070   0.073   0.077   0.082
  0.083   0.088   0.095   0.099   0.104   0.105   0.110   0.117
  0.120   0.122   0.125   0.133   0.135   0.144   0.146   0.148
  0.157   0.159   0.169   0.174   0.177   0.180   0.189   0.193
  0.200   0.209   0.212   0.224   0.231   0.239   0.244   0.246
  0.257   0.267   0.274   0.279   0.293   0.306   0.326   0.353
  0.363   0.378   0.381   0.394   0.414   0.427   0.440   0.458
  0.470   0.477   0.496   0.502   0.513   0.515   0.520   0.522
  0.527   0.530   0.535   0.545   0.572   0.572   0.579   0.583
  0.592   0.598   0.602   0.608   0.612   0.620   0.647   0.658
  0.665   0.667   0.669   0.676   0.683   0.701   0.713   0.748
  0.761   0.796   0.802   0.806   0.812   0.818   0.827   0.834
  0.840   0.858   0.862   0.867   0.875   0.880   0.893   0.903
  0.914   0.922   0.938   0.945   0.948   0.963   0.973   0.981
  0.991   1.009   1.031   1.038   1.052   1.066   1.075   1.109
  1.122   1.135   1.153   1.159   1.185   1.193   1.202   1.205
  1.222   1.224   1.232   1.245   1.273   1.283   1.313   1.324
  1.372   1.392   1.423   1.471   1.480   1.505   1.539   1.571
  1.575   1.674   1.700   1.719   1.735   1.758   1.769   1.789
  1.796   1.831   1.839   1.858   1.870   1.876   1.902   1.922
  1.950   1.957   1.972   2.001   2.025   2.035   2.056   2.066
  2.095   2.102   2.103   2.157   2.175   2.192   2.212   2.238
  2.242   2.277   2.302   2.320   2.332   2.339   2.346   2.377
  2.394   2.400   2.404   2.428   2.441   2.456   2.469   2.478
  2.513   2.534   2.559   2.580   2.583   2.599   2.682   2.700
  2.723   2.770   2.788   2.832   2.840   3.018   3.063   3.113
  3.163   3.164   3.205   3.299   3.301   3.560   3.627   3.636
  3.810   3.852   3.864   4.108   4.125   4.172   4.173   4.193
  4.197   4.236   4.327   4.417   4.507   4.568   4.587
 --------------------------------------------------------------
 
          Ground-State Mulliken Net Atomic Charges

     Atom                 Charge (a.u.)    Spin (a.u.)
  --------------------------------------------------------
      1 H                     0.248684      -0.011365
      2 H                     0.154649       0.001477
      3 C                     0.083311       0.229944
      4 C                    -0.359806      -0.043723
      5 S                    -0.082549      -0.028400
      6 C                     0.522312       0.144650
      7 H                     0.137350      -0.009043
      8 C                     0.177077       0.037407
      9 H                     0.057420      -0.005330
     10 C                    -0.029892       0.177144
     11 C                    -0.521131       0.054033
     12 S                     0.107093      -0.045884
     13 C                    -0.100022       0.029623
     14 H                     0.114704      -0.002328
     15 C                     0.035368       0.185759
     16 C                    -0.100931       0.038311
     17 H                     0.112654      -0.008755
     18 C                     0.245550       0.131503
     19 S                     0.095207      -0.031619
     20 C                    -0.322039      -0.044507
     21 C                     0.029602       0.210255
     22 H                     0.159439       0.002222
     23 H                     0.235949      -0.011374
  --------------------------------------------------------
  Sum of atomic charges =     1.000000
  Sum of spin   charges =     1.000000

 -----------------------------------------------------------------
                    Cartesian Multipole Moments
 -----------------------------------------------------------------
    Charge (ESU x 10^10)
                 4.8032
    Dipole Moment (Debye)
         X      29.0845      Y      -1.6707      Z      -0.3707
       Tot      29.1348
    Quadrupole Moments (Debye-Ang)
        XX     160.1108     XY      -5.0329     YY     -91.0031
        XZ       0.1404     YZ       6.2024     ZZ    -108.1543
    Octopole Moments (Debye-Ang^2)
       XXX     769.0850    XXY       6.2859    XYY    -567.4590
       YYY     146.0946    XXZ      25.7654    XYZ      41.8556
       YYZ      12.9752    XZZ    -656.0380    YZZ      55.1051
       ZZZ      56.1793
    Hexadecapole Moments (Debye-Ang^3)
      XXXX   -1430.5329   XXXY     323.0516   XXYY   -4674.2042
      XYYY     950.4456   YYYY    -856.9270   XXXZ     372.2717
      XXYZ     338.5404   XYYZ      93.9900   YYYZ     -98.7665
      XXZZ   -5243.1162   XYZZ     334.9462   YYZZ    -191.4416
      XZZZ     315.7553   YZZZ    -131.9210   ZZZZ    -234.2711
 -----------------------------------------------------------------
 Calculating analytic gradient of the SCF energy
 Gradient of SCF Energy
            1           2           3           4           5           6
    1   0.0068425   0.0045594  -0.0045456  -0.0000234   0.0027036   0.0236090
    2  -0.0034367   0.0048210   0.0020189   0.0120062  -0.0265494   0.0107866
    3  -0.0011425   0.0010508  -0.0000310   0.0037970  -0.0056770   0.0033871
            7           8           9          10          11          12
    1  -0.0015559  -0.0212468  -0.0024591   0.0464641  -0.0662934   0.0025496
    2   0.0061662   0.0628886  -0.0060668  -0.0466512  -0.0321547   0.0396984
    3   0.0005675   0.0115081  -0.0005917  -0.0077382  -0.0089323   0.0089148
           13          14          15          16          17          18
    1   0.0333622   0.0017238  -0.0241846   0.0233155  -0.0028737  -0.0195933
    2  -0.0224691  -0.0045417  -0.0015338   0.0081134  -0.0029323  -0.0142927
    3  -0.0078621   0.0020102   0.0067943  -0.0029100  -0.0047602  -0.0045100
           19          20          21          22          23
    1   0.0027236   0.0024157   0.0033173  -0.0039120  -0.0068987
    2   0.0237807  -0.0086800   0.0006975  -0.0044254   0.0027560
    3   0.0118686  -0.0037392  -0.0009832  -0.0028688   0.0018476
 Max gradient component =       6.629E-02
 RMS gradient           =       1.803E-02
 Gradient time:  CPU 4.22 s  wall 4.23 s
 Geometry Optimization Parameters
   NAtoms,    NIC,     NZ,  NCons,   NDum,   NFix, NCnnct, MaxDiis
       23     166       0       1       0       0       0       0


** CONSTRAINED OPTIMIZATION IN DELOCALIZED INTERNAL COORDINATES **
   Searching for a Minimum

   Optimization Cycle:   1

                       Coordinates (Angstroms)
     ATOM                X               Y               Z
      1  H         0.0000000000    0.0000000000    0.0000000000
      2  H         0.6636600000   -2.4682800000   -0.5912700000
      3  C         0.9910300000   -0.3910600000   -0.1165200000
      4  C         1.3681200000   -1.6744200000   -0.4248500000
      5  S         2.3466900000    0.6258600000    0.0863800000
      6  C         2.7616700000   -1.8217500000   -0.5082200000
      7  H         3.2629100000   -2.7387700000   -0.7619900000
      8  C         3.4467100000   -0.6504300000   -0.2605700000
      9  H         4.5564500000    1.4390267100    0.1570438500
     10  C         4.8838200000   -0.6504300000   -0.2605700000
     11  C         5.2609100000    0.6409019400    0.0124539000
     12  S         6.2394800000   -1.6725311300   -0.4355093900
     13  C         6.6544600000    0.7904624800    0.0917531100
     14  H         7.1557000000    1.7140965300    0.3202821300
     15  C         7.3395000000   -0.3872077300   -0.1236860000
     16  C         8.7766100000   -0.3872077300   -0.1236860000
     17  H         8.9604100000    1.4947646400    0.9110914800
     18  C         9.4616500000    0.6457560500    0.4815476400
     19  S         9.8766300000   -1.5646405000   -0.7261326400
     20  C        10.8552000000    0.4806804500    0.4440409700
     21  C        11.2322900000   -0.6759870600   -0.1917261200
     22  H        11.5596600000    1.1798104200    0.8552905200
     23  H        12.2233200000   -1.0436318500   -0.3687648200
   Point Group: c1    Number of degrees of freedom:    63


   Energy is  -1656.370878466

              Constraints and their Current Values
                                        Value     Constraint
   Dihedral:       13  15  16  18       20.000       20.000

 Attempting to Generate Delocalized Internal Coordinates

 62 Hessian modes will be used to form the next step
  Hessian Eigenvalues:
     0.045000    0.045000    0.045000    0.045000    0.045000    0.045000
     0.045001    0.045001    0.045001    0.045002    0.045003    0.045003
     0.045011    0.045012    0.045012    0.045025    0.045032    0.045058
     0.045059    0.159944    0.159945    0.159945    0.159992    0.159993
     0.159993    0.160000    0.160000    0.221307    0.221308    0.227041
     0.237995    0.238010    0.245411    0.249662    0.249670    0.249670
     0.249825    0.326317    0.326319    0.326962    0.340043    0.340044
     0.340629    0.365512    0.365512    0.365513    0.366888    0.366889
     0.366889    0.370099    0.370100    0.399845    0.399845    0.435419
     0.435419    0.435422    0.463117    0.463122    0.464282    0.495500
     0.495500    0.495533

 Minimum Search - Taking Simple RFO Step
 Searching for Lamda that Minimizes Along All modes
 Value Taken    Lamda =  -0.07149242
 Calculated Step too Large.  Step scaled by  0.661135
 Step Taken.  Stepsize is  0.300000

                             Maximum     Tolerance    Cnvgd?
         Gradient           0.094759      0.000300      NO
         Displacement       0.191379      0.001200      NO
         Energy change     *********      0.000001      NO


 New Cartesian Coordinates Obtained by Inverse Iteration

 Displacement from previous Coordinates is:  2.327883
 ----------------------------------------------------------------
             Standard Nuclear Orientation (Angstroms)
    I     Atom           X                Y                Z
 ----------------------------------------------------------------
    1      H      -0.1296929127    -0.3412778467    -0.0959430717
    2      H       0.8190993170    -2.7361060911    -0.6522910793
    3      C       0.9077853053    -0.6207867560    -0.1812922295
    4      C       1.4295878006    -1.8641898194    -0.4712421870
    5      S       2.1281675540     0.5618848536     0.0556325663
    6      C       2.8331038071    -1.8494714232    -0.5104396957
    7      H       3.4400055042    -2.7127955310    -0.7416544498
    8      C       3.3881555110    -0.5925577081    -0.2488912605
    9      H       4.5789220875     1.7537700927     0.2020885395
   10      C       4.8178723594    -0.3899776235    -0.2010070810
   11      C       5.2509290829     0.9236086210     0.0660095523
   12      S       6.1740291378    -1.4338615867    -0.3613928844
   13      C       6.6383397415     1.0533017544     0.1453808157
   14      H       7.1474033953     1.9788229310     0.3585330566
   15      C       7.3072747631    -0.1566568948    -0.0597447218
   16      C       8.7402382643    -0.2784950847    -0.0763049994
   17      H       9.2440910096     1.5859195574     0.9415995220
   18      C       9.5943846520     0.6697879131     0.4949267178
   19      S       9.6526246387    -1.6098206018    -0.7078207329
   20      C      10.9499653491     0.3160543459     0.4045239229
   21      C      11.1357220366    -0.8938065361    -0.2319762449
   22      H      11.7633132191     0.9178785446     0.7809400068
   23      H      12.0655583766    -1.3962118905    -0.4432454319
 ----------------------------------------------------------------
 Nuclear Repulsion Energy =  1178.7897908657 hartrees
 There are       64 alpha and       63 beta electrons
 Applying Cartesian multipole field
    Component          Value
    ---------          -----
     (2,0,0)        1.00000E-12
     (0,2,0)        2.00000E-11
     (0,0,2)       -3.00000E-11
 Nucleus-field energy     =     0.0000000322 hartrees
 Requested basis set is 6-31++G(d,p)
 There are 110 shells and 345 basis functions
 A cutoff of  1.0D-12 yielded   4696 shell pairs
 There are     47867 function pairs

 Q-Chem warning in module /project/projectdirs/jcesr/qchem/qc44/cnl_qc441/compile/cori/qc_src/libqints/qchem/aobasis.C, line 68:

 Using reconstructed effective core potential

 Smallest overlap matrix eigenvalue = 8.33E-08
 Linear dependence detected in AO basis
 Number of orthogonalized atomic orbitals = 342
 Maximum deviation from orthogonality = 9.920E-11
 Guess MOs from SCF MO coefficient file
 Reading MOs from coefficient file
 Reading MOs from coefficient file
 An unrestricted hybrid HF-DFT SCF calculation will be
 performed using Pulay DIIS extrapolation
 Exchange:     0.2000 Hartree-Fock + 0.0800 Slater + 0.7200 B88
 Correlation:  0.1900 VWN1RPA + 0.8100 LYP
 Using SG-1 standard quadrature grid
 SCF converges when DIIS error is below 1.0E-08
 Geometry optimization detected.  Setting ReadMinima to 0
 Setting SaveMinima to 0
 Inaccurate integrated density:
   Number of electrons =   127
   Numerical integral  =   126.817242580427
   Relative error      =    -0.1439034800 %
 ---------------------------------------
  Cycle       Energy         DIIS Error
 ---------------------------------------
    1   -1656.1481521718      6.74E-03
    2   -1656.3683232721      1.41E-03
    3   -1656.2810595537      2.65E-03
    4   -1656.3988585674      4.82E-04
    5   -1656.4027381577      1.46E-04
    6   -1656.4030874540      4.74E-05
    7   -1656.4031210986      1.96E-05
    8   -1656.4031273800      4.56E-06
    9   -1656.4031277211      1.85E-06
   10   -1656.4031278014      5.61E-07
   11   -1656.4031278258      3.03E-07
   12   -1656.4031278330      9.54E-08
   13   -1656.4031278360      9.33E-08
   14   -1656.4031278387      3.25E-08
   15   -1656.4031278387      1.90E-08
   16   -1656.4031278385      8.27E-09 Convergence criterion met
 ---------------------------------------
 <S^2> = 0.7685
 SCF time:  CPU 22.67 s  wall 21.15 s
 SCF   energy in the final basis set = -1656.4031278385
 Total energy in the final basis set = -1656.4031278385
 
 --------------------------------------------------------------
 
                    Orbital Energies (a.u.)
 --------------------------------------------------------------
 
 Alpha MOs
 -- Occupied --
-89.081 -89.066 -89.064 -10.410 -10.409 -10.391 -10.390 -10.377
-10.375 -10.362 -10.362 -10.355 -10.353 -10.342 -10.341  -8.140
 -8.126  -8.124  -6.105  -6.101  -6.097  -6.090  -6.088  -6.086
 -6.084  -6.083  -6.081  -1.070  -1.045  -1.033  -0.946  -0.912
 -0.895  -0.892  -0.887  -0.845  -0.771  -0.746  -0.712  -0.705
 -0.689  -0.679  -0.674  -0.652  -0.607  -0.576  -0.575  -0.568
 -0.562  -0.549  -0.547  -0.546  -0.532  -0.525  -0.522  -0.511
 -0.494  -0.490  -0.456  -0.421  -0.406  -0.403  -0.397  -0.350
 -- Virtual --
 -0.226  -0.174  -0.149  -0.133  -0.124  -0.113  -0.111  -0.103
 -0.100  -0.093  -0.091  -0.087  -0.081  -0.079  -0.073  -0.069
 -0.065  -0.063  -0.060  -0.052  -0.046  -0.043  -0.039  -0.035
 -0.027  -0.023  -0.015  -0.013  -0.006  -0.004   0.002   0.006
  0.011   0.013   0.014   0.018   0.024   0.027   0.029   0.030
  0.034   0.037   0.042   0.045   0.046   0.049   0.050   0.054
  0.057   0.061   0.067   0.068   0.072   0.075   0.079   0.081
  0.088   0.091   0.095   0.100   0.102   0.110   0.116   0.116
  0.120   0.122   0.129   0.132   0.140   0.143   0.150   0.154
  0.161   0.162   0.167   0.178   0.182   0.189   0.191   0.197
  0.202   0.210   0.221   0.231   0.233   0.239   0.248   0.249
  0.260   0.268   0.272   0.281   0.304   0.322   0.346   0.356
  0.376   0.380   0.397   0.399   0.425   0.436   0.444   0.460
  0.471   0.479   0.498   0.504   0.511   0.514   0.519   0.522
  0.523   0.530   0.542   0.559   0.566   0.572   0.583   0.586
  0.590   0.595   0.602   0.605   0.618   0.635   0.647   0.655
  0.663   0.664   0.678   0.681   0.696   0.708   0.734   0.757
  0.795   0.799   0.803   0.812   0.814   0.821   0.827   0.839
  0.847   0.851   0.861   0.869   0.877   0.881   0.895   0.905
  0.920   0.927   0.935   0.943   0.961   0.966   0.976   0.980
  1.005   1.022   1.029   1.040   1.056   1.066   1.096   1.115
  1.126   1.140   1.151   1.186   1.194   1.200   1.203   1.208
  1.215   1.222   1.223   1.275   1.292   1.314   1.323   1.365
  1.390   1.414   1.444   1.470   1.508   1.522   1.558   1.562
  1.667   1.693   1.700   1.739   1.757   1.767   1.781   1.786
  1.811   1.818   1.835   1.857   1.864   1.875   1.903   1.926
  1.937   1.949   1.978   2.008   2.012   2.037   2.048   2.072
  2.082   2.099   2.120   2.133   2.167   2.188   2.229   2.234
  2.262   2.296   2.310   2.320   2.323   2.337   2.359   2.374
  2.384   2.396   2.396   2.415   2.435   2.452   2.471   2.491
  2.525   2.541   2.569   2.576   2.590   2.661   2.696   2.726
  2.752   2.779   2.803   2.831   3.000   3.047   3.087   3.150
  3.153   3.196   3.281   3.286   3.534   3.606   3.618   3.805
  3.844   3.867   4.103   4.116   4.156   4.167   4.182   4.192
  4.228   4.317   4.403   4.494   4.557   4.584
 
 Beta MOs
 -- Occupied --
-89.081 -89.067 -89.064 -10.407 -10.406 -10.390 -10.390 -10.374
-10.372 -10.361 -10.361 -10.353 -10.351 -10.342 -10.342  -8.141
 -8.126  -8.124  -6.105  -6.101  -6.098  -6.090  -6.088  -6.086
 -6.084  -6.083  -6.081  -1.066  -1.042  -1.029  -0.941  -0.911
 -0.891  -0.891  -0.886  -0.837  -0.767  -0.743  -0.709  -0.702
 -0.687  -0.676  -0.672  -0.650  -0.606  -0.574  -0.566  -0.565
 -0.560  -0.548  -0.544  -0.538  -0.530  -0.523  -0.512  -0.510
 -0.493  -0.489  -0.437  -0.419  -0.402  -0.400  -0.379
 -- Virtual --
 -0.297  -0.210  -0.163  -0.147  -0.127  -0.119  -0.112  -0.103
 -0.102  -0.098  -0.092  -0.090  -0.081  -0.080  -0.078  -0.070
 -0.066  -0.064  -0.061  -0.059  -0.051  -0.044  -0.042  -0.039
 -0.034  -0.026  -0.022  -0.015  -0.012  -0.005  -0.004   0.004
  0.007   0.012   0.014   0.015   0.019   0.025   0.028   0.030
  0.031   0.035   0.038   0.043   0.046   0.047   0.050   0.051
  0.054   0.058   0.062   0.067   0.069   0.073   0.075   0.080
  0.082   0.089   0.092   0.095   0.101   0.102   0.111   0.117
  0.118   0.121   0.123   0.130   0.133   0.141   0.145   0.150
  0.155   0.162   0.163   0.168   0.179   0.183   0.190   0.192
  0.198   0.203   0.211   0.222   0.233   0.234   0.240   0.248
  0.250   0.261   0.270   0.273   0.283   0.305   0.323   0.348
  0.357   0.376   0.381   0.397   0.401   0.427   0.437   0.445
  0.461   0.472   0.481   0.500   0.509   0.516   0.518   0.521
  0.526   0.530   0.532   0.543   0.560   0.568   0.574   0.584
  0.590   0.592   0.595   0.605   0.611   0.620   0.641   0.648
  0.656   0.664   0.668   0.681   0.683   0.700   0.712   0.735
  0.758   0.796   0.801   0.805   0.814   0.815   0.825   0.830
  0.840   0.848   0.852   0.862   0.871   0.878   0.882   0.896
  0.906   0.922   0.928   0.936   0.945   0.962   0.967   0.977
  0.981   1.006   1.025   1.032   1.044   1.060   1.070   1.098
  1.118   1.130   1.143   1.156   1.190   1.197   1.203   1.206
  1.211   1.221   1.224   1.227   1.277   1.298   1.317   1.327
  1.369   1.396   1.418   1.448   1.475   1.514   1.525   1.567
  1.571   1.670   1.694   1.705   1.740   1.759   1.768   1.783
  1.788   1.816   1.823   1.839   1.861   1.868   1.878   1.906
  1.932   1.941   1.952   1.983   2.014   2.019   2.043   2.054
  2.079   2.088   2.105   2.123   2.139   2.170   2.192   2.232
  2.236   2.267   2.299   2.314   2.323   2.325   2.340   2.361
  2.376   2.389   2.397   2.399   2.419   2.438   2.455   2.474
  2.494   2.528   2.542   2.573   2.579   2.592   2.664   2.700
  2.729   2.753   2.780   2.805   2.833   3.001   3.048   3.088
  3.150   3.153   3.196   3.282   3.287   3.535   3.608   3.619
  3.805   3.844   3.867   4.107   4.119   4.159   4.172   4.185
  4.194   4.233   4.321   4.408   4.497   4.560   4.587
 --------------------------------------------------------------
 
          Ground-State Mulliken Net Atomic Charges

     Atom                 Charge (a.u.)    Spin (a.u.)
  --------------------------------------------------------
      1 H                     0.245339      -0.011395
      2 H                     0.159934       0.001707
      3 C                     0.068045       0.223528
      4 C                    -0.295691      -0.042668
      5 S                    -0.007905      -0.028260
      6 C                     0.437783       0.141395
      7 H                     0.138218      -0.009257
      8 C                    -0.024526       0.033584
      9 H                     0.111411      -0.005369
     10 C                     0.005444       0.182194
     11 C                    -0.345866       0.059100
     12 S                    -0.105792      -0.053843
     13 C                     0.003883       0.034840
     14 H                     0.133336      -0.002821
     15 C                     0.016256       0.186394
     16 C                    -0.160498       0.031386
     17 H                     0.128234      -0.009103
     18 C                     0.275731       0.138972
     19 S                     0.073047      -0.031189
     20 C                    -0.313247      -0.047144
     21 C                     0.057504       0.217305
     22 H                     0.160154       0.002201
     23 H                     0.239208      -0.011558
  --------------------------------------------------------
  Sum of atomic charges =     1.000000
  Sum of spin   charges =     1.000000

 -----------------------------------------------------------------
                    Cartesian Multipole Moments
 -----------------------------------------------------------------
    Charge (ESU x 10^10)
                 4.8032
    Dipole Moment (Debye)
         X      29.0741      Y      -1.6006      Z      -0.3459
       Tot      29.1201
    Quadrupole Moments (Debye-Ang)
        XX     160.7526     XY      -4.0797     YY     -89.4822
        XZ       0.8893     YZ       6.4622     ZZ    -108.6345
    Octopole Moments (Debye-Ang^2)
       XXX     790.1104    XXY      -3.0434    XYY    -551.0044
       YYY     136.5942    XXZ      31.4687    XYZ      43.8897
       YYZ      11.3235    XZZ    -652.2561    YZZ      51.8447
       ZZZ      52.6944
    Hexadecapole Moments (Debye-Ang^3)
      XXXX   -1088.4291   XXXY      65.6669   XXYY   -4507.3584
      XYYY     871.2270   YYYY    -855.2667   XXXZ     406.0126
      XXYZ     361.7911   XYYZ      75.9485   YYYZ     -90.5547
      XXZZ   -5186.5354   XYZZ     306.3604   YYZZ    -193.9065
      XZZZ     272.5563   YZZZ    -128.4742   ZZZZ    -230.0245
 -----------------------------------------------------------------
 Calculating analytic gradient of the SCF energy
 Gradient of SCF Energy
            1           2           3           4           5           6
    1   0.0030985   0.0013780  -0.0023252  -0.0028171   0.0002258   0.0092341
    2  -0.0014068   0.0019739   0.0001664   0.0038519  -0.0153695   0.0038613
    3  -0.0005636   0.0004654  -0.0003140   0.0016841  -0.0027887   0.0021460
            7           8           9          10          11          12
    1  -0.0009721  -0.0276940   0.0034170   0.0347490  -0.0283248   0.0006023
    2   0.0029499   0.0388777  -0.0029506  -0.0436236  -0.0067607   0.0273734
    3  -0.0001811   0.0060034  -0.0000905  -0.0073599  -0.0030173   0.0056771
           13          14          15          16          17          18
    1   0.0198436  -0.0009335  -0.0192149   0.0173966   0.0004369  -0.0077647
    2  -0.0054315  -0.0032441  -0.0023265  -0.0025042  -0.0021545  -0.0032407
    3  -0.0047402   0.0010571   0.0053760  -0.0065483  -0.0029943   0.0022490
           19          20          21          22          23
    1   0.0018341   0.0014796   0.0009474  -0.0017896  -0.0028068
    2   0.0129997  -0.0036089   0.0005225  -0.0014776   0.0015226
    3   0.0061988  -0.0011019  -0.0011222  -0.0010743   0.0010396
 Max gradient component =       4.362E-02
 RMS gradient           =       1.148E-02
 Gradient time:  CPU 4.21 s  wall 4.18 s
 Geometry Optimization Parameters
   NAtoms,    NIC,     NZ,  NCons,   NDum,   NFix, NCnnct, MaxDiis
       23     166       0       1       0       0       0       0

 Cartesian Hessian Update
 Hessian Updated using BFGS Update


** CONSTRAINED OPTIMIZATION IN DELOCALIZED INTERNAL COORDINATES **
   Searching for a Minimum

   Optimization Cycle:   2

                       Coordinates (Angstroms)
     ATOM                X               Y               Z
      1  H        -0.1296929127   -0.3412778467   -0.0959430717
      2  H         0.8190993170   -2.7361060911   -0.6522910793
      3  C         0.9077853053   -0.6207867560   -0.1812922295
      4  C         1.4295878006   -1.8641898194   -0.4712421870
      5  S         2.1281675540    0.5618848536    0.0556325663
      6  C         2.8331038071   -1.8494714232   -0.5104396957
      7  H         3.4400055042   -2.7127955310   -0.7416544498
      8  C         3.3881555110   -0.5925577081   -0.2488912605
      9  H         4.5789220875    1.7537700927    0.2020885395
     10  C         4.8178723594   -0.3899776235   -0.2010070810
     11  C         5.2509290829    0.9236086210    0.0660095523
     12  S         6.1740291378   -1.4338615867   -0.3613928844
     13  C         6.6383397415    1.0533017544    0.1453808157
     14  H         7.1474033953    1.9788229310    0.3585330566
     15  C         7.3072747631   -0.1566568948   -0.0597447218
     16  C         8.7402382643   -0.2784950847   -0.0763049994
     17  H         9.2440910096    1.5859195574    0.9415995220
     18  C         9.5943846520    0.6697879131    0.4949267178
     19  S         9.6526246387   -1.6098206018   -0.7078207329
     20  C        10.9499653491    0.3160543459    0.4045239229
     21  C        11.1357220366   -0.8938065361   -0.2319762449
     22  H        11.7633132191    0.9178785446    0.7809400068
     23  H        12.0655583766   -1.3962118905   -0.4432454319
   Point Group: c1    Number of degrees of freedom:    63


   Energy is  -1656.403127839

              Constraints and their Current Values
                                        Value     Constraint
   Dihedral:       13  15  16  18       20.000       20.000
 Hessian Updated using BFGS Update

 62 Hessian modes will be used to form the next step
  Hessian Eigenvalues:
     0.044967    0.045000    0.045000    0.045000    0.045000    0.045000
     0.045001    0.045001    0.045002    0.045003    0.045003    0.045006
     0.045011    0.045012    0.045019    0.045027    0.045050    0.045056
     0.045060    0.159598    0.159944    0.159949    0.159988    0.159993
     0.159996    0.160000    0.160746    0.199716    0.221309    0.221766
     0.228901    0.238010    0.239054    0.247194    0.249670    0.249699
     0.288349    0.323705    0.326483    0.327458    0.338802    0.340079
     0.340445    0.365094    0.365512    0.365620    0.366550    0.366889
     0.367313    0.369892    0.370100    0.399769    0.417470    0.434879
     0.435420    0.437093    0.462942    0.463143    0.470040    0.495138
     0.495501    0.568130

 Minimum Search - Taking Simple RFO Step
 Searching for Lamda that Minimizes Along All modes
 Value Taken    Lamda =  -0.02129473
 Calculated Step too Large.  Step scaled by  0.979574
 Step Taken.  Stepsize is  0.300000

                             Maximum     Tolerance    Cnvgd?
         Gradient           0.031554      0.000300      NO
         Displacement       0.118146      0.001200      NO
         Energy change     -0.032249      0.000001      NO


 New Cartesian Coordinates Obtained by Inverse Iteration

 Displacement from previous Coordinates is:  1.548080
 ----------------------------------------------------------------
             Standard Nuclear Orientation (Angstroms)
    I     Atom           X                Y                Z
 ----------------------------------------------------------------
    1      H      -0.0937722826    -0.5090004640    -0.1634746613
    2      H       0.9798442365    -2.8683727328    -0.6925508740
    3      C       0.9629838163    -0.7393139764    -0.2266791265
    4      C       1.5486790459    -1.9659286880    -0.5030370782
    5      S       2.1073015433     0.5211706247     0.0308693451
    6      C       2.9484330764    -1.8894565204    -0.5106967838
    7      H       3.6016029383    -2.7302652900    -0.7204139734
    8      C       3.4291809712    -0.5931564458    -0.2392096792
    9      H       4.5396559754     1.9457470737     0.2397638327
   10      C       4.7874430607    -0.2122441268    -0.1469802634
   11      C       5.2251630620     1.1131067082     0.1161243733
   12      S       6.1302940517    -1.3052179909    -0.3038047799
   13      C       6.5987465201     1.2271905878     0.1910522175
   14      H       7.1198766477     2.1567811675     0.3867632516
   15      C       7.2646127828    -0.0059980748    -0.0112472698
   16      C       8.6696173761    -0.2005385041    -0.0467987280
   17      H       9.3719562944     1.6290891855     0.9485019180
   18      C       9.6261112099     0.6795386789     0.4913883179
   19      S       9.4373806253    -1.6345672283    -0.6952568037
   20      C      10.9386652678     0.1995857465     0.3643285718
   21      C      10.9925298646    -1.0368127220    -0.2616455882
   22      H      11.8180876543     0.7283125658     0.7124571929
   23      H      11.8724862619    -1.6246363543    -0.4930647814
 ----------------------------------------------------------------
 Nuclear Repulsion Energy =  1182.8891709083 hartrees
 There are       64 alpha and       63 beta electrons
 Applying Cartesian multipole field
    Component          Value
    ---------          -----
     (2,0,0)        1.00000E-12
     (0,2,0)        2.00000E-11
     (0,0,2)       -3.00000E-11
 Nucleus-field energy     =     0.0000000324 hartrees
 Requested basis set is 6-31++G(d,p)
 There are 110 shells and 345 basis functions
 A cutoff of  1.0D-12 yielded   4685 shell pairs
 There are     47706 function pairs

 Q-Chem warning in module /project/projectdirs/jcesr/qchem/qc44/cnl_qc441/compile/cori/qc_src/libqints/qchem/aobasis.C, line 68:

 Using reconstructed effective core potential

 Smallest overlap matrix eigenvalue = 7.25E-08
 Linear dependence detected in AO basis
 Number of orthogonalized atomic orbitals = 342
 Maximum deviation from orthogonality = 9.090E-11
 Guess MOs from SCF MO coefficient file
 Reading MOs from coefficient file
 Reading MOs from coefficient file
 An unrestricted hybrid HF-DFT SCF calculation will be
 performed using Pulay DIIS extrapolation
 Exchange:     0.2000 Hartree-Fock + 0.0800 Slater + 0.7200 B88
 Correlation:  0.1900 VWN1RPA + 0.8100 LYP
 Using SG-1 standard quadrature grid
 SCF converges when DIIS error is below 1.0E-08
 Geometry optimization detected.  Setting ReadMinima to 0
 Setting SaveMinima to 0
 ---------------------------------------
  Cycle       Energy         DIIS Error
 ---------------------------------------
    1   -1656.3076433323      4.17E-03
    2   -1656.4027831342      8.19E-04
    3   -1656.3668515790      1.66E-03
    4   -1656.4141363967      2.22E-04
    5   -1656.4149224344      8.16E-05
    6   -1656.4150361121      2.40E-05
    7   -1656.4150451788      1.04E-05
    8   -1656.4150470031      3.25E-06
    9   -1656.4150472391      1.38E-06
   10   -1656.4150473127      3.95E-07
   11   -1656.4150473514      3.00E-07
   12   -1656.4150473691      1.43E-07
   13   -1656.4150473798      8.74E-08
   14   -1656.4150473854      3.83E-08
   15   -1656.4150473859      1.39E-08
   16   -1656.4150473854      8.99E-09 Convergence criterion met
 ---------------------------------------
 <S^2> = 0.7711
 SCF time:  CPU 22.78 s  wall 21.14 s
 SCF   energy in the final basis set = -1656.4150473854
 Total energy in the final basis set = -1656.4150473854
 
 --------------------------------------------------------------
 
                    Orbital Energies (a.u.)
 --------------------------------------------------------------
 
 Alpha MOs
 -- Occupied --
-89.077 -89.066 -89.064 -10.409 -10.408 -10.389 -10.389 -10.378
-10.377 -10.366 -10.365 -10.357 -10.357 -10.345 -10.343  -8.136
 -8.125  -8.124  -6.101  -6.097  -6.093  -6.089  -6.088  -6.085
 -6.084  -6.082  -6.081  -1.066  -1.041  -1.027  -0.944  -0.915
 -0.893  -0.893  -0.884  -0.839  -0.771  -0.748  -0.710  -0.706
 -0.689  -0.677  -0.673  -0.643  -0.606  -0.574  -0.572  -0.568
 -0.558  -0.550  -0.546  -0.545  -0.534  -0.522  -0.519  -0.514
 -0.496  -0.491  -0.454  -0.423  -0.407  -0.405  -0.395  -0.345
 -- Virtual --
 -0.231  -0.177  -0.156  -0.133  -0.127  -0.113  -0.111  -0.104
 -0.096  -0.093  -0.091  -0.083  -0.081  -0.079  -0.073  -0.068
 -0.065  -0.063  -0.060  -0.051  -0.045  -0.043  -0.039  -0.032
 -0.027  -0.022  -0.015  -0.011  -0.006  -0.004   0.003   0.006
  0.010   0.013   0.014   0.018   0.024   0.028   0.029   0.031
  0.034   0.036   0.042   0.044   0.046   0.048   0.051   0.054
  0.056   0.061   0.066   0.070   0.071   0.076   0.082   0.083
  0.086   0.092   0.094   0.098   0.101   0.110   0.114   0.118
  0.120   0.123   0.129   0.131   0.136   0.139   0.151   0.153
  0.160   0.162   0.168   0.174   0.182   0.188   0.191   0.198
  0.202   0.211   0.219   0.231   0.238   0.239   0.246   0.250
  0.254   0.265   0.267   0.281   0.309   0.323   0.340   0.363
  0.377   0.381   0.397   0.400   0.428   0.437   0.445   0.454
  0.468   0.473   0.493   0.507   0.509   0.515   0.516   0.522
  0.525   0.532   0.546   0.553   0.564   0.572   0.582   0.587
  0.591   0.594   0.602   0.607   0.618   0.634   0.642   0.651
  0.667   0.672   0.683   0.694   0.699   0.710   0.737   0.757
  0.792   0.795   0.802   0.809   0.815   0.817   0.827   0.836
  0.844   0.848   0.857   0.866   0.877   0.878   0.893   0.898
  0.911   0.922   0.932   0.943   0.957   0.966   0.968   0.976
  1.004   1.023   1.032   1.039   1.060   1.071   1.093   1.112
  1.125   1.136   1.147   1.183   1.192   1.200   1.203   1.210
  1.216   1.219   1.222   1.303   1.313   1.325   1.343   1.368
  1.397   1.415   1.443   1.473   1.518   1.525   1.556   1.561
  1.661   1.682   1.711   1.728   1.754   1.770   1.778   1.793
  1.793   1.818   1.820   1.856   1.858   1.871   1.908   1.914
  1.932   1.943   1.974   2.005   2.010   2.035   2.047   2.067
  2.087   2.091   2.117   2.122   2.158   2.182   2.225   2.230
  2.260   2.292   2.297   2.308   2.317   2.333   2.347   2.365
  2.380   2.385   2.391   2.415   2.427   2.443   2.470   2.483
  2.523   2.538   2.565   2.572   2.585   2.654   2.717   2.732
  2.750   2.781   2.804   2.830   2.984   3.038   3.080   3.139
  3.142   3.173   3.269   3.274   3.524   3.597   3.607   3.800
  3.840   3.871   4.110   4.116   4.155   4.168   4.180   4.192
  4.234   4.321   4.403   4.494   4.558   4.589
 
 Beta MOs
 -- Occupied --
-89.077 -89.066 -89.064 -10.407 -10.405 -10.389 -10.389 -10.375
-10.373 -10.365 -10.364 -10.355 -10.355 -10.345 -10.343  -8.137
 -8.125  -8.124  -6.101  -6.097  -6.093  -6.089  -6.088  -6.086
 -6.084  -6.082  -6.081  -1.062  -1.038  -1.023  -0.939  -0.914
 -0.892  -0.890  -0.882  -0.831  -0.767  -0.745  -0.708  -0.704
 -0.687  -0.674  -0.672  -0.641  -0.605  -0.571  -0.567  -0.563
 -0.556  -0.548  -0.544  -0.537  -0.532  -0.520  -0.513  -0.508
 -0.496  -0.490  -0.436  -0.421  -0.403  -0.401  -0.378
 -- Virtual --
 -0.292  -0.214  -0.166  -0.154  -0.128  -0.121  -0.113  -0.103
 -0.102  -0.095  -0.092  -0.091  -0.081  -0.078  -0.074  -0.070
 -0.066  -0.064  -0.060  -0.059  -0.050  -0.043  -0.042  -0.038
 -0.031  -0.026  -0.021  -0.015  -0.010  -0.006  -0.003   0.004
  0.007   0.011   0.013   0.015   0.018   0.025   0.029   0.029
  0.032   0.034   0.037   0.042   0.044   0.047   0.049   0.052
  0.055   0.058   0.062   0.066   0.071   0.072   0.077   0.083
  0.084   0.087   0.093   0.095   0.100   0.102   0.110   0.115
  0.119   0.120   0.124   0.130   0.132   0.137   0.140   0.152
  0.154   0.161   0.163   0.168   0.175   0.183   0.189   0.192
  0.200   0.203   0.212   0.220   0.232   0.239   0.240   0.247
  0.250   0.256   0.266   0.269   0.282   0.310   0.324   0.341
  0.363   0.378   0.381   0.399   0.401   0.429   0.438   0.447
  0.455   0.470   0.474   0.495   0.513   0.514   0.517   0.519
  0.526   0.531   0.535   0.547   0.555   0.567   0.574   0.584
  0.589   0.592   0.594   0.606   0.613   0.620   0.640   0.644
  0.652   0.668   0.675   0.687   0.696   0.702   0.714   0.738
  0.758   0.794   0.797   0.803   0.810   0.816   0.821   0.829
  0.837   0.846   0.849   0.858   0.868   0.878   0.879   0.894
  0.899   0.913   0.923   0.933   0.944   0.958   0.967   0.969
  0.977   1.005   1.027   1.035   1.042   1.063   1.075   1.095
  1.115   1.129   1.140   1.151   1.185   1.196   1.203   1.206
  1.212   1.220   1.223   1.228   1.305   1.318   1.328   1.346
  1.372   1.403   1.419   1.447   1.478   1.524   1.530   1.565
  1.570   1.667   1.683   1.712   1.731   1.755   1.770   1.780
  1.795   1.799   1.822   1.823   1.860   1.862   1.874   1.914
  1.917   1.937   1.944   1.980   2.012   2.016   2.041   2.052
  2.073   2.091   2.094   2.122   2.129   2.162   2.187   2.228
  2.233   2.265   2.296   2.300   2.311   2.321   2.336   2.350
  2.368   2.384   2.386   2.395   2.419   2.430   2.446   2.472
  2.487   2.526   2.539   2.568   2.575   2.587   2.657   2.721
  2.734   2.753   2.783   2.806   2.832   2.985   3.039   3.081
  3.140   3.142   3.173   3.270   3.275   3.525   3.598   3.608
  3.800   3.840   3.871   4.114   4.120   4.158   4.173   4.183
  4.194   4.239   4.325   4.408   4.497   4.561   4.592
 --------------------------------------------------------------
 
          Ground-State Mulliken Net Atomic Charges

     Atom                 Charge (a.u.)    Spin (a.u.)
  --------------------------------------------------------
      1 H                     0.240886      -0.011707
      2 H                     0.162882       0.001745
      3 C                     0.044634       0.227968
      4 C                    -0.219520      -0.042453
      5 S                    -0.026678      -0.023948
      6 C                     0.445738       0.146168
      7 H                     0.144352      -0.009436
      8 C                    -0.134294       0.022755
      9 H                     0.137454      -0.005032
     10 C                    -0.053028       0.180729
     11 C                    -0.171441       0.055485
     12 S                    -0.314652      -0.060702
     13 C                     0.144594       0.047457
     14 H                     0.144621      -0.003607
     15 C                    -0.023299       0.183566
     16 C                    -0.169422       0.016591
     17 H                     0.136831      -0.009444
     18 C                     0.303041       0.149677
     19 S                     0.039764      -0.028065
     20 C                    -0.309032      -0.052788
     21 C                     0.075971       0.224501
     22 H                     0.160008       0.002329
     23 H                     0.240590      -0.011789
  --------------------------------------------------------
  Sum of atomic charges =     1.000000
  Sum of spin   charges =     1.000000

 -----------------------------------------------------------------
                    Cartesian Multipole Moments
 -----------------------------------------------------------------
    Charge (ESU x 10^10)
                 4.8032
    Dipole Moment (Debye)
         X      28.9936      Y      -1.5591      Z      -0.3423
       Tot      29.0375
    Quadrupole Moments (Debye-Ang)
        XX     157.0213     XY      -3.8725     YY     -87.6535
        XZ       1.2454     YZ       6.7471     ZZ    -108.8435
    Octopole Moments (Debye-Ang^2)
       XXX     737.8754    XXY      -9.2937    XYY    -536.4357
       YYY     129.8977    XXZ      33.6016    XYZ      45.5266
       YYZ       9.7223    XZZ    -650.4643    YZZ      49.8699
       ZZZ      49.9526
    Hexadecapole Moments (Debye-Ang^3)
      XXXX   -1539.8506   XXXY     -65.3539   XXYY   -4345.7358
      XYYY     818.0330   YYYY    -870.0601   XXXZ     412.8491
      XXYZ     372.7366   XYYZ      61.2620   YYYZ     -85.5512
      XXZZ   -5115.8440   XYZZ     290.2592   YYZZ    -199.3577
      XZZZ     244.6464   YZZZ    -128.7949   ZZZZ    -227.1666
 -----------------------------------------------------------------
 Calculating analytic gradient of the SCF energy
 Gradient of SCF Energy
            1           2           3           4           5           6
    1  -0.0002733   0.0000511   0.0026044  -0.0001793   0.0036975   0.0019102
    2   0.0007298  -0.0004163  -0.0009515  -0.0015860   0.0005552  -0.0030962
    3  -0.0000057  -0.0000360  -0.0001997  -0.0000871   0.0005168   0.0005039
            7           8           9          10          11          12
    1   0.0004816  -0.0071027  -0.0008113   0.0112325  -0.0028119  -0.0009478
    2  -0.0003472   0.0157229   0.0013311  -0.0170076   0.0029090   0.0017520
    3  -0.0007144   0.0017031   0.0003547  -0.0022756   0.0000189   0.0004895
           13          14          15          16          17          18
    1   0.0006442  -0.0004586  -0.0064207   0.0027926   0.0002403  -0.0018373
    2   0.0021317   0.0007324  -0.0020831  -0.0038491   0.0011733   0.0004278
    3  -0.0034271   0.0012287   0.0048745  -0.0065363  -0.0005506   0.0043669
           19          20          21          22          23
    1  -0.0017252  -0.0003248  -0.0010350   0.0000677   0.0002059
    2   0.0013483   0.0008900  -0.0002624   0.0004423  -0.0005464
    3   0.0001488   0.0006791  -0.0012507   0.0001390   0.0000595
 Max gradient component =       1.701E-02
 RMS gradient           =       3.752E-03
 Gradient time:  CPU 4.22 s  wall 4.23 s
 Geometry Optimization Parameters
   NAtoms,    NIC,     NZ,  NCons,   NDum,   NFix, NCnnct, MaxDiis
       23     166       0       1       0       0       0       0

 Cartesian Hessian Update
 Hessian Updated using BFGS Update


** CONSTRAINED OPTIMIZATION IN DELOCALIZED INTERNAL COORDINATES **
   Searching for a Minimum

   Optimization Cycle:   3

                       Coordinates (Angstroms)
     ATOM                X               Y               Z
      1  H        -0.0937722826   -0.5090004640   -0.1634746613
      2  H         0.9798442365   -2.8683727328   -0.6925508740
      3  C         0.9629838163   -0.7393139764   -0.2266791265
      4  C         1.5486790459   -1.9659286880   -0.5030370782
      5  S         2.1073015433    0.5211706247    0.0308693451
      6  C         2.9484330764   -1.8894565204   -0.5106967838
      7  H         3.6016029383   -2.7302652900   -0.7204139734
      8  C         3.4291809712   -0.5931564458   -0.2392096792
      9  H         4.5396559754    1.9457470737    0.2397638327
     10  C         4.7874430607   -0.2122441268   -0.1469802634
     11  C         5.2251630620    1.1131067082    0.1161243733
     12  S         6.1302940517   -1.3052179909   -0.3038047799
     13  C         6.5987465201    1.2271905878    0.1910522175
     14  H         7.1198766477    2.1567811675    0.3867632516
     15  C         7.2646127828   -0.0059980748   -0.0112472698
     16  C         8.6696173761   -0.2005385041   -0.0467987280
     17  H         9.3719562944    1.6290891855    0.9485019180
     18  C         9.6261112099    0.6795386789    0.4913883179
     19  S         9.4373806253   -1.6345672283   -0.6952568037
     20  C        10.9386652678    0.1995857465    0.3643285718
     21  C        10.9925298646   -1.0368127220   -0.2616455882
     22  H        11.8180876543    0.7283125658    0.7124571929
     23  H        11.8724862619   -1.6246363543   -0.4930647814
   Point Group: c1    Number of degrees of freedom:    63


   Energy is  -1656.415047385

              Constraints and their Current Values
                                        Value     Constraint
   Dihedral:       13  15  16  18       20.000       20.000
 Hessian Updated using BFGS Update

 61 Hessian modes will be used to form the next step
  Hessian Eigenvalues:
     0.044679    0.045000    0.045000    0.045000    0.045001    0.045001
     0.045002    0.045002    0.045003    0.045005    0.045007    0.045012
     0.045012    0.045016    0.045025    0.045048    0.045051    0.045059
     0.153514    0.159948    0.159966    0.159992    0.159995    0.160000
     0.160041    0.160294    0.176135    0.221336    0.222688    0.230023
     0.238092    0.240338    0.249352    0.249681    0.269607    0.280087
     0.322358    0.326469    0.327761    0.338649    0.340076    0.341722
     0.365512    0.365610    0.365849    0.366888    0.367193    0.367977
     0.370099    0.370850    0.399766    0.425695    0.435414    0.435539
     0.449121    0.462983    0.463740    0.478761    0.495495    0.497600
     0.564945

 Minimum Search - Taking Simple RFO Step
 Searching for Lamda that Minimizes Along All modes
 Value Taken    Lamda =  -0.00253528
 Step Taken.  Stepsize is  0.123775

                             Maximum     Tolerance    Cnvgd?
         Gradient           0.014732      0.000300      NO
         Displacement       0.054640      0.001200      NO
         Energy change     -0.011920      0.000001      NO


 New Cartesian Coordinates Obtained by Inverse Iteration

 Displacement from previous Coordinates is:  0.418699
 ----------------------------------------------------------------
             Standard Nuclear Orientation (Angstroms)
    I     Atom           X                Y                Z
 ----------------------------------------------------------------
    1      H      -0.1238545147    -0.5647045444    -0.2096766750
    2      H       1.0006012773    -2.8989763313    -0.7171351708
    3      C       0.9377924391    -0.7747511189    -0.2554601029
    4      C       1.5531664660    -1.9884983801    -0.5199600685
    5      S       2.0652233943     0.4955447661     0.0154385916
    6      C       2.9532075849    -1.8965243821    -0.5038939284
    7      H       3.6154322233    -2.7330668200    -0.6980346306
    8      C       3.4214184349    -0.5990791649    -0.2257828076
    9      H       4.5404260381     1.9940880523     0.2624408466
   10      C       4.7597894930    -0.1587628613    -0.1146886058
   11      C       5.2198112460     1.1571332839     0.1443109797
   12      S       6.1132752910    -1.2584200572    -0.2695669220
   13      C       6.5974867158     1.2606505728     0.2111464745
   14      H       7.1273383559     2.1887016452     0.3892790244
   15      C       7.2709029787     0.0303551643     0.0096043705
   16      C       8.6723934313    -0.1755039258    -0.0379071472
   17      H       9.4271004053     1.6359115887     0.9404473611
   18      C       9.6588721878     0.6828622224     0.4793316349
   19      S       9.4130873084    -1.6340211609    -0.6828247175
   20      C      10.9606929932     0.1750415358     0.3433943821
   21      C      10.9857320221    -1.0670474421    -0.2691546086
   22      H      11.8545811996     0.6862658758     0.6798350304
   23      H      11.8524030288    -1.6721852983    -0.5047546809
 ----------------------------------------------------------------
 Nuclear Repulsion Energy =  1180.6090941961 hartrees
 There are       64 alpha and       63 beta electrons
 Applying Cartesian multipole field
    Component          Value
    ---------          -----
     (2,0,0)        1.00000E-12
     (0,2,0)        2.00000E-11
     (0,0,2)       -3.00000E-11
 Nucleus-field energy     =     0.0000000325 hartrees
 Requested basis set is 6-31++G(d,p)
 There are 110 shells and 345 basis functions
 A cutoff of  1.0D-12 yielded   4682 shell pairs
 There are     47727 function pairs

 Q-Chem warning in module /project/projectdirs/jcesr/qchem/qc44/cnl_qc441/compile/cori/qc_src/libqints/qchem/aobasis.C, line 68:

 Using reconstructed effective core potential

 Smallest overlap matrix eigenvalue = 8.03E-08
 Linear dependence detected in AO basis
 Number of orthogonalized atomic orbitals = 342
 Maximum deviation from orthogonality = 5.962E-11
 Guess MOs from SCF MO coefficient file
 Reading MOs from coefficient file
 Reading MOs from coefficient file
 An unrestricted hybrid HF-DFT SCF calculation will be
 performed using Pulay DIIS extrapolation
 Exchange:     0.2000 Hartree-Fock + 0.0800 Slater + 0.7200 B88
 Correlation:  0.1900 VWN1RPA + 0.8100 LYP
 Using SG-1 standard quadrature grid
 SCF converges when DIIS error is below 1.0E-08
 Geometry optimization detected.  Setting ReadMinima to 0
 Setting SaveMinima to 0
 ---------------------------------------
  Cycle       Energy         DIIS Error
 ---------------------------------------
    1   -1656.3827181759      1.22E-03
    2   -1656.4151995772      2.47E-04
    3   -1656.4123427484      4.76E-04
    4   -1656.4162385051      8.39E-05
    5   -1656.4163488314      2.42E-05
    6   -1656.4163587172      8.04E-06
    7   -1656.4163598159      3.12E-06
    8   -1656.4163600048      1.14E-06
    9   -1656.4163600528      6.03E-07
   10   -1656.4163600746      2.02E-07
   11   -1656.4163600868      1.16E-07
   12   -1656.4163600934      6.93E-08
   13   -1656.4163600960      3.26E-08
   14   -1656.4163600972      9.06E-09 Convergence criterion met
 ---------------------------------------
 <S^2> = 0.7704
 SCF time:  CPU 19.54 s  wall 18.18 s
 SCF   energy in the final basis set = -1656.4163600972
 Total energy in the final basis set = -1656.4163600972
 
 --------------------------------------------------------------
 
                    Orbital Energies (a.u.)
 --------------------------------------------------------------
 
 Alpha MOs
 -- Occupied --
-89.075 -89.065 -89.064 -10.410 -10.409 -10.391 -10.390 -10.379
-10.377 -10.367 -10.366 -10.358 -10.358 -10.345 -10.343  -8.134
 -8.124  -8.123  -6.098  -6.094  -6.090  -6.088  -6.088  -6.084
 -6.084  -6.081  -6.080  -1.064  -1.041  -1.026  -0.945  -0.914
 -0.893  -0.892  -0.883  -0.841  -0.772  -0.749  -0.710  -0.707
 -0.688  -0.677  -0.673  -0.643  -0.608  -0.572  -0.571  -0.570
 -0.561  -0.550  -0.547  -0.545  -0.535  -0.521  -0.519  -0.511
 -0.494  -0.488  -0.455  -0.422  -0.407  -0.404  -0.395  -0.346
 -- Virtual --
 -0.231  -0.178  -0.155  -0.133  -0.126  -0.113  -0.111  -0.103
 -0.098  -0.093  -0.091  -0.082  -0.081  -0.079  -0.073  -0.068
 -0.065  -0.063  -0.061  -0.051  -0.045  -0.043  -0.039  -0.032
 -0.027  -0.022  -0.016  -0.011  -0.007  -0.004   0.002   0.006
  0.011   0.012   0.014   0.017   0.024   0.028   0.028   0.031
  0.034   0.036   0.041   0.044   0.046   0.048   0.051   0.054
  0.056   0.061   0.066   0.069   0.071   0.076   0.081   0.083
  0.085   0.091   0.094   0.098   0.101   0.109   0.112   0.118
  0.120   0.123   0.128   0.132   0.134   0.138   0.151   0.153
  0.160   0.163   0.167   0.175   0.182   0.188   0.191   0.198
  0.202   0.209   0.219   0.231   0.238   0.239   0.247   0.251
  0.253   0.266   0.268   0.281   0.309   0.323   0.338   0.364
  0.377   0.382   0.396   0.401   0.427   0.437   0.446   0.453
  0.469   0.471   0.492   0.508   0.510   0.514   0.516   0.521
  0.525   0.530   0.547   0.552   0.565   0.572   0.582   0.586
  0.590   0.593   0.602   0.607   0.617   0.632   0.641   0.651
  0.666   0.673   0.683   0.694   0.697   0.710   0.737   0.756
  0.791   0.795   0.801   0.808   0.815   0.818   0.827   0.835
  0.844   0.849   0.856   0.865   0.876   0.878   0.894   0.898
  0.908   0.921   0.933   0.941   0.957   0.964   0.970   0.976
  1.003   1.022   1.030   1.039   1.058   1.068   1.090   1.110
  1.120   1.134   1.143   1.181   1.193   1.198   1.203   1.208
  1.215   1.222   1.224   1.312   1.321   1.330   1.344   1.366
  1.399   1.414   1.445   1.472   1.518   1.527   1.556   1.563
  1.656   1.681   1.707   1.722   1.750   1.770   1.776   1.778
  1.791   1.813   1.816   1.853   1.855   1.869   1.902   1.916
  1.927   1.940   1.973   2.000   2.010   2.031   2.044   2.062
  2.081   2.087   2.115   2.123   2.155   2.185   2.226   2.230
  2.262   2.288   2.293   2.306   2.319   2.333   2.343   2.365
  2.381   2.388   2.391   2.416   2.425   2.444   2.465   2.488
  2.522   2.539   2.565   2.573   2.586   2.649   2.714   2.730
  2.763   2.791   2.802   2.834   2.983   3.040   3.082   3.141
  3.142   3.173   3.269   3.274   3.521   3.596   3.605   3.800
  3.840   3.871   4.110   4.116   4.153   4.172   4.179   4.191
  4.235   4.323   4.401   4.493   4.557   4.589
 
 Beta MOs
 -- Occupied --
-89.075 -89.065 -89.064 -10.408 -10.407 -10.390 -10.390 -10.376
-10.374 -10.366 -10.365 -10.356 -10.356 -10.345 -10.344  -8.134
 -8.124  -8.123  -6.098  -6.095  -6.091  -6.088  -6.088  -6.084
 -6.084  -6.081  -6.080  -1.060  -1.037  -1.022  -0.939  -0.912
 -0.891  -0.890  -0.881  -0.834  -0.768  -0.746  -0.708  -0.705
 -0.686  -0.674  -0.672  -0.641  -0.607  -0.570  -0.569  -0.562
 -0.559  -0.549  -0.546  -0.537  -0.533  -0.519  -0.510  -0.508
 -0.493  -0.487  -0.437  -0.419  -0.402  -0.400  -0.379
 -- Virtual --
 -0.293  -0.215  -0.167  -0.153  -0.127  -0.121  -0.112  -0.103
 -0.101  -0.096  -0.092  -0.090  -0.081  -0.079  -0.073  -0.071
 -0.066  -0.064  -0.060  -0.059  -0.050  -0.043  -0.042  -0.038
 -0.032  -0.026  -0.021  -0.015  -0.010  -0.006  -0.003   0.004
  0.007   0.011   0.012   0.015   0.018   0.025   0.028   0.029
  0.032   0.035   0.037   0.042   0.044   0.047   0.048   0.052
  0.055   0.058   0.061   0.066   0.070   0.072   0.077   0.082
  0.084   0.086   0.092   0.095   0.099   0.102   0.110   0.113
  0.119   0.121   0.124   0.130   0.133   0.135   0.139   0.153
  0.154   0.161   0.165   0.168   0.175   0.183   0.189   0.192
  0.199   0.204   0.211   0.220   0.232   0.240   0.240   0.248
  0.252   0.254   0.267   0.270   0.283   0.310   0.324   0.339
  0.364   0.378   0.382   0.398   0.402   0.428   0.438   0.448
  0.455   0.470   0.472   0.494   0.514   0.515   0.516   0.519
  0.525   0.530   0.534   0.548   0.554   0.567   0.574   0.584
  0.588   0.592   0.594   0.606   0.613   0.619   0.638   0.642
  0.652   0.668   0.676   0.688   0.696   0.701   0.713   0.738
  0.757   0.793   0.798   0.802   0.810   0.817   0.821   0.829
  0.836   0.845   0.850   0.857   0.866   0.877   0.878   0.894
  0.899   0.910   0.922   0.934   0.942   0.958   0.964   0.971
  0.977   1.004   1.025   1.032   1.042   1.062   1.072   1.092
  1.113   1.124   1.138   1.147   1.184   1.196   1.202   1.206
  1.209   1.221   1.225   1.227   1.315   1.326   1.333   1.347
  1.370   1.405   1.418   1.449   1.477   1.522   1.534   1.565
  1.571   1.662   1.682   1.708   1.726   1.752   1.771   1.778
  1.783   1.793   1.816   1.820   1.857   1.859   1.872   1.908
  1.919   1.932   1.941   1.979   2.007   2.017   2.037   2.048
  2.068   2.085   2.091   2.121   2.128   2.158   2.190   2.228
  2.232   2.266   2.290   2.298   2.311   2.322   2.335   2.345
  2.367   2.385   2.389   2.395   2.420   2.428   2.447   2.467
  2.491   2.525   2.540   2.568   2.576   2.588   2.652   2.716
  2.733   2.765   2.793   2.805   2.836   2.984   3.041   3.083
  3.141   3.142   3.173   3.270   3.275   3.523   3.597   3.606
  3.800   3.840   3.871   4.114   4.119   4.155   4.175   4.183
  4.193   4.240   4.327   4.405   4.496   4.560   4.592
 --------------------------------------------------------------
 
          Ground-State Mulliken Net Atomic Charges

     Atom                 Charge (a.u.)    Spin (a.u.)
  --------------------------------------------------------
      1 H                     0.242007      -0.011435
      2 H                     0.163073       0.001522
      3 C                     0.060341       0.222981
      4 C                    -0.225583      -0.038509
      5 S                    -0.033883      -0.021192
      6 C                     0.483308       0.140019
      7 H                     0.146380      -0.009075
      8 C                    -0.200544       0.025059
      9 H                     0.144205      -0.004753
     10 C                    -0.067922       0.181719
     11 C                    -0.100218       0.052443
     12 S                    -0.372420      -0.062428
     13 C                     0.171235       0.055543
     14 H                     0.147524      -0.004289
     15 C                    -0.030117       0.180387
     16 C                    -0.168108       0.018929
     17 H                     0.138364      -0.009318
     18 C                     0.290179       0.147683
     19 S                     0.037950      -0.027612
     20 C                    -0.311016      -0.050591
     21 C                     0.082997       0.222372
     22 H                     0.160497       0.002193
     23 H                     0.241754      -0.011649
  --------------------------------------------------------
  Sum of atomic charges =     1.000000
  Sum of spin   charges =     1.000000

 -----------------------------------------------------------------
                    Cartesian Multipole Moments
 -----------------------------------------------------------------
    Charge (ESU x 10^10)
                 4.8032
    Dipole Moment (Debye)
         X      29.0297      Y      -1.5346      Z      -0.3483
       Tot      29.0723
    Quadrupole Moments (Debye-Ang)
        XX     158.5248     XY      -3.5048     YY     -87.5985
        XZ       1.4569     YZ       6.6795     ZZ    -108.9677
    Octopole Moments (Debye-Ang^2)
       XXX     763.3967    XXY      -9.3390    XYY    -534.7928
       YYY     128.3872    XXZ      33.7892    XYZ      44.8320
       YYZ       9.1502    XZZ    -650.4250    YZZ      49.3390
       ZZZ      48.2635
    Hexadecapole Moments (Debye-Ang^3)
      XXXX   -1207.7695   XXXY    -101.7256   XXYY   -4330.3296
      XYYY     800.9330   YYYY    -871.4942   XXXZ     397.7195
      XXYZ     368.1845   XYYZ      56.1868   YYYZ     -83.9060
      XXZZ   -5116.7665   XYZZ     284.5381   YYZZ    -199.9925
      XZZZ     229.2281   YZZZ    -127.8978   ZZZZ    -224.6209
 -----------------------------------------------------------------
 Calculating analytic gradient of the SCF energy
 Gradient of SCF Energy
            1           2           3           4           5           6
    1  -0.0003646  -0.0002803  -0.0013493  -0.0005268   0.0021520   0.0003313
    2   0.0003378   0.0001820  -0.0011805   0.0003721  -0.0014924  -0.0014186
    3  -0.0000283   0.0000904  -0.0000014   0.0000816  -0.0002486   0.0004466
            7           8           9          10          11          12
    1   0.0003065   0.0010628  -0.0009180  -0.0003446   0.0004450  -0.0021149
    2   0.0001820   0.0041725  -0.0001103  -0.0045107   0.0017709   0.0020006
    3  -0.0003841  -0.0000477  -0.0001350  -0.0004119   0.0002542   0.0004718
           13          14          15          16          17          18
    1  -0.0006289   0.0004179   0.0022797  -0.0010682  -0.0001618  -0.0004572
    2   0.0006800  -0.0001112  -0.0009157   0.0001677   0.0004970  -0.0010999
    3  -0.0029315   0.0005700   0.0049610  -0.0049239  -0.0003999   0.0028401
           19          20          21          22          23
    1  -0.0005919   0.0001599   0.0012422   0.0001907   0.0002186
    2   0.0010892  -0.0003791   0.0000654  -0.0000778  -0.0002209
    3   0.0001683  -0.0001482  -0.0003417   0.0000031   0.0001151
 Max gradient component =       4.961E-03
 RMS gradient           =       1.451E-03
 Gradient time:  CPU 4.31 s  wall 4.19 s
 Geometry Optimization Parameters
   NAtoms,    NIC,     NZ,  NCons,   NDum,   NFix, NCnnct, MaxDiis
       23     166       0       1       0       0       0       0

 Cartesian Hessian Update
 Hessian Updated using BFGS Update


** CONSTRAINED OPTIMIZATION IN DELOCALIZED INTERNAL COORDINATES **
   Searching for a Minimum

   Optimization Cycle:   4

                       Coordinates (Angstroms)
     ATOM                X               Y               Z
      1  H        -0.1238545147   -0.5647045444   -0.2096766750
      2  H         1.0006012773   -2.8989763313   -0.7171351708
      3  C         0.9377924391   -0.7747511189   -0.2554601029
      4  C         1.5531664660   -1.9884983801   -0.5199600685
      5  S         2.0652233943    0.4955447661    0.0154385916
      6  C         2.9532075849   -1.8965243821   -0.5038939284
      7  H         3.6154322233   -2.7330668200   -0.6980346306
      8  C         3.4214184349   -0.5990791649   -0.2257828076
      9  H         4.5404260381    1.9940880523    0.2624408466
     10  C         4.7597894930   -0.1587628613   -0.1146886058
     11  C         5.2198112460    1.1571332839    0.1443109797
     12  S         6.1132752910   -1.2584200572   -0.2695669220
     13  C         6.5974867158    1.2606505728    0.2111464745
     14  H         7.1273383559    2.1887016452    0.3892790244
     15  C         7.2709029787    0.0303551643    0.0096043705
     16  C         8.6723934313   -0.1755039258   -0.0379071472
     17  H         9.4271004053    1.6359115887    0.9404473611
     18  C         9.6588721878    0.6828622224    0.4793316349
     19  S         9.4130873084   -1.6340211609   -0.6828247175
     20  C        10.9606929932    0.1750415358    0.3433943821
     21  C        10.9857320221   -1.0670474421   -0.2691546086
     22  H        11.8545811996    0.6862658758    0.6798350304
     23  H        11.8524030288   -1.6721852983   -0.5047546809
   Point Group: c1    Number of degrees of freedom:    63


   Energy is  -1656.416360097

              Constraints and their Current Values
                                        Value     Constraint
   Dihedral:       13  15  16  18       20.000       20.000
 Hessian Updated using BFGS Update

 62 Hessian modes will be used to form the next step
  Hessian Eigenvalues:
     0.042527    0.045000    0.045000    0.045000    0.045000    0.045001
     0.045001    0.045002    0.045003    0.045003    0.045006    0.045010
     0.045012    0.045014    0.045025    0.045044    0.045050    0.045059
     0.045059    0.152319    0.159962    0.159969    0.159990    0.159996
     0.160000    0.160244    0.162768    0.166403    0.221456    0.222811
     0.229625    0.238079    0.241300    0.249641    0.250122    0.273604
     0.292316    0.321784    0.326426    0.327217    0.339624    0.340382
     0.340833    0.365513    0.365614    0.365771    0.366890    0.367196
     0.367569    0.370110    0.370370    0.399768    0.419783    0.435415
     0.435424    0.452416    0.462900    0.463546    0.479717    0.495495
     0.499610    0.569562

 Minimum Search - Taking Simple RFO Step
 Searching for Lamda that Minimizes Along All modes
 Value Taken    Lamda =  -0.00015652
 Step Taken.  Stepsize is  0.037282

                             Maximum     Tolerance    Cnvgd?
         Gradient           0.001795      0.000300      NO
         Displacement       0.010274      0.001200      NO
         Energy change     -0.001313      0.000001      NO


 New Cartesian Coordinates Obtained by Inverse Iteration

 Displacement from previous Coordinates is:  0.083793
 ----------------------------------------------------------------
             Standard Nuclear Orientation (Angstroms)
    I     Atom           X                Y                Z
 ----------------------------------------------------------------
    1      H      -0.1228037124    -0.5655572728    -0.2288567314
    2      H       1.0047700539    -2.8991917751    -0.7268495169
    3      C       0.9390087701    -0.7730756678    -0.2667192797
    4      C       1.5548515396    -1.9880273184    -0.5258119372
    5      S       2.0609621377     0.4980137862     0.0134647709
    6      C       2.9531113891    -1.8974997857    -0.4987980956
    7      H       3.6141109832    -2.7364704666    -0.6852807397
    8      C       3.4196968852    -0.6020659506    -0.2172594767
    9      H       4.5488532834     1.9976598145     0.2726936548
[...]
      2 H                     0.162870       0.001454
      3 C                     0.056398       0.221943
      4 C                    -0.222964      -0.036962
      5 S                    -0.029621      -0.019420
      6 C                     0.483888       0.137606
      7 H                     0.145983      -0.008966
      8 C                    -0.207374       0.026061
      9 H                     0.143994      -0.004606
     10 C                    -0.066203       0.182944
     11 C                    -0.092000       0.049370
     12 S                    -0.372292      -0.061730
     13 C                     0.170787       0.058823
     14 H                     0.147780      -0.004509
     15 C                    -0.023571       0.178227
     16 C                    -0.172418       0.019721
     17 H                     0.138666      -0.009192
     18 C                     0.281254       0.145417
     19 S                     0.043075      -0.026951
     20 C                    -0.310196      -0.049121
     21 C                     0.078826       0.220770
     22 H                     0.160391       0.002146
     23 H                     0.241370      -0.011601
  --------------------------------------------------------
  Sum of atomic charges =     1.000000
  Sum of spin   charges =     1.000000

 -----------------------------------------------------------------
                    Cartesian Multipole Moments
 -----------------------------------------------------------------
    Charge (ESU x 10^10)
                 4.8032
    Dipole Moment (Debye)
         X      29.0239      Y      -1.5277      Z      -0.3616
       Tot      29.0664
    Quadrupole Moments (Debye-Ang)
        XX     158.4264     XY      -3.4497     YY     -87.5107
        XZ       1.4785     YZ       6.6650     ZZ    -108.9931
    Octopole Moments (Debye-Ang^2)
       XXX     762.3341    XXY      -8.0258    XYY    -534.2309
       YYY     128.6596    XXZ      32.1979    XYZ      44.5484
       YYZ       8.8892    XZZ    -650.7334    YZZ      49.5361
       ZZZ      47.2938
    Hexadecapole Moments (Debye-Ang^3)
      XXXX   -1223.6130   XXXY     -81.2730   XXYY   -4327.6134
      XYYY     803.4128   YYYY    -872.4807   XXXZ     369.9942
      XXYZ     366.5387   XYYZ      54.5887   YYYZ     -83.5454
      XXZZ   -5119.4445   XYZZ     285.9948   YYZZ    -200.1622
      XZZZ     222.9750   YZZZ    -127.5164   ZZZZ    -223.0479
 -----------------------------------------------------------------
 Calculating analytic gradient of the SCF energy
 Gradient of SCF Energy
            1           2           3           4           5           6
    1  -0.0000130   0.0000041   0.0000554  -0.0000731  -0.0000642   0.0000517
    2  -0.0000091   0.0000036   0.0000406  -0.0000233   0.0000147   0.0000661
    3  -0.0000074   0.0000183   0.0000186  -0.0000246   0.0000235   0.0000698
            7           8           9          10          11          12
    1  -0.0000009   0.0000821   0.0000125  -0.0000562  -0.0001312   0.0000968
    2   0.0000010  -0.0000393   0.0000307   0.0001118  -0.0001381  -0.0000383
    3  -0.0000431  -0.0000817  -0.0000193   0.0000719  -0.0000103   0.0000077
           13          14          15          16          17          18
    1   0.0000936  -0.0000151  -0.0000732   0.0001016   0.0000037  -0.0001115
    2   0.0003363   0.0000095  -0.0012367   0.0020283   0.0000042  -0.0011318
    3  -0.0022615   0.0000027   0.0047742  -0.0045298   0.0000052   0.0020002
           19          20          21          22          23
    1   0.0000390   0.0000252  -0.0000335  -0.0000021   0.0000082
    2   0.0000012   0.0000133  -0.0000408  -0.0000063   0.0000024
    3   0.0000093  -0.0000166  -0.0000095   0.0000081  -0.0000059
 Max gradient component =       4.774E-03
 RMS gradient           =       9.296E-04
 Gradient time:  CPU 4.18 s  wall 4.18 s
 Geometry Optimization Parameters
   NAtoms,    NIC,     NZ,  NCons,   NDum,   NFix, NCnnct, MaxDiis
       23     166       0       1       0       0       0       0

 Cartesian Hessian Update
 Hessian Updated using BFGS Update


** CONSTRAINED OPTIMIZATION IN DELOCALIZED INTERNAL COORDINATES **
   Searching for a Minimum

   Optimization Cycle:   8

                       Coordinates (Angstroms)
     ATOM                X               Y               Z
      1  H        -0.1236220124   -0.5578017503   -0.2500373197
      2  H         1.0009941904   -2.8941499074   -0.7366197242
      3  C         0.9383307813   -0.7668242317   -0.2792065616
      4  C         1.5518748447   -1.9845049776   -0.5312522108
      5  S         2.0608105486    0.5004549770    0.0110713654
      6  C         2.9507685420   -1.8982491594   -0.4908942142
      7  H         3.6100297077   -2.7413002939   -0.6654730703
      8  C         3.4194644118   -0.6054484213   -0.2059840192
      9  H         4.5510186034    1.9925485930    0.2858230029
     10  C         4.7581875548   -0.1615818209   -0.0925031728
     11  C         5.2215060081    1.1497208762    0.1635994570
     12  S         6.1149969264   -1.2686188099   -0.2540376243
     13  C         6.5996028446    1.2526110995    0.2204363843
     14  H         7.1278219047    2.1843559683    0.3813066878
     15  C         7.2696418516    0.0225974374    0.0165922541
     16  C         8.6730247073   -0.1744373701   -0.0392831078
     17  H         9.4281770633    1.6372393767    0.9367974412
     18  C         9.6594611634    0.6879999304    0.4685362959
     19  S         9.4135760083   -1.6389368221   -0.6766853331
     20  C        10.9609160105    0.1823561730    0.3300845553
     21  C        10.9840793973   -1.0643949303   -0.2732088993
     22  H        11.8546690138    0.6978600826    0.6595816829
     23  H        11.8515499283   -1.6664827991   -0.5122552394
   Point Group: c1    Number of degrees of freedom:    63


   Energy is  -1656.416480708

              Constraints and their Current Values
                                        Value     Constraint
   Dihedral:       13  15  16  18       20.000       20.000
 Hessian Updated using BFGS Update

 62 Hessian modes will be used to form the next step
  Hessian Eigenvalues:
     0.013643    0.040803    0.045000    0.045000    0.045000    0.045001
     0.045001    0.045002    0.045004    0.045008    0.045011    0.045011
     0.045013    0.045016    0.045025    0.045042    0.045048    0.045060
     0.045619    0.146325    0.158599    0.159971    0.160025    0.160042
     0.160218    0.160324    0.160786    0.167907    0.220893    0.222273
     0.227423    0.239162    0.245148    0.249734    0.250636    0.273527
     0.293980    0.301115    0.326081    0.327199    0.334068    0.340046
     0.341136    0.365541    0.365602    0.365875    0.366949    0.367306
     0.368151    0.370159    0.371916    0.401182    0.426936    0.435724
     0.441412    0.461728    0.463043    0.474069    0.492735    0.497206
     0.508842    0.582430

 Minimum Search - Taking Simple RFO Step
 Searching for Lamda that Minimizes Along All modes
 Value Taken    Lamda =   0.00000000
 Step Taken.  Stepsize is  0.004436

                             Maximum     Tolerance    Cnvgd?
         Gradient           0.000083      0.000300     YES
         Displacement       0.001765      0.001200      NO
         Energy change     -0.000001      0.000001     YES

 Final energy is   -1656.41648070804     


 ******************************
 **  OPTIMIZATION CONVERGED  **
 ******************************

                       Coordinates (Angstroms)
     ATOM                X               Y               Z
      1  H        -0.1236220124   -0.5578017503   -0.2500373197
      2  H         1.0009941904   -2.8941499074   -0.7366197242
      3  C         0.9383307813   -0.7668242317   -0.2792065616
      4  C         1.5518748447   -1.9845049776   -0.5312522108
      5  S         2.0608105486    0.5004549770    0.0110713654
      6  C         2.9507685420   -1.8982491594   -0.4908942142
      7  H         3.6100297077   -2.7413002939   -0.6654730703
      8  C         3.4194644118   -0.6054484213   -0.2059840192
      9  H         4.5510186034    1.9925485930    0.2858230029
     10  C         4.7581875548   -0.1615818209   -0.0925031728
     11  C         5.2215060081    1.1497208762    0.1635994570
     12  S         6.1149969264   -1.2686188099   -0.2540376243
     13  C         6.5996028446    1.2526110995    0.2204363843
     14  H         7.1278219047    2.1843559683    0.3813066878
     15  C         7.2696418516    0.0225974374    0.0165922541
     16  C         8.6730247073   -0.1744373701   -0.0392831078
     17  H         9.4281770633    1.6372393767    0.9367974412
     18  C         9.6594611634    0.6879999304    0.4685362959
     19  S         9.4135760083   -1.6389368221   -0.6766853331
     20  C        10.9609160105    0.1823561730    0.3300845553
     21  C        10.9840793973   -1.0643949303   -0.2732088993
     22  H        11.8546690138    0.6978600826    0.6595816829
     23  H        11.8515499283   -1.6664827991   -0.5122552394

Z-matrix Print:
$molecule
1 2
S 
C  1 1.753193
C  2 1.415429 1 110.516675
H  3 1.083071 2 122.554894 1 -178.449508 0
C  3 1.383101 2 113.647306 1 0.175002 0
H  5 1.083905 3 123.632769 2 -179.276131 0
C  5 1.414131 3 113.757917 2 -0.266381 0
C  7 1.414947 5 127.980796 3 179.718616 0
C  8 1.404344 7 128.376122 5 178.355558 0
H  9 1.084361 8 123.056472 7 -0.099533 0
C  9 1.402131 8 113.293878 7 -179.862396 0
H  11 1.083097 9 124.372108 8 179.909357 0
C  11 1.386618 9 112.469948 8 -0.006965 0
H  13 1.082721 11 127.475151 9 -179.945914 0
C  2 1.418248 1 122.907955 3 -177.030266 0
C  15 1.405253 2 126.520136 1 -163.460582 0
H  16 1.083428 15 122.959483 2 -2.324344 0
C  16 1.403078 15 113.221520 2 176.495577 0
H  18 1.083101 16 124.323818 15 -179.989183 0
C  18 1.385239 16 112.509629 15 -0.321472 0
H  20 1.082662 18 127.595141 16 178.915396 0
S  13 1.717620 11 112.922045 9 -0.017352 0
S  20 1.720283 18 112.797298 16 -0.146993 0
$end

 
 --------------------------------------------------------------
 
                    Orbital Energies (a.u.)
 --------------------------------------------------------------
 
 Alpha MOs
 -- Occupied --
-89.074 -89.065 -89.064 -10.410 -10.409 -10.391 -10.390 -10.378
-10.377 -10.366 -10.366 -10.358 -10.358 -10.345 -10.343  -8.134
 -8.124  -8.123  -6.098  -6.094  -6.090  -6.088  -6.087  -6.084
 -6.084  -6.081  -6.080  -1.064  -1.041  -1.026  -0.944  -0.914
 -0.893  -0.892  -0.883  -0.841  -0.772  -0.748  -0.710  -0.707
 -0.689  -0.677  -0.673  -0.643  -0.608  -0.572  -0.571  -0.570
 -0.561  -0.550  -0.548  -0.544  -0.534  -0.521  -0.519  -0.511
 -0.494  -0.488  -0.455  -0.422  -0.407  -0.404  -0.395  -0.346
 -- Virtual --
 -0.231  -0.177  -0.156  -0.133  -0.127  -0.113  -0.111  -0.103
 -0.098  -0.092  -0.091  -0.082  -0.081  -0.079  -0.073  -0.068
 -0.065  -0.063  -0.061  -0.051  -0.045  -0.043  -0.039  -0.032
 -0.027  -0.022  -0.015  -0.011  -0.007  -0.003   0.002   0.006
  0.011   0.012   0.014   0.017   0.024   0.028   0.028   0.031
  0.034   0.036   0.041   0.044   0.046   0.048   0.051   0.054
  0.056   0.061   0.066   0.069   0.071   0.076   0.082   0.083
  0.085   0.091   0.094   0.098   0.101   0.109   0.113   0.118
  0.120   0.123   0.128   0.133   0.134   0.138   0.152   0.153
  0.160   0.163   0.167   0.175   0.182   0.188   0.191   0.198
  0.202   0.210   0.220   0.231   0.238   0.239   0.248   0.250
  0.253   0.266   0.268   0.281   0.310   0.324   0.337   0.364
  0.378   0.382   0.397   0.402   0.427   0.437   0.447   0.453
  0.470   0.471   0.493   0.508   0.510   0.514   0.516   0.521
  0.525   0.529   0.547   0.553   0.565   0.573   0.582   0.587
  0.590   0.593   0.602   0.607   0.617   0.632   0.641   0.651
  0.667   0.673   0.683   0.694   0.697   0.710   0.737   0.756
  0.791   0.795   0.801   0.808   0.815   0.819   0.826   0.835
  0.844   0.849   0.856   0.864   0.876   0.878   0.893   0.898
  0.908   0.921   0.934   0.941   0.957   0.963   0.970   0.977
  1.003   1.021   1.029   1.039   1.059   1.069   1.091   1.110
  1.119   1.135   1.143   1.179   1.192   1.199   1.203   1.207
  1.215   1.222   1.226   1.314   1.320   1.331   1.343   1.364
  1.401   1.412   1.446   1.473   1.519   1.524   1.557   1.563
  1.656   1.681   1.707   1.723   1.750   1.771   1.776   1.777
  1.793   1.814   1.816   1.854   1.857   1.871   1.903   1.917
  1.929   1.940   1.972   2.001   2.010   2.031   2.046   2.063
  2.081   2.088   2.114   2.122   2.155   2.185   2.227   2.231
  2.263   2.289   2.296   2.305   2.319   2.332   2.343   2.367
  2.381   2.388   2.391   2.418   2.426   2.443   2.464   2.490
  2.522   2.540   2.566   2.574   2.588   2.648   2.714   2.732
  2.765   2.793   2.802   2.835   2.985   3.042   3.083   3.141
  3.143   3.176   3.270   3.275   3.522   3.596   3.606   3.799
  3.839   3.870   4.109   4.116   4.153   4.173   4.179   4.192
  4.234   4.323   4.401   4.494   4.558   4.590
 
 Beta MOs
 -- Occupied --
-89.075 -89.065 -89.064 -10.407 -10.407 -10.391 -10.390 -10.375
-10.374 -10.365 -10.365 -10.356 -10.356 -10.345 -10.344  -8.134
 -8.124  -8.123  -6.098  -6.095  -6.091  -6.088  -6.088  -6.085
 -6.084  -6.081  -6.080  -1.059  -1.037  -1.022  -0.939  -0.912
 -0.891  -0.890  -0.881  -0.833  -0.768  -0.745  -0.708  -0.705
 -0.687  -0.675  -0.672  -0.641  -0.606  -0.570  -0.568  -0.562
 -0.559  -0.548  -0.546  -0.537  -0.533  -0.519  -0.511  -0.508
 -0.493  -0.488  -0.437  -0.419  -0.402  -0.400  -0.379
 -- Virtual --
 -0.293  -0.215  -0.166  -0.154  -0.128  -0.122  -0.112  -0.103
 -0.102  -0.096  -0.092  -0.090  -0.081  -0.078  -0.073  -0.070
 -0.065  -0.064  -0.060  -0.059  -0.050  -0.043  -0.042  -0.038
 -0.032  -0.026  -0.021  -0.015  -0.010  -0.006  -0.003   0.004
  0.007   0.011   0.013   0.015   0.017   0.025   0.028   0.029
  0.032   0.035   0.037   0.042   0.044   0.047   0.048   0.052
  0.055   0.058   0.061   0.066   0.070   0.071   0.077   0.083
  0.084   0.086   0.092   0.095   0.099   0.102   0.110   0.114
  0.119   0.121   0.124   0.130   0.134   0.135   0.139   0.153
  0.154   0.161   0.164   0.168   0.176   0.183   0.189   0.192
  0.199   0.204   0.211   0.221   0.232   0.239   0.240   0.249
  0.251   0.254   0.267   0.270   0.283   0.311   0.325   0.338
  0.364   0.378   0.382   0.398   0.402   0.428   0.438   0.448
  0.455   0.471   0.472   0.494   0.514   0.515   0.516   0.519
  0.525   0.530   0.534   0.548   0.555   0.567   0.575   0.584
  0.589   0.592   0.594   0.605   0.612   0.620   0.638   0.642
  0.652   0.668   0.676   0.688   0.695   0.701   0.714   0.738
  0.757   0.793   0.798   0.802   0.809   0.817   0.822   0.829
  0.836   0.846   0.850   0.857   0.866   0.878   0.879   0.893
  0.899   0.909   0.922   0.935   0.942   0.958   0.964   0.971
  0.977   1.004   1.025   1.032   1.043   1.063   1.072   1.093
  1.113   1.124   1.140   1.147   1.182   1.195   1.202   1.206
  1.209   1.221   1.227   1.228   1.316   1.325   1.335   1.346
  1.368   1.407   1.416   1.450   1.478   1.523   1.532   1.566
  1.571   1.661   1.683   1.708   1.726   1.752   1.772   1.778
  1.782   1.795   1.817   1.820   1.857   1.862   1.874   1.909
  1.920   1.934   1.942   1.978   2.007   2.016   2.037   2.050
  2.069   2.085   2.092   2.121   2.127   2.158   2.190   2.229
  2.233   2.267   2.290   2.301   2.309   2.323   2.334   2.345
  2.370   2.385   2.390   2.394   2.422   2.428   2.446   2.466
  2.493   2.526   2.541   2.569   2.578   2.590   2.651   2.717
  2.735   2.768   2.795   2.804   2.837   2.986   3.042   3.084
  3.141   3.143   3.176   3.271   3.276   3.523   3.597   3.607
  3.800   3.839   3.871   4.113   4.119   4.156   4.176   4.183
  4.194   4.239   4.327   4.405   4.497   4.561   4.593
 --------------------------------------------------------------
 
          Ground-State Mulliken Net Atomic Charges

     Atom                 Charge (a.u.)    Spin (a.u.)
  --------------------------------------------------------
      1 H                     0.241356      -0.011424
      2 H                     0.162870       0.001454
      3 C                     0.056398       0.221943
      4 C                    -0.222964      -0.036962
      5 S                    -0.029621      -0.019420
      6 C                     0.483888       0.137606
      7 H                     0.145983      -0.008966
      8 C                    -0.207374       0.026061
      9 H                     0.143994      -0.004606
     10 C                    -0.066203       0.182944
     11 C                    -0.092000       0.049370
     12 S                    -0.372292      -0.061730
     13 C                     0.170787       0.058823
     14 H                     0.147780      -0.004509
     15 C                    -0.023571       0.178227
     16 C                    -0.172418       0.019721
     17 H                     0.138666      -0.009192
     18 C                     0.281254       0.145417
     19 S                     0.043075      -0.026951
     20 C                    -0.310196      -0.049121
     21 C                     0.078826       0.220770
     22 H                     0.160391       0.002146
     23 H                     0.241370      -0.011601
  --------------------------------------------------------
  Sum of atomic charges =     1.000000
  Sum of spin   charges =     1.000000

 -----------------------------------------------------------------
                    Cartesian Multipole Moments
 -----------------------------------------------------------------
    Charge (ESU x 10^10)
                 4.8032
    Dipole Moment (Debye)
         X      29.0239      Y      -1.5277      Z      -0.3616
       Tot      29.0664
    Quadrupole Moments (Debye-Ang)
        XX     158.4264     XY      -3.4497     YY     -87.5107
        XZ       1.4785     YZ       6.6650     ZZ    -108.9931
    Octopole Moments (Debye-Ang^2)
       XXX     762.3341    XXY      -8.0258    XYY    -534.2309
       YYY     128.6596    XXZ      32.1979    XYZ      44.5484
       YYZ       8.8892    XZZ    -650.7334    YZZ      49.5361
       ZZZ      47.2938
    Hexadecapole Moments (Debye-Ang^3)
      XXXX   -1223.6130   XXXY     -81.2730   XXYY   -4327.6134
      XYYY     803.4128   YYYY    -872.4807   XXXZ     369.9942
      XXYZ     366.5387   XYYZ      54.5887   YYYZ     -83.5454
      XXZZ   -5119.4445   XYZZ     285.9948   YYZZ    -200.1622
      XZZZ     222.9750   YZZZ    -127.5164   ZZZZ    -223.0479
 -----------------------------------------------------------------
Archival summary:
1\1\nid00479\OPT\ProcedureUnspecified\BasisUnspecified\3128(1+,2)\bwood\TueMay3011:01:382017TueMay3011:01:382017\0\\#,OPT,ProcedureUnspecified,BasisUnspecified,\\1,2\S\C,1,1.75319\C,2,1.41543,1,110.517\H,3,1.08307,2,122.555,1,-178.45,0\C,3,1.3831,2,113.647,1,0.175002,0\H,5,1.08391,3,123.633,2,-179.276,0\C,5,1.41413,3,113.758,2,-0.266381,0\C,7,1.41495,5,127.981,3,179.719,0\C,8,1.40434,7,128.376,5,178.356,0\H,9,1.08436,8,123.056,7,-0.0995332,0\C,9,1.40213,8,113.294,7,-179.862,0\H,11,1.0831,9,124.372,8,179.909,0\C,11,1.38662,9,112.47,8,-0.00696491,0\H,13,1.08272,11,127.475,9,-179.946,0\C,2,1.41825,1,122.908,3,-177.03,0\C,15,1.40525,2,126.52,1,-163.461,0\H,16,1.08343,15,122.959,2,-2.32434,0\C,16,1.40308,15,113.222,2,176.496,0\H,18,1.0831,16,124.324,15,-179.989,0\C,18,1.38524,16,112.51,15,-0.321472,0\H,20,1.08266,18,127.595,16,178.915,0\S,13,1.71762,11,112.922,9,-0.0173521,0\S,20,1.72028,18,112.797,16,-0.146993,0\\\@

 Total job time:  175.89s(wall), 185.96s(cpu) 
 Tue May 30 11:01:38 2017

        *************************************************************
        *                                                           *
        *  Thank you very much for using Q-Chem.  Have a nice day.  *
        *                                                           *
        *************************************************************


0 sent ACK to 0 
now end server 0 ... 
