srun -N 1 --ntasks-per-node 22 --cpus-per-task 2 --cpu_bind=cores --nodelist nid00444 /global/project/projectdirs/jcesr/qchem/qc44/cnl_qc441/dist/exe/qcprog.cori.haswell.exe .pt_nn_cation_0.0.in.33310.qcin.1 /dev/shm/eg_qchem/qchem33310/
Process 6 of 22 is on nid00444 - thread support 0
Process 1 of 22 is on nid00444 - thread support 0
Process 2 of 22 is on nid00444 - thread support 0
Process 3 of 22 is on nid00444 - thread support 0
Process 4 of 22 is on nid00444 - thread support 0
Process 5 of 22 is on nid00444 - thread support 0
Process 21 of 22 is on nid00444 - thread support 0
Process 0 of 22 is on nid00444 - thread support 0
initial socket setup ...start
initial socket setup ...done 
now start server 0 ... 
nid00444 10.128.1
Q-Chem Developer Version! Running on 10.128.1.*
                  Welcome to Q-Chem
     A Quantum Leap Into The Future Of Chemistry


 Q-Chem 4.4, Q-Chem, Inc., Pleasanton, CA (2016)

 Y. Shao,  Z. Gan,  E. Epifanovsky,  A. T. B. Gilbert,  M. Wormit,  
 J. Kussmann,  A. W. Lange,  A. Behn,  J. Deng,  X. Feng,  D. Ghosh,  
 M. Goldey,  P. R. Horn,  L. D. Jacobson,  I. Kaliman,  F. Rob,  
 R. Z. Khaliullin,  T. Kus,  A. Landau,  J. Liu,  E. I. Proynov,  Y. M. Rhee,  
 R. M. Richard,  M. A. Rohrdanz,  R. P. Steele,  E. J. Sundstrom,  
 H. L. Woodcock III,  P. M. Zimmerman,  D. Zuev,  B. Albrecht,  E. Alguire,  
 B. Austin,  S. A. Baeppler,  G. J. O. Beran,  Y. A. Bernard,  
 E. J. Berquist,  K. Brandhorst,  K. B. Bravaya,  S. T. Brown,  D. Casanova,  
 C.-M. Chang,  Y. Chen,  S. H. Chien,  K. D. Closser,  M. P. Coons,  
 D. L. Crittenden,  S. Dasgupta,  M. Diedenhofen,  R. A. DiStasio Jr.,  
 H. Do,  A. D. Dutoi,  R. G. Edgar,  P.-T. Fang,  S. Fatehi,  Q. Feng,  
 L. Fusti-Molnar,  A. Ghysels,  A. Golubeva-Zadorozhnaya,  J. Gomes,  
 A. Gunina,  M. W. D. Hanson-Heine,  P. H. P. Harbach,  A. W. Hauser,  
 J. E. Herr,  E. G. Hohenstein,  Z. C. Holden,  K. Hui,  T.-C. Jagau,  H. Ji,  
 B. Kaduk,  K. Khistyaev,  Jaehoon Kim,  Jihan Kim,  R. A. King,  
 P. Klunzinger,  K. Koh,  D. Kosenkov,  T. Kowalczyk,  C. M. Krauter,  
 A. Kunitsa,  K. U. Lao,  A. Laurent,  K. V. Lawler,  J. Lee,  D. Lefrancois,  
 S. Lehtola,  S. V. Levchenko,  C. Y. Lin,  Y.-S. Lin,  F. Liu,  E. Livshits,  
 R. C. Lochan,  A. Luenser,  P. Manohar,  S. F. Manzer,  S.-P. Mao,  Y. Mao,  
 N. Mardirossian,  A. V. Marenich,  L. A. Martinez-Martinez,  S. A. Maurer,  
 N. J. Mayhall,  J.-M. Mewes,  A. F. Morrison,  K. Nanda,  T. S. Nguyen-Beck,  
 C. M. Oana,  R. Olivares-Amaya,  D. P. O'Neill,  J. A. Parkhill,  
 T. M. Perrine,  R. Peverati,  P. A. Pieniazek,  F. Plasser,  A. Prociuk,  
 D. R. Rehn,  E. Rosta,  N. J. Russ,  N. Sergueev,  S. M. Sharada,  
 S. Sharma,  D. W. Small,  A. Sodt,  T. Stauch,  T. Stein,  D. Stuck,  
 Y.-C. Su,  A. J. W. Thom,  T. Tsuchimochi,  L. Vogt,  O. Vydrov,  T. Wang,  
 M. A. Watson,  J. Wenzel,  A. White,  C. F. Williams,  V. Vanovschi,  
 K. Yao,  S. Yeganeh,  S. R. Yost,  Z.-Q. You,  I. Y. Zhang,  X. Zhang,  
 Y. Zhao,  B. R. Brooks,  G. K. L. Chan,  D. M. Chipman,  C. J. Cramer,  
 W. A. Goddard III,  M. S. Gordon,  W. J. Hehre,  A. Klamt,  
 H. F. Schaefer III,  M. W. Schmidt,  C. D. Sherrill,  D. G. Truhlar,  
 A. Warshel,  X. Xu,  A. Aspuru-Guzik,  R. Baer,  A. T. Bell,  N. A. Besley,  
 J.-D. Chai,  A. Dreuw,  B. D. Dunietz,  T. R. Furlani,  S. R. Gwaltney,  
 C.-P. Hsu,  Y. Jung,  J. Kong,  D. S. Lambrecht,  W. Liang,  C. Ochsenfeld,  
 V. A. Rassolov,  L. V. Slipchenko,  J. E. Subotnik,  T. Van Voorhis,  
 J. M. Herbert,  A. I. Krylov,  P. M. W. Gill,  M. Head-Gordon

 Contributors to earlier versions of Q-Chem not listed above: 
 R. D. Adamson,  J. Baker,  E. F. C. Byrd,  A. K. Chakraborty,  C.-L. Cheng,  
 H. Dachsel,  R. J. Doerksen,  G. Hawkins,  A. Heyden,  S. Hirata,  
 G. Kedziora,  F. J. Keil,  C. Kelley,  P. P. Korambath,  W. Kurlancheek,  
 A. M. Lee,  M. S. Lee,  D. Liotard,  I. Lotan,  P. E. Maslen,  N. Nair,  
 D. Neuhauser,  R. Olson,  B. Peters,  J. Ritchie,  N. E. Schultz,  
 N. Shenvi,  A. C. Simmonett,  K. S. Thanthiriwatte,  Q. Wu,  W. Zhang

 Please cite Q-Chem as follows:
 Y. Shao et al., Mol. Phys. 113, 184-215 (2015)
 DOI: 10.1080/00268976.2014.952696

 Q-Chem 4.4.2 for Intel X86 EM64T Linux

 Parts of Q-Chem use Armadillo 5.200.1 (Boston Tea Smuggler).
 http://arma.sourceforge.net/

 Q-Chem begins on Tue May 30 10:58:45 2017  

Host: nid00444
0

     Scratch files written to /dev/shm/eg_qchem/qchem33310.0//
 Parallel job on  22  processors

Checking the input file for inconsistencies... 	...done.

--------------------------------------------------------------
User input:
--------------------------------------------------------------
$molecule
 1  2
 H           0.00000000        0.00000000        0.00000000
 H           0.66366000       -2.46828000       -0.59127000
 C           0.99103000       -0.39106000       -0.11652000
 C           1.36812000       -1.67442000       -0.42485000
 S           2.34669000        0.62586000        0.08638000
 C           2.76167000       -1.82175000       -0.50822000
 H           3.26291000       -2.73877000       -0.76199000
 C           3.44671000       -0.65043000       -0.26057000
 H           4.55645000        1.43902671        0.15704385
 C           4.88382000       -0.65043000       -0.26057000
 C           5.26091000        0.64090194        0.01245390
 S           6.23948000       -1.67253113       -0.43550939
 C           6.65446000        0.79046248        0.09175311
 H           7.15570000        1.71409653        0.32028213
 C           7.33950000       -0.38720773       -0.12368600
 C           8.77661000       -0.38720773       -0.12368600
 H           8.96041000        1.73518256        0.20501431
 C           9.46165000        0.79046281        0.09175317
 S           9.87663000       -1.69968150       -0.28709494
 C          10.85520000        0.62251444        0.11296760
 C          11.23229000       -0.68184263       -0.08885445
 H          11.55966000        1.42013735        0.26029924
 H          12.22332000       -1.08786653       -0.12947448
$end


$rem
         jobtype = opt
        exchange = b3lyp
           basis = 6-31++g**
  max_scf_cycles = 150
      mem_static = 281
       mem_total = 2818
      sym_ignore = true
        symmetry = false
          thresh = 12
$end


$opt
CONSTRAINT
tors 13 15 16 18 0.0
ENDCONSTRAINT
$end

--------------------------------------------------------------
 ----------------------------------------------------------------
             Standard Nuclear Orientation (Angstroms)
    I     Atom           X                Y                Z
 ----------------------------------------------------------------
    1      H       0.0000000000     0.0000000000     0.0000000000
    2      H       0.6636600000    -2.4682800000    -0.5912700000
    3      C       0.9910300000    -0.3910600000    -0.1165200000
    4      C       1.3681200000    -1.6744200000    -0.4248500000
    5      S       2.3466900000     0.6258600000     0.0863800000
    6      C       2.7616700000    -1.8217500000    -0.5082200000
    7      H       3.2629100000    -2.7387700000    -0.7619900000
    8      C       3.4467100000    -0.6504300000    -0.2605700000
    9      H       4.5564500000     1.4390267100     0.1570438500
   10      C       4.8838200000    -0.6504300000    -0.2605700000
   11      C       5.2609100000     0.6409019400     0.0124539000
   12      S       6.2394800000    -1.6725311300    -0.4355093900
   13      C       6.6544600000     0.7904624800     0.0917531100
   14      H       7.1557000000     1.7140965300     0.3202821300
   15      C       7.3395000000    -0.3872077300    -0.1236860000
   16      C       8.7766100000    -0.3872077300    -0.1236860000
   17      H       8.9604100000     1.7351825600     0.2050143100
   18      C       9.4616500000     0.7904628100     0.0917531700
   19      S       9.8766300000    -1.6996815000    -0.2870949400
   20      C      10.8552000000     0.6225144400     0.1129676000
   21      C      11.2322900000    -0.6818426300    -0.0888544500
   22      H      11.5596600000     1.4201373500     0.2602992400
   23      H      12.2233200000    -1.0878665300    -0.1294744800
 ----------------------------------------------------------------
 Nuclear Repulsion Energy =  1186.9551643431 hartrees
 There are       64 alpha and       63 beta electrons
 Requested basis set is 6-31++G(d,p)
 There are 110 shells and 345 basis functions

 Total QAlloc Memory Limit   2818 MB
 Mega-Array Size       275 MB
 MEM_STATIC part       281 MB
 A cutoff of  1.0D-12 yielded   4720 shell pairs
 There are     48067 function pairs

 Q-Chem warning in module /project/projectdirs/jcesr/qchem/qc44/cnl_qc441/compile/cori/qc_src/libqints/qchem/aobasis.C, line 68:

 Using reconstructed effective core potential

 
 -------------------------------------------------------
 OpenMP Integral Computing Module                       
 Release: version 1.0, May 2013, Q-Chem Inc. Pittsburgh 
 -------------------------------------------------------
 Integral Job Info:
 Integral job number is                      11
 Integral operator is                         1
 short-range coefficients                     0
 long-range coefficients              100000000
 Omega coefficients                           0
 if combine SR and LR in K                    0
 Integral screening is                        0
 Integral computing path is                   2
 max size of driver memory is            800000
 size of driver memory is                593474
 size of scratch memory is             15166112
 max col of scratch BK array               1296
 max len of scratch array in speh3          155
 max len of scratch index in speh4           18
 max int batch size is                      520
 min int batch size is                       52
 fixed nKL is                                52
 max L of basis functions is                  2
 order of int derivative is                   0
 number of shells is                        110
 number of basis is                         345
 number of cartesian basis is               345
 number of contracted shell pairs          4720
 number of primitive shell pairs          14801
 maxK2 (contraction) of shell pair           36
 max number of K2 of shell pair               1
 max number of CS2 of shell pair            509
 max number of PS2 of shell pair           3054
 mem total for path MDJ                  100872
 -------------------------------------------------------
 Smallest overlap matrix eigenvalue = 8.23E-08
 Linear dependence detected in AO basis
 Number of orthogonalized atomic orbitals = 342
 Maximum deviation from orthogonality = 1.128E-10

 Scale SEOQF with 1.000000e-02/1.000000e-01/1.000000e-01

 Standard Electronic Orientation quadrupole field applied
 Nucleus-field energy     =     0.0000000341 hartrees
 Guess from superposition of atomic densities
 Warning:  Energy on first SCF cycle will be non-variational
 An unrestricted hybrid HF-DFT SCF calculation will be
 performed using Pulay DIIS extrapolation
 Exchange:     0.2000 Hartree-Fock + 0.0800 Slater + 0.7200 B88
 Correlation:  0.1900 VWN1RPA + 0.8100 LYP
 Using SG-1 standard quadrature grid
 SCF converges when DIIS error is below 1.0E-08
 Inaccurate integrated density:
   Number of electrons =   127
   Numerical integral  =   127.999589596902
   Relative error      =     0.7870784228 %
 ---------------------------------------
  Cycle       Energy         DIIS Error
 ---------------------------------------
    1   -1660.7515491709      3.85E-02
    2   -1656.1691384855      3.50E-03
    3   -1655.8545058722      5.43E-03
    4   -1656.3584824651      7.95E-04
    5   -1656.3653669453      5.24E-04
    6   -1656.3695179491      2.08E-04
    7   -1656.3702733884      6.59E-05
    8   -1656.3703751844      1.39E-05
    9   -1656.3703916699      6.24E-06
   10   -1656.3704031040      3.90E-06
   11   -1656.3704108049      1.92E-06
   12   -1656.3704144975      1.30E-06
   13   -1656.3704155544      5.04E-07
   14   -1656.3704156138      3.00E-07
   15   -1656.3704156263      9.09E-08
   16   -1656.3704156283      4.43E-08
   17   -1656.3704156271      1.44E-08
   18   -1656.3704156281      8.01E-09 Convergence criterion met
 ---------------------------------------
 <S^2> = 0.7673
 SCF time:  CPU 24.94 s  wall 23.35 s
 SCF   energy in the final basis set = -1656.3704156281
 Total energy in the final basis set = -1656.3704156281
 
 --------------------------------------------------------------
 
                    Orbital Energies (a.u.)
 --------------------------------------------------------------
 
 Alpha MOs
 -- Occupied --
-89.086 -89.066 -89.064 -10.408 -10.403 -10.389 -10.388 -10.375
-10.373 -10.358 -10.357 -10.352 -10.348 -10.340 -10.340  -8.145
 -8.126  -8.124  -6.109  -6.105  -6.101  -6.090  -6.088  -6.086
 -6.084  -6.083  -6.081  -1.080  -1.052  -1.039  -0.957  -0.918
 -0.901  -0.893  -0.888  -0.848  -0.775  -0.751  -0.716  -0.703
 -0.694  -0.679  -0.675  -0.658  -0.607  -0.584  -0.582  -0.571
 -0.565  -0.552  -0.551  -0.544  -0.537  -0.526  -0.518  -0.508
 -0.492  -0.489  -0.461  -0.423  -0.407  -0.403  -0.399  -0.352
 -- Virtual --
 -0.223  -0.171  -0.150  -0.128  -0.127  -0.114  -0.111  -0.104
 -0.097  -0.093  -0.090  -0.089  -0.081  -0.078  -0.069  -0.068
 -0.066  -0.065  -0.061  -0.051  -0.046  -0.042  -0.039  -0.032
 -0.031  -0.024  -0.017  -0.013  -0.008  -0.002   0.001   0.002
  0.012   0.014   0.019   0.020   0.025   0.026   0.028   0.031
  0.034   0.038   0.044   0.046   0.047   0.048   0.051   0.058
  0.059   0.060   0.066   0.069   0.074   0.082   0.085   0.085
  0.089   0.093   0.098   0.101   0.104   0.111   0.116   0.119
  0.123   0.127   0.134   0.138   0.143   0.147   0.153   0.159
  0.162   0.170   0.175   0.183   0.186   0.190   0.195   0.208
  0.211   0.220   0.229   0.235   0.242   0.246   0.258   0.265
  0.269   0.288   0.294   0.302   0.308   0.335   0.356   0.360
  0.376   0.379   0.393   0.416   0.435   0.442   0.457   0.472
  0.477   0.495   0.502   0.504   0.511   0.516   0.520   0.523
  0.528   0.539   0.540   0.560   0.572   0.576   0.583   0.594
  0.597   0.601   0.604   0.607   0.632   0.641   0.652   0.661
  0.666   0.672   0.676   0.683   0.692   0.707   0.748   0.761
  0.796   0.803   0.809   0.811   0.814   0.827   0.830   0.838
  0.857   0.864   0.867   0.878   0.884   0.893   0.909   0.920
  0.925   0.938   0.941   0.953   0.969   0.975   0.982   1.000
  1.030   1.034   1.038   1.065   1.071   1.096   1.107   1.121
  1.134   1.153   1.156   1.188   1.192   1.198   1.204   1.217
  1.222   1.225   1.245   1.265   1.276   1.313   1.322   1.379
  1.385   1.436   1.472   1.478   1.495   1.546   1.561   1.565
  1.672   1.699   1.717   1.733   1.759   1.772   1.789   1.796
  1.828   1.834   1.861   1.863   1.871   1.901   1.920   1.945
  1.956   1.965   1.999   2.017   2.023   2.055   2.061   2.091
  2.094   2.099   2.155   2.174   2.189   2.217   2.235   2.239
  2.270   2.296   2.327   2.329   2.336   2.343   2.384   2.392
  2.403   2.404   2.415   2.444   2.453   2.467   2.485   2.519
  2.527   2.567   2.579   2.581   2.585   2.676   2.699   2.731
  2.774   2.790   2.839   2.848   3.009   3.063   3.127   3.164
  3.164   3.207   3.298   3.300   3.560   3.626   3.636   3.809
  3.854   3.867   4.105   4.118   4.167   4.170   4.192   4.199
  4.234   4.323   4.416   4.504   4.567   4.588
 
 Beta MOs
 -- Occupied --
-89.086 -89.066 -89.064 -10.406 -10.400 -10.389 -10.388 -10.372
-10.370 -10.357 -10.356 -10.350 -10.346 -10.340 -10.340  -8.145
 -8.126  -8.124  -6.110  -6.106  -6.102  -6.091  -6.088  -6.087
 -6.084  -6.083  -6.081  -1.076  -1.049  -1.035  -0.951  -0.916
 -0.896  -0.892  -0.887  -0.841  -0.771  -0.748  -0.713  -0.700
 -0.692  -0.676  -0.673  -0.656  -0.605  -0.583  -0.572  -0.569
 -0.563  -0.549  -0.544  -0.541  -0.536  -0.517  -0.515  -0.507
 -0.491  -0.488  -0.442  -0.421  -0.402  -0.400  -0.380
 -- Virtual --
 -0.299  -0.208  -0.161  -0.148  -0.127  -0.118  -0.113  -0.104
 -0.101  -0.096  -0.092  -0.089  -0.082  -0.080  -0.077  -0.068
 -0.066  -0.064  -0.060  -0.057  -0.051  -0.044  -0.041  -0.039
 -0.031  -0.030  -0.022  -0.016  -0.012  -0.007  -0.002   0.002
  0.004   0.012   0.014   0.020   0.020   0.026   0.027   0.029
  0.031   0.034   0.038   0.045   0.047   0.047   0.049   0.051
  0.059   0.060   0.063   0.067   0.070   0.075   0.083   0.086
  0.086   0.090   0.094   0.099   0.102   0.105   0.112   0.117
  0.120   0.123   0.128   0.136   0.138   0.144   0.148   0.153
  0.160   0.163   0.171   0.177   0.184   0.186   0.191   0.196
  0.209   0.213   0.221   0.230   0.235   0.243   0.248   0.258
  0.266   0.270   0.290   0.295   0.303   0.309   0.336   0.358
  0.360   0.378   0.379   0.393   0.418   0.437   0.443   0.459
  0.473   0.478   0.500   0.505   0.509   0.517   0.518   0.524
  0.526   0.532   0.541   0.542   0.565   0.573   0.577   0.588
  0.595   0.598   0.603   0.607   0.609   0.632   0.647   0.656
  0.663   0.668   0.674   0.679   0.685   0.696   0.712   0.749
  0.761   0.797   0.804   0.811   0.813   0.815   0.831   0.832
  0.840   0.859   0.865   0.867   0.879   0.886   0.894   0.910
  0.921   0.927   0.939   0.943   0.955   0.970   0.977   0.983
  1.002   1.030   1.037   1.041   1.067   1.074   1.099   1.111
  1.125   1.138   1.157   1.159   1.191   1.196   1.203   1.207
  1.222   1.225   1.230   1.246   1.266   1.282   1.315   1.326
  1.386   1.389   1.442   1.475   1.481   1.501   1.550   1.570
  1.574   1.675   1.701   1.722   1.734   1.760   1.774   1.790
  1.798   1.832   1.838   1.863   1.867   1.875   1.905   1.923
  1.948   1.958   1.972   2.006   2.023   2.030   2.061   2.068
  2.097   2.099   2.106   2.161   2.177   2.194   2.219   2.238
  2.241   2.275   2.299   2.331   2.332   2.337   2.349   2.386
  2.397   2.405   2.408   2.418   2.447   2.455   2.469   2.488
  2.520   2.530   2.568   2.581   2.584   2.588   2.678   2.703
  2.734   2.776   2.791   2.841   2.851   3.010   3.064   3.128
  3.164   3.164   3.207   3.300   3.302   3.561   3.627   3.637
  3.809   3.854   3.868   4.109   4.121   4.169   4.176   4.195
  4.202   4.239   4.327   4.421   4.507   4.569   4.591
 --------------------------------------------------------------
 
          Ground-State Mulliken Net Atomic Charges

     Atom                 Charge (a.u.)    Spin (a.u.)
  --------------------------------------------------------
      1 H                     0.247771      -0.011108
      2 H                     0.154635       0.001498
      3 C                     0.058049       0.229154
      4 C                    -0.334279      -0.044554
      5 S                    -0.069229      -0.028706
      6 C                     0.501332       0.147092
      7 H                     0.138008      -0.008970
      8 C                     0.252752       0.033316
      9 H                     0.056529      -0.005155
     10 C                    -0.056636       0.180667
     11 C                    -0.533230       0.046319
     12 S                     0.055103      -0.048526
     13 C                    -0.185219       0.031540
     14 H                     0.096360      -0.002970
     15 C                     0.024468       0.184038
     16 C                    -0.089574       0.039747
     17 H                     0.089515      -0.010175
     18 C                     0.475165       0.136490
     19 S                     0.061959      -0.033419
     20 C                    -0.400718      -0.044403
     21 C                     0.057348       0.217372
     22 H                     0.161625       0.002419
     23 H                     0.238269      -0.011666
  --------------------------------------------------------
  Sum of atomic charges =     1.000000
  Sum of spin   charges =     1.000000

 -----------------------------------------------------------------
                    Cartesian Multipole Moments
 -----------------------------------------------------------------
    Charge (ESU x 10^10)
                 4.8032
    Dipole Moment (Debye)
         X      29.1944      Y      -1.5654      Z      -0.5638
       Tot      29.2417
    Quadrupole Moments (Debye-Ang)
        XX     161.4901     XY      -4.0362     YY     -89.6554
        XZ      -1.5054     YZ       4.3347     ZZ    -109.5726
    Octopole Moments (Debye-Ang^2)
       XXX     784.5670    XXY      16.2743    XYY    -553.0477
       YYY     146.8670    XXZ      11.0994    XYZ      22.3007
       YYZ      11.0829    XZZ    -670.8036    YZZ      54.2111
       ZZZ      51.4426
    Hexadecapole Moments (Debye-Ang^3)
      XXXX   -1260.5089   XXXY     422.9443   XXYY   -4528.2457
      XYYY     955.7176   YYYY    -898.0540   XXXZ     232.9711
      XXYZ     141.5829   XYYZ      76.7742   YYYZ     -68.2076
      XXZZ   -5392.0452   XYZZ     325.9209   YYZZ    -196.2820
      XZZZ     268.9165   YZZZ     -98.5469   ZZZZ    -180.3062
 -----------------------------------------------------------------
 Calculating analytic gradient of the SCF energy
 Gradient of SCF Energy
            1           2           3           4           5           6
    1   0.0068365   0.0045592  -0.0045498   0.0001026   0.0026851   0.0234538
    2  -0.0034331   0.0048300   0.0021349   0.0118562  -0.0264863   0.0106190
    3  -0.0011507   0.0009962  -0.0000469   0.0038144  -0.0056386   0.0034505
            7           8           9          10          11          12
    1  -0.0015545  -0.0211634  -0.0024573   0.0465073  -0.0668441   0.0027892
    2   0.0061731   0.0630089  -0.0059727  -0.0464074  -0.0323477   0.0398758
    3   0.0005559   0.0117883  -0.0009684  -0.0085824  -0.0083231   0.0077111
           13          14          15          16          17          18
    1   0.0348818   0.0037151  -0.0253550   0.0248233  -0.0050327  -0.0213782
    2  -0.0229707  -0.0035290  -0.0001527   0.0066181  -0.0041134  -0.0147976
    3  -0.0054738  -0.0003049   0.0029415  -0.0015853  -0.0011456  -0.0013513
           19          20          21          22          23
    1   0.0023897   0.0030328   0.0033875  -0.0039015  -0.0069270
    2   0.0262030  -0.0097914   0.0004833  -0.0051700   0.0033698
    3   0.0050984  -0.0006381  -0.0004641  -0.0008397   0.0001565
 Max gradient component =       6.684E-02
 RMS gradient           =       1.816E-02
 Gradient time:  CPU 4.24 s  wall 4.24 s
 Geometry Optimization Parameters
   NAtoms,    NIC,     NZ,  NCons,   NDum,   NFix, NCnnct, MaxDiis
       23     166       0       1       0       0       0       0


** CONSTRAINED OPTIMIZATION IN DELOCALIZED INTERNAL COORDINATES **
   Searching for a Minimum

   Optimization Cycle:   1

                       Coordinates (Angstroms)
     ATOM                X               Y               Z
      1  H         0.0000000000    0.0000000000    0.0000000000
      2  H         0.6636600000   -2.4682800000   -0.5912700000
      3  C         0.9910300000   -0.3910600000   -0.1165200000
      4  C         1.3681200000   -1.6744200000   -0.4248500000
      5  S         2.3466900000    0.6258600000    0.0863800000
      6  C         2.7616700000   -1.8217500000   -0.5082200000
      7  H         3.2629100000   -2.7387700000   -0.7619900000
      8  C         3.4467100000   -0.6504300000   -0.2605700000
      9  H         4.5564500000    1.4390267100    0.1570438500
     10  C         4.8838200000   -0.6504300000   -0.2605700000
     11  C         5.2609100000    0.6409019400    0.0124539000
     12  S         6.2394800000   -1.6725311300   -0.4355093900
     13  C         6.6544600000    0.7904624800    0.0917531100
     14  H         7.1557000000    1.7140965300    0.3202821300
     15  C         7.3395000000   -0.3872077300   -0.1236860000
     16  C         8.7766100000   -0.3872077300   -0.1236860000
     17  H         8.9604100000    1.7351825600    0.2050143100
     18  C         9.4616500000    0.7904628100    0.0917531700
     19  S         9.8766300000   -1.6996815000   -0.2870949400
     20  C        10.8552000000    0.6225144400    0.1129676000
     21  C        11.2322900000   -0.6818426300   -0.0888544500
     22  H        11.5596600000    1.4201373500    0.2602992400
     23  H        12.2233200000   -1.0878665300   -0.1294744800
   Point Group: c1    Number of degrees of freedom:    63


   Energy is  -1656.370415628

              Constraints and their Current Values
                                        Value     Constraint
   Dihedral:       13  15  16  18       -0.000        0.000

 Attempting to Generate Delocalized Internal Coordinates

 62 Hessian modes will be used to form the next step
  Hessian Eigenvalues:
     0.045000    0.045000    0.045000    0.045000    0.045000    0.045000
     0.045001    0.045001    0.045001    0.045002    0.045003    0.045003
     0.045011    0.045012    0.045012    0.045025    0.045032    0.045058
     0.045059    0.159944    0.159945    0.159945    0.159992    0.159993
     0.159993    0.160000    0.160000    0.221307    0.221308    0.227041
     0.237995    0.238010    0.245411    0.249662    0.249670    0.249670
     0.249825    0.326317    0.326319    0.326962    0.340043    0.340044
     0.340629    0.365512    0.365512    0.365513    0.366888    0.366889
     0.366889    0.370099    0.370100    0.399845    0.399845    0.435419
     0.435419    0.435422    0.463117    0.463122    0.464282    0.495500
     0.495500    0.495533

 Minimum Search - Taking Simple RFO Step
 Searching for Lamda that Minimizes Along All modes
 Value Taken    Lamda =  -0.07576139
 Calculated Step too Large.  Step scaled by  0.645492
 Step Taken.  Stepsize is  0.300000

                             Maximum     Tolerance    Cnvgd?
         Gradient           0.102808      0.000300      NO
         Displacement       0.200177      0.001200      NO
         Energy change     *********      0.000001      NO


 New Cartesian Coordinates Obtained by Inverse Iteration

 Displacement from previous Coordinates is:  2.449967
 ----------------------------------------------------------------
             Standard Nuclear Orientation (Angstroms)
    I     Atom           X                Y                Z
 ----------------------------------------------------------------
    1      H      -0.1312845110    -0.3603896378    -0.0713605873
    2      H       0.8257182525    -2.7475998290    -0.6439804818
    3      C       0.9067957270    -0.6345629130    -0.1637799552
    4      C       1.4329686042    -1.8737623425    -0.4623583294
    5      S       2.1232644582     0.5519633218     0.0718547738
    6      C       2.8362098691    -1.8524847715    -0.5093963972
    7      H       3.4458790016    -2.7116449944    -0.7479882482
    8      C       3.3864288912    -0.5948162300    -0.2449885890
    9      H       4.5579923269     1.7495890358     0.2131672356
   10      C       4.8154418897    -0.3875090706    -0.2039062119
   11      C       5.2373779233     0.9271970592     0.0676113297
   12      S       6.1795077965    -1.4175756218    -0.3751325787
   13      C       6.6239938786     1.0687092897     0.1416640376
   14      H       7.1208945413     1.9975188815     0.3635679645
   15      C       7.3048976630    -0.1335582958    -0.0729080297
   16      C       8.7392806693    -0.2546094539    -0.0979314043
   17      H       9.2817134547     1.8384150536     0.2126516340
   18      C       9.6130901651     0.8214951692     0.0904109978
   19      S       9.6347657302    -1.7268873070    -0.2845851164
   20      C      10.9652658233     0.4456778639     0.0724253669
   21      C      11.1320212688    -0.9084518387    -0.1290070533
   22      H      11.7897975728     1.1315960723     0.1935040994
   23      H      12.0548590034    -1.4611418710    -0.1938824070
 ----------------------------------------------------------------
 Nuclear Repulsion Energy =  1179.1235765047 hartrees
 There are       64 alpha and       63 beta electrons
 Applying Cartesian multipole field
    Component          Value
    ---------          -----
     (2,0,0)        1.00000E-12
     (0,2,0)        2.00000E-11
     (0,0,2)       -3.00000E-11
 Nucleus-field energy     =     0.0000000340 hartrees
 Requested basis set is 6-31++G(d,p)
 There are 110 shells and 345 basis functions
 A cutoff of  1.0D-12 yielded   4697 shell pairs
 There are     47871 function pairs

 Q-Chem warning in module /project/projectdirs/jcesr/qchem/qc44/cnl_qc441/compile/cori/qc_src/libqints/qchem/aobasis.C, line 68:

 Using reconstructed effective core potential

 Smallest overlap matrix eigenvalue = 1.11E-07
 Linear dependence detected in AO basis
 Number of orthogonalized atomic orbitals = 342
 Maximum deviation from orthogonality = 7.591E-11
 Guess MOs from SCF MO coefficient file
 Reading MOs from coefficient file
 Reading MOs from coefficient file
 An unrestricted hybrid HF-DFT SCF calculation will be
 performed using Pulay DIIS extrapolation
 Exchange:     0.2000 Hartree-Fock + 0.0800 Slater + 0.7200 B88
 Correlation:  0.1900 VWN1RPA + 0.8100 LYP
 Using SG-1 standard quadrature grid
 SCF converges when DIIS error is below 1.0E-08
 Geometry optimization detected.  Setting ReadMinima to 0
 Setting SaveMinima to 0
 ---------------------------------------
  Cycle       Energy         DIIS Error
 ---------------------------------------
    1   -1656.3111263075      9.05E-03
    2   -1656.3355732708      1.87E-03
    3   -1656.0313954261      4.36E-03
    4   -1656.3976090362      5.63E-04
    5   -1656.4024955752      2.21E-04
    6   -1656.4032644075      8.18E-05
    7   -1656.4033730067      3.38E-05
    8   -1656.4033954952      1.07E-05
    9   -1656.4033995211      4.70E-06
   10   -1656.4034013956      3.35E-06
   11   -1656.4034023679      1.04E-06
   12   -1656.4034025386      5.55E-07
   13   -1656.4034026134      2.76E-07
   14   -1656.4034026304      1.66E-07
   15   -1656.4034026362      6.72E-08
   16   -1656.4034026369      2.52E-08
   17   -1656.4034026368      1.17E-08
   18   -1656.4034026366      7.54E-09 Convergence criterion met
 ---------------------------------------
 <S^2> = 0.7688
 SCF time:  CPU 25.43 s  wall 23.70 s
 SCF   energy in the final basis set = -1656.4034026366
 Total energy in the final basis set = -1656.4034026366
 
 --------------------------------------------------------------
 
                    Orbital Energies (a.u.)
 --------------------------------------------------------------
 
 Alpha MOs
 -- Occupied --
-89.081 -89.066 -89.064 -10.410 -10.409 -10.392 -10.390 -10.376
-10.376 -10.362 -10.361 -10.356 -10.353 -10.342 -10.341  -8.140
 -8.126  -8.124  -6.105  -6.101  -6.097  -6.090  -6.088  -6.086
 -6.084  -6.083  -6.081  -1.070  -1.045  -1.033  -0.946  -0.913
 -0.896  -0.892  -0.888  -0.845  -0.771  -0.746  -0.712  -0.705
 -0.689  -0.679  -0.674  -0.652  -0.608  -0.576  -0.575  -0.568
 -0.563  -0.549  -0.547  -0.545  -0.533  -0.524  -0.523  -0.511
 -0.494  -0.489  -0.457  -0.421  -0.406  -0.403  -0.398  -0.350
 -- Virtual --
 -0.226  -0.174  -0.150  -0.130  -0.126  -0.113  -0.112  -0.103
 -0.099  -0.092  -0.089  -0.087  -0.081  -0.079  -0.070  -0.069
 -0.065  -0.064  -0.060  -0.052  -0.046  -0.041  -0.039  -0.033
 -0.031  -0.023  -0.014  -0.013  -0.008  -0.003   0.001   0.004
  0.012   0.013   0.018   0.018   0.025   0.026   0.029   0.030
  0.031   0.037   0.045   0.045   0.046   0.048   0.051   0.053
  0.059   0.061   0.065   0.068   0.074   0.077   0.083   0.084
  0.088   0.090   0.095   0.099   0.100   0.110   0.114   0.119
  0.120   0.123   0.131   0.133   0.143   0.145   0.152   0.155
  0.163   0.166   0.175   0.183   0.185   0.190   0.193   0.204
  0.210   0.214   0.227   0.233   0.239   0.243   0.254   0.262
  0.263   0.276   0.282   0.296   0.305   0.326   0.348   0.360
  0.366   0.381   0.398   0.402   0.430   0.436   0.443   0.468
  0.471   0.483   0.501   0.505   0.506   0.516   0.517   0.522
  0.525   0.530   0.535   0.557   0.568   0.570   0.581   0.587
  0.594   0.595   0.600   0.605   0.631   0.634   0.651   0.652
  0.660   0.670   0.677   0.687   0.693   0.706   0.735   0.759
  0.793   0.802   0.803   0.808   0.816   0.824   0.828   0.839
  0.847   0.853   0.867   0.872   0.880   0.885   0.898   0.915
  0.925   0.931   0.936   0.943   0.967   0.967   0.978   0.992
  1.018   1.027   1.031   1.052   1.067   1.092   1.099   1.108
  1.127   1.140   1.153   1.185   1.192   1.198   1.204   1.208
  1.216   1.219   1.221   1.271   1.291   1.322   1.325   1.377
  1.386   1.435   1.440   1.466   1.505   1.531   1.558   1.561
  1.667   1.689   1.700   1.740   1.762   1.773   1.783   1.789
  1.814   1.817   1.839   1.858   1.864   1.876   1.906   1.929
  1.941   1.948   1.981   2.002   2.009   2.040   2.052   2.072
  2.085   2.101   2.121   2.135   2.168   2.191   2.228   2.233
  2.261   2.296   2.314   2.324   2.327   2.336   2.364   2.378
  2.383   2.397   2.399   2.412   2.436   2.452   2.479   2.496
  2.523   2.553   2.570   2.577   2.586   2.658   2.696   2.733
  2.754   2.782   2.820   2.844   3.000   3.049   3.094   3.151
  3.155   3.200   3.282   3.288   3.535   3.608   3.619   3.803
  3.845   3.873   4.106   4.114   4.153   4.170   4.183   4.198
  4.231   4.319   4.407   4.493   4.560   4.590
 
 Beta MOs
 -- Occupied --
-89.081 -89.066 -89.064 -10.408 -10.406 -10.391 -10.390 -10.373
-10.373 -10.361 -10.360 -10.353 -10.351 -10.342 -10.342  -8.141
 -8.126  -8.124  -6.105  -6.101  -6.097  -6.090  -6.088  -6.086
 -6.084  -6.083  -6.081  -1.066  -1.042  -1.029  -0.941  -0.911
 -0.891  -0.891  -0.886  -0.837  -0.768  -0.744  -0.710  -0.702
 -0.688  -0.677  -0.672  -0.650  -0.606  -0.574  -0.566  -0.565
 -0.561  -0.548  -0.544  -0.537  -0.532  -0.523  -0.512  -0.510
 -0.493  -0.488  -0.438  -0.419  -0.402  -0.400  -0.380
 -- Virtual --
 -0.297  -0.211  -0.163  -0.149  -0.125  -0.119  -0.112  -0.103
 -0.101  -0.098  -0.091  -0.089  -0.081  -0.079  -0.078  -0.069
 -0.065  -0.063  -0.060  -0.059  -0.051  -0.044  -0.041  -0.039
 -0.032  -0.030  -0.022  -0.014  -0.012  -0.007  -0.003   0.004
  0.005   0.012   0.014   0.019   0.019   0.026   0.027   0.029
  0.031   0.031   0.037   0.046   0.046   0.047   0.049   0.051
  0.054   0.061   0.062   0.066   0.068   0.074   0.077   0.084
  0.085   0.089   0.092   0.096   0.099   0.102   0.110   0.115
  0.120   0.121   0.124   0.133   0.134   0.144   0.146   0.152
  0.156   0.164   0.167   0.176   0.183   0.186   0.191   0.194
  0.205   0.211   0.215   0.228   0.234   0.240   0.244   0.256
  0.263   0.264   0.277   0.284   0.297   0.306   0.328   0.349
  0.360   0.367   0.381   0.399   0.404   0.431   0.438   0.445
  0.469   0.472   0.485   0.507   0.509   0.512   0.518   0.522
  0.527   0.529   0.532   0.537   0.559   0.570   0.572   0.586
  0.588   0.594   0.596   0.602   0.610   0.633   0.640   0.653
  0.654   0.662   0.672   0.682   0.688   0.697   0.710   0.736
  0.759   0.795   0.804   0.806   0.809   0.817   0.828   0.831
  0.840   0.848   0.854   0.868   0.873   0.881   0.887   0.899
  0.916   0.927   0.932   0.937   0.944   0.968   0.969   0.979
  0.993   1.019   1.030   1.034   1.055   1.070   1.094   1.103
  1.113   1.132   1.143   1.159   1.189   1.195   1.201   1.206
  1.210   1.221   1.222   1.226   1.273   1.297   1.325   1.328
  1.381   1.393   1.439   1.445   1.469   1.512   1.534   1.567
  1.570   1.670   1.691   1.703   1.742   1.763   1.774   1.785
  1.790   1.818   1.822   1.843   1.862   1.868   1.879   1.909
  1.936   1.944   1.950   1.987   2.008   2.016   2.046   2.057
  2.079   2.090   2.106   2.124   2.142   2.172   2.195   2.231
  2.236   2.265   2.299   2.319   2.325   2.329   2.341   2.366
  2.380   2.387   2.400   2.402   2.415   2.439   2.454   2.483
  2.498   2.526   2.554   2.573   2.581   2.587   2.661   2.700
  2.736   2.756   2.783   2.823   2.846   3.001   3.050   3.095
  3.151   3.155   3.200   3.284   3.290   3.536   3.609   3.621
  3.803   3.845   3.873   4.110   4.117   4.156   4.175   4.186
  4.200   4.236   4.322   4.412   4.496   4.562   4.593
 --------------------------------------------------------------
 
          Ground-State Mulliken Net Atomic Charges

     Atom                 Charge (a.u.)    Spin (a.u.)
  --------------------------------------------------------
      1 H                     0.245980      -0.011142
      2 H                     0.159704       0.001682
      3 C                     0.064042       0.222625
      4 C                    -0.280211      -0.043565
      5 S                    -0.013236      -0.027947
      6 C                     0.481077       0.142715
      7 H                     0.142642      -0.009145
      8 C                    -0.025210       0.030449
      9 H                     0.111261      -0.005466
     10 C                    -0.039681       0.185945
     11 C                    -0.397279       0.053653
     12 S                    -0.197313      -0.057313
     13 C                    -0.019305       0.034004
     14 H                     0.124668      -0.003334
     15 C                     0.094326       0.186033
     16 C                    -0.126607       0.031999
     17 H                     0.113499      -0.009973
     18 C                     0.402621       0.143359
     19 S                     0.067738      -0.032163
     20 C                    -0.373456      -0.046720
     21 C                     0.061066       0.223738
     22 H                     0.161242       0.002286
     23 H                     0.242432      -0.011719
  --------------------------------------------------------
  Sum of atomic charges =     1.000000
  Sum of spin   charges =     1.000000

 -----------------------------------------------------------------
                    Cartesian Multipole Moments
 -----------------------------------------------------------------
    Charge (ESU x 10^10)
                 4.8032
    Dipole Moment (Debye)
         X      29.1645      Y      -1.4849      Z      -0.5464
       Tot      29.2073
    Quadrupole Moments (Debye-Ang)
        XX     162.0736     XY      -2.8000     YY     -88.1284
        XZ      -1.3519     YZ       4.5314     ZZ    -110.0641
    Octopole Moments (Debye-Ang^2)
       XXX     807.7901    XXY      10.0800    XYY    -536.3105
       YYY     135.8171    XXZ       8.3217    XYZ      23.3580
       YYZ      10.1127    XZZ    -667.1955    YZZ      50.7309
       ZZZ      48.8299
    Hexadecapole Moments (Debye-Ang^3)
      XXXX    -863.5032   XXXY     195.8869   XXYY   -4356.0799
      XYYY     857.0340   YYYY    -889.5207   XXXZ     166.0023
      XXYZ     152.3261   XYYZ      69.6453   YYYZ     -61.4371
      XXZZ   -5339.1576   XYZZ     293.7713   YYZZ    -198.4995
      XZZZ     246.9274   YZZZ     -95.7543   ZZZZ    -178.6477
 -----------------------------------------------------------------
 Calculating analytic gradient of the SCF energy
 Gradient of SCF Energy
            1           2           3           4           5           6
    1   0.0032269   0.0014568  -0.0024820  -0.0027291   0.0003983   0.0095638
    2  -0.0014318   0.0020943   0.0002342   0.0040403  -0.0157793   0.0041029
    3  -0.0006406   0.0004665  -0.0002943   0.0018505  -0.0028521   0.0021322
            7           8           9          10          11          12
    1  -0.0010219  -0.0279179   0.0032567   0.0354256  -0.0297565   0.0009841
    2   0.0030470   0.0394931  -0.0029845  -0.0431801  -0.0078565   0.0284459
    3  -0.0001584   0.0066098  -0.0004633  -0.0086218  -0.0026638   0.0052414
           13          14          15          16          17          18
    1   0.0196899  -0.0012564  -0.0206360   0.0186263   0.0006656  -0.0076656
    2  -0.0058116  -0.0035396  -0.0017787  -0.0046797  -0.0038177  -0.0017133
    3  -0.0019494  -0.0001090   0.0030834  -0.0037804  -0.0011354   0.0007708
           19          20          21          22          23
    1   0.0018946   0.0019442   0.0010380  -0.0018875  -0.0028180
    2   0.0148962  -0.0044252   0.0005648  -0.0019036   0.0019828
    3   0.0029199   0.0001229  -0.0003567  -0.0002494   0.0000774
 Max gradient component =       4.318E-02
 RMS gradient           =       1.170E-02
 Gradient time:  CPU 4.21 s  wall 4.16 s
 Geometry Optimization Parameters
   NAtoms,    NIC,     NZ,  NCons,   NDum,   NFix, NCnnct, MaxDiis
       23     166       0       1       0       0       0       0

 Cartesian Hessian Update
 Hessian Updated using BFGS Update


** CONSTRAINED OPTIMIZATION IN DELOCALIZED INTERNAL COORDINATES **
   Searching for a Minimum

   Optimization Cycle:   2

                       Coordinates (Angstroms)
     ATOM                X               Y               Z
      1  H        -0.1312845110   -0.3603896378   -0.0713605873
      2  H         0.8257182525   -2.7475998290   -0.6439804818
      3  C         0.9067957270   -0.6345629130   -0.1637799552
      4  C         1.4329686042   -1.8737623425   -0.4623583294
      5  S         2.1232644582    0.5519633218    0.0718547738
      6  C         2.8362098691   -1.8524847715   -0.5093963972
      7  H         3.4458790016   -2.7116449944   -0.7479882482
      8  C         3.3864288912   -0.5948162300   -0.2449885890
      9  H         4.5579923269    1.7495890358    0.2131672356
     10  C         4.8154418897   -0.3875090706   -0.2039062119
     11  C         5.2373779233    0.9271970592    0.0676113297
     12  S         6.1795077965   -1.4175756218   -0.3751325787
     13  C         6.6239938786    1.0687092897    0.1416640376
     14  H         7.1208945413    1.9975188815    0.3635679645
     15  C         7.3048976630   -0.1335582958   -0.0729080297
     16  C         8.7392806693   -0.2546094539   -0.0979314043
     17  H         9.2817134547    1.8384150536    0.2126516340
     18  C         9.6130901651    0.8214951692    0.0904109978
     19  S         9.6347657302   -1.7268873070   -0.2845851164
     20  C        10.9652658233    0.4456778639    0.0724253669
     21  C        11.1320212688   -0.9084518387   -0.1290070533
     22  H        11.7897975728    1.1315960723    0.1935040994
     23  H        12.0548590034   -1.4611418710   -0.1938824070
   Point Group: c1    Number of degrees of freedom:    63


   Energy is  -1656.403402637

              Constraints and their Current Values
                                        Value     Constraint
   Dihedral:       13  15  16  18       -0.000        0.000
 Hessian Updated using BFGS Update

 62 Hessian modes will be used to form the next step
  Hessian Eigenvalues:
     0.044970    0.045000    0.045000    0.045000    0.045000    0.045001
     0.045001    0.045001    0.045002    0.045002    0.045003    0.045006
     0.045011    0.045012    0.045012    0.045021    0.045031    0.045052
     0.045059    0.159746    0.159944    0.159954    0.159987    0.159993
     0.159996    0.160000    0.160982    0.201706    0.221308    0.221676
     0.228033    0.238002    0.239084    0.247057    0.249670    0.249706
     0.298366    0.323612    0.326437    0.327533    0.339016    0.340115
     0.340597    0.365176    0.365512    0.365872    0.366567    0.366889
     0.367424    0.369906    0.370100    0.399790    0.420208    0.434882
     0.435419    0.437391    0.463002    0.463608    0.470311    0.495103
     0.495501    0.569014

 Minimum Search - Taking Simple RFO Step
 Searching for Lamda that Minimizes Along All modes
 Value Taken    Lamda =  -0.02189887
 Calculated Step too Large.  Step scaled by  0.975208
 Step Taken.  Stepsize is  0.300000

                             Maximum     Tolerance    Cnvgd?
         Gradient           0.031217      0.000300      NO
         Displacement       0.116496      0.001200      NO
         Energy change     -0.032987      0.000001      NO


 New Cartesian Coordinates Obtained by Inverse Iteration

 Displacement from previous Coordinates is:  1.445270
 ----------------------------------------------------------------
             Standard Nuclear Orientation (Angstroms)
    I     Atom           X                Y                Z
 ----------------------------------------------------------------
    1      H      -0.0961902383    -0.5238630586    -0.1216800672
    2      H       0.9799116627    -2.8761239980    -0.6765740538
    3      C       0.9606354063    -0.7500749025    -0.1970722006
    4      C       1.5474548335    -1.9727889121    -0.4870375753
    5      S       2.1032607717     0.5128301771     0.0566267073
    6      C       2.9469802476    -1.8909173580    -0.5075498733
    7      H       3.6009450347    -2.7280471544    -0.7290553391
    8      C       3.4265281992    -0.5947547501    -0.2326118862
    9      H       4.5403354193     1.9431618407     0.2559478011
   10      C       4.7868448503    -0.2124170323    -0.1521103057
   11      C       5.2253519371     1.1135100099     0.1136851057
   12      S       6.1305648679    -1.2990786577    -0.3313303676
   13      C       6.5988492671     1.2326185904     0.1744203213
   14      H       7.1185502759     2.1607250080     0.3829922852
   15      C       7.2645684666     0.0027607156    -0.0423866244
   16      C       8.6673112096    -0.1874665551    -0.0826891958
   17      H       9.3780288615     1.8712608004     0.2202516840
   18      C       9.6294029256     0.8245531223     0.0878536113
   19      S       9.4320142857    -1.7497580116    -0.2899975075
   20      C      10.9431693487     0.3361534674     0.0405595023
   21      C      10.9926827127    -1.0362280539    -0.1601828101
   22      H      11.8272325911     0.9540911212     0.1443939330
   23      H      11.8724470633    -1.6629788386    -0.2408010948
 ----------------------------------------------------------------
 Nuclear Repulsion Energy =  1182.9857381834 hartrees
 There are       64 alpha and       63 beta electrons
 Applying Cartesian multipole field
    Component          Value
    ---------          -----
     (2,0,0)        1.00000E-12
     (0,2,0)        2.00000E-11
     (0,0,2)       -3.00000E-11
 Nucleus-field energy     =     0.0000000342 hartrees
 Requested basis set is 6-31++G(d,p)
 There are 110 shells and 345 basis functions
 A cutoff of  1.0D-12 yielded   4687 shell pairs
 There are     47740 function pairs

 Q-Chem warning in module /project/projectdirs/jcesr/qchem/qc44/cnl_qc441/compile/cori/qc_src/libqints/qchem/aobasis.C, line 68:

 Using reconstructed effective core potential

 Smallest overlap matrix eigenvalue = 7.76E-08
 Linear dependence detected in AO basis
 Number of orthogonalized atomic orbitals = 342
 Maximum deviation from orthogonality = 9.861E-11
 Guess MOs from SCF MO coefficient file
 Reading MOs from coefficient file
 Reading MOs from coefficient file
 An unrestricted hybrid HF-DFT SCF calculation will be
 performed using Pulay DIIS extrapolation
 Exchange:     0.2000 Hartree-Fock + 0.0800 Slater + 0.7200 B88
 Correlation:  0.1900 VWN1RPA + 0.8100 LYP
 Using SG-1 standard quadrature grid
 SCF converges when DIIS error is below 1.0E-08
 Geometry optimization detected.  Setting ReadMinima to 0
 Setting SaveMinima to 0
 ---------------------------------------
  Cycle       Energy         DIIS Error
 ---------------------------------------
    1   -1656.3727676384      4.60E-03
    2   -1656.4018962077      8.59E-04
    3   -1656.3539108371      1.85E-03
    4   -1656.4145808016      2.43E-04
    5   -1656.4154884223      8.60E-05
    6   -1656.4156148607      2.25E-05
    7   -1656.4156227920      1.04E-05
    8   -1656.4156245628      3.28E-06
    9   -1656.4156247793      1.55E-06
   10   -1656.4156248517      3.13E-07
   11   -1656.4156248779      2.25E-07
   12   -1656.4156248883      9.96E-08
   13   -1656.4156248922      6.30E-08
   14   -1656.4156248939      2.80E-08
   15   -1656.4156248944      1.85E-08
   16   -1656.4156248955      8.63E-09 Convergence criterion met
 ---------------------------------------
 <S^2> = 0.7717
 SCF time:  CPU 22.53 s  wall 21.06 s
 SCF   energy in the final basis set = -1656.4156248955
 Total energy in the final basis set = -1656.4156248955
 
 --------------------------------------------------------------
 
                    Orbital Energies (a.u.)
 --------------------------------------------------------------
 
 Alpha MOs
 -- Occupied --
-89.077 -89.065 -89.065 -10.409 -10.408 -10.389 -10.388 -10.378
-10.378 -10.366 -10.365 -10.358 -10.357 -10.344 -10.344  -8.136
 -8.125  -8.124  -6.101  -6.097  -6.093  -6.089  -6.088  -6.085
 -6.085  -6.082  -6.081  -1.066  -1.042  -1.027  -0.944  -0.916
 -0.894  -0.893  -0.884  -0.839  -0.771  -0.748  -0.711  -0.706
 -0.689  -0.677  -0.674  -0.643  -0.606  -0.574  -0.573  -0.568
 -0.559  -0.549  -0.547  -0.545  -0.535  -0.522  -0.519  -0.514
 -0.496  -0.491  -0.456  -0.423  -0.407  -0.405  -0.395  -0.344
 -- Virtual --
 -0.232  -0.176  -0.158  -0.132  -0.127  -0.113  -0.112  -0.103
 -0.095  -0.093  -0.091  -0.083  -0.081  -0.079  -0.070  -0.068
 -0.064  -0.063  -0.060  -0.050  -0.045  -0.041  -0.039  -0.031
 -0.030  -0.022  -0.013  -0.011  -0.008  -0.003   0.002   0.004
  0.011   0.013   0.017   0.018   0.025   0.027   0.029   0.030
  0.033   0.036   0.043   0.046   0.046   0.049   0.050   0.053
  0.059   0.061   0.066   0.067   0.072   0.078   0.083   0.086
  0.087   0.091   0.095   0.098   0.099   0.108   0.114   0.117
  0.121   0.124   0.130   0.133   0.138   0.140   0.152   0.154
  0.162   0.164   0.176   0.179   0.185   0.192   0.197   0.201
  0.209   0.212   0.227   0.234   0.240   0.246   0.251   0.258
  0.264   0.268   0.280   0.299   0.310   0.325   0.345   0.359
  0.376   0.382   0.399   0.403   0.426   0.439   0.450   0.466
  0.469   0.473   0.500   0.505   0.507   0.513   0.515   0.523
  0.526   0.530   0.537   0.553   0.568   0.571   0.581   0.589
  0.591   0.594   0.598   0.608   0.628   0.633   0.647   0.652
  0.665   0.675   0.683   0.694   0.702   0.708   0.737   0.759
  0.793   0.793   0.802   0.805   0.817   0.821   0.827   0.837
  0.844   0.849   0.864   0.869   0.880   0.886   0.893   0.911
  0.917   0.927   0.935   0.944   0.962   0.969   0.972   0.988
  1.015   1.026   1.035   1.056   1.074   1.091   1.097   1.105
  1.132   1.135   1.149   1.185   1.188   1.198   1.201   1.210
  1.215   1.216   1.219   1.303   1.313   1.338   1.345   1.381
  1.392   1.431   1.435   1.468   1.518   1.534   1.554   1.561
  1.657   1.682   1.714   1.730   1.754   1.774   1.781   1.794
  1.794   1.820   1.824   1.855   1.862   1.872   1.909   1.917
  1.936   1.943   1.975   2.003   2.008   2.037   2.050   2.068
  2.086   2.097   2.114   2.125   2.162   2.184   2.224   2.230
  2.256   2.292   2.302   2.308   2.325   2.334   2.350   2.368
  2.377   2.388   2.395   2.407   2.429   2.441   2.476   2.487
  2.520   2.546   2.564   2.574   2.583   2.656   2.719   2.732
  2.757   2.781   2.821   2.843   2.984   3.040   3.085   3.140
  3.142   3.175   3.269   3.274   3.525   3.598   3.608   3.799
  3.841   3.877   4.112   4.123   4.152   4.170   4.180   4.200
  4.235   4.323   4.407   4.493   4.561   4.595
 
 Beta MOs
 -- Occupied --
-89.077 -89.065 -89.065 -10.406 -10.405 -10.389 -10.388 -10.375
-10.374 -10.365 -10.364 -10.356 -10.355 -10.345 -10.344  -8.136
 -8.125  -8.124  -6.101  -6.097  -6.093  -6.089  -6.089  -6.085
 -6.085  -6.082  -6.082  -1.062  -1.038  -1.023  -0.939  -0.914
 -0.892  -0.890  -0.882  -0.831  -0.767  -0.745  -0.708  -0.703
 -0.687  -0.674  -0.672  -0.641  -0.605  -0.572  -0.567  -0.563
 -0.556  -0.548  -0.545  -0.536  -0.534  -0.520  -0.514  -0.508
 -0.495  -0.490  -0.437  -0.421  -0.402  -0.401  -0.378
 -- Virtual --
 -0.291  -0.215  -0.165  -0.156  -0.126  -0.121  -0.113  -0.103
 -0.102  -0.095  -0.092  -0.091  -0.081  -0.078  -0.075  -0.069
 -0.065  -0.063  -0.059  -0.058  -0.049  -0.043  -0.041  -0.038
 -0.031  -0.030  -0.021  -0.013  -0.011  -0.007  -0.003   0.004
  0.005   0.011   0.014   0.018   0.018   0.026   0.027   0.029
  0.031   0.033   0.037   0.043   0.046   0.047   0.050   0.051
  0.054   0.061   0.061   0.066   0.067   0.073   0.079   0.084
  0.087   0.088   0.092   0.096   0.098   0.101   0.108   0.114
  0.118   0.122   0.125   0.132   0.134   0.139   0.142   0.153
  0.155   0.163   0.165   0.177   0.179   0.187   0.193   0.199
  0.202   0.211   0.213   0.227   0.235   0.241   0.247   0.252
  0.259   0.265   0.269   0.282   0.301   0.310   0.326   0.346
  0.358   0.377   0.383   0.401   0.403   0.427   0.441   0.452
  0.467   0.471   0.474   0.503   0.510   0.512   0.515   0.523
  0.527   0.529   0.533   0.538   0.556   0.570   0.572   0.585
  0.591   0.592   0.595   0.600   0.614   0.629   0.639   0.648
  0.653   0.668   0.676   0.687   0.699   0.703   0.711   0.738
  0.759   0.794   0.796   0.803   0.806   0.819   0.825   0.830
  0.838   0.845   0.850   0.865   0.871   0.881   0.887   0.894
  0.912   0.919   0.928   0.935   0.945   0.964   0.970   0.974
  0.989   1.016   1.030   1.038   1.059   1.077   1.093   1.102
  1.108   1.135   1.140   1.154   1.187   1.191   1.201   1.205
  1.212   1.216   1.222   1.226   1.305   1.319   1.340   1.349
  1.384   1.399   1.435   1.440   1.472   1.524   1.538   1.564
  1.569   1.663   1.683   1.716   1.732   1.756   1.774   1.783
  1.796   1.799   1.823   1.828   1.859   1.866   1.875   1.915
  1.920   1.940   1.944   1.981   2.009   2.014   2.043   2.055
  2.075   2.090   2.100   2.120   2.132   2.165   2.189   2.227
  2.232   2.260   2.296   2.305   2.311   2.326   2.340   2.353
  2.369   2.382   2.389   2.400   2.410   2.431   2.444   2.478
  2.490   2.524   2.547   2.568   2.577   2.584   2.658   2.723
  2.735   2.759   2.783   2.824   2.845   2.985   3.041   3.086
  3.141   3.142   3.176   3.271   3.275   3.526   3.599   3.609
  3.799   3.842   3.877   4.116   4.127   4.155   4.175   4.183
  4.202   4.240   4.327   4.411   4.496   4.563   4.598
 --------------------------------------------------------------
 
          Ground-State Mulliken Net Atomic Charges

     Atom                 Charge (a.u.)    Spin (a.u.)
  --------------------------------------------------------
      1 H                     0.241424      -0.011421
      2 H                     0.162617       0.001734
      3 C                     0.042200       0.225498
      4 C                    -0.202355      -0.043124
      5 S                    -0.020667      -0.023390
      6 C                     0.508342       0.147066
      7 H                     0.150553      -0.009301
      8 C                    -0.163173       0.018593
      9 H                     0.137760      -0.005137
     10 C                    -0.098078       0.186962
     11 C                    -0.261074       0.050003
     12 S                    -0.437391      -0.065001
     13 C                     0.146678       0.045078
     14 H                     0.134945      -0.003944
     15 C                     0.109353       0.182160
     16 C                    -0.129892       0.016381
     17 H                     0.122643      -0.010247
     18 C                     0.406981       0.156022
     19 S                     0.060258      -0.028579
     20 C                    -0.385258      -0.053978
     21 C                     0.069676       0.234263
     22 H                     0.160609       0.002470
     23 H                     0.243846      -0.012108
  --------------------------------------------------------
  Sum of atomic charges =     1.000000
  Sum of spin   charges =     1.000000

 -----------------------------------------------------------------
                    Cartesian Multipole Moments
 -----------------------------------------------------------------
    Charge (ESU x 10^10)
                 4.8032
    Dipole Moment (Debye)
         X      29.1315      Y      -1.4452      Z      -0.5543
       Tot      29.1726
    Quadrupole Moments (Debye-Ang)
        XX     158.8454     XY      -2.5173     YY     -86.3434
        XZ      -1.4270     YZ       4.8095     ZZ    -110.2702
    Octopole Moments (Debye-Ang^2)
       XXX     759.3650    XXY       5.7113    XYY    -522.2899
       YYY     129.2340    XXZ       4.7817    XYZ      25.0334
       YYZ       9.1762    XZZ    -665.2246    YZZ      49.1171
       ZZZ      47.2364
    Hexadecapole Moments (Debye-Ang^3)
      XXXX   -1295.0448   XXXY      93.3251   XXYY   -4202.4230
      XYYY     802.3268   YYYY    -903.1185   XXXZ     107.9179
      XXYZ     164.3535   XYYZ      63.2964   YYYZ     -58.3287
      XXZZ   -5266.5423   XYZZ     279.9654   YYZZ    -204.4161
      XZZZ     236.3658   YZZZ     -97.0895   ZZZZ    -178.1368
 -----------------------------------------------------------------
 Calculating analytic gradient of the SCF energy
 Gradient of SCF Energy
            1           2           3           4           5           6
    1  -0.0002769   0.0000078   0.0025849  -0.0002580   0.0035051   0.0017433
    2   0.0006907  -0.0004571  -0.0009057  -0.0017570   0.0003819  -0.0031893
    3  -0.0000453  -0.0000619  -0.0001972  -0.0000839   0.0005501   0.0003630
            7           8           9          10          11          12
    1   0.0004584  -0.0080199  -0.0004311   0.0121068  -0.0024931  -0.0008362
    2  -0.0003017   0.0160375   0.0013549  -0.0178647   0.0028871   0.0017676
    3  -0.0007459   0.0020865   0.0001859  -0.0034396   0.0002995   0.0000232
           13          14          15          16          17          18
    1   0.0016590   0.0002540  -0.0066503   0.0032517  -0.0005074  -0.0023161
    2   0.0015134   0.0011909  -0.0007566  -0.0047915   0.0014359   0.0020411
    3  -0.0008172   0.0008253   0.0030898  -0.0038693  -0.0003961   0.0014646
           19          20          21          22          23
    1  -0.0019264  -0.0005431  -0.0014510  -0.0000181   0.0001565
    2   0.0007374   0.0011002  -0.0011737   0.0005692  -0.0005107
    3   0.0006615   0.0004073  -0.0002246   0.0001280  -0.0002038
 Max gradient component =       1.786E-02
 RMS gradient           =       3.803E-03
 Gradient time:  CPU 4.27 s  wall 4.20 s
 Geometry Optimization Parameters
   NAtoms,    NIC,     NZ,  NCons,   NDum,   NFix, NCnnct, MaxDiis
       23     166       0       1       0       0       0       0

 Cartesian Hessian Update
 Hessian Updated using BFGS Update


** CONSTRAINED OPTIMIZATION IN DELOCALIZED INTERNAL COORDINATES **
   Searching for a Minimum

   Optimization Cycle:   3

                       Coordinates (Angstroms)
     ATOM                X               Y               Z
      1  H        -0.0961902383   -0.5238630586   -0.1216800672
      2  H         0.9799116627   -2.8761239980   -0.6765740538
      3  C         0.9606354063   -0.7500749025   -0.1970722006
      4  C         1.5474548335   -1.9727889121   -0.4870375753
      5  S         2.1032607717    0.5128301771    0.0566267073
      6  C         2.9469802476   -1.8909173580   -0.5075498733
      7  H         3.6009450347   -2.7280471544   -0.7290553391
      8  C         3.4265281992   -0.5947547501   -0.2326118862
      9  H         4.5403354193    1.9431618407    0.2559478011
     10  C         4.7868448503   -0.2124170323   -0.1521103057
     11  C         5.2253519371    1.1135100099    0.1136851057
     12  S         6.1305648679   -1.2990786577   -0.3313303676
     13  C         6.5988492671    1.2326185904    0.1744203213
     14  H         7.1185502759    2.1607250080    0.3829922852
     15  C         7.2645684666    0.0027607156   -0.0423866244
     16  C         8.6673112096   -0.1874665551   -0.0826891958
     17  H         9.3780288615    1.8712608004    0.2202516840
     18  C         9.6294029256    0.8245531223    0.0878536113
     19  S         9.4320142857   -1.7497580116   -0.2899975075
     20  C        10.9431693487    0.3361534674    0.0405595023
     21  C        10.9926827127   -1.0362280539   -0.1601828101
     22  H        11.8272325911    0.9540911212    0.1443939330
     23  H        11.8724470633   -1.6629788386   -0.2408010948
   Point Group: c1    Number of degrees of freedom:    63


   Energy is  -1656.415624896

              Constraints and their Current Values
                                        Value     Constraint
   Dihedral:       13  15  16  18        0.000        0.000
 Hessian Updated using BFGS Update

 62 Hessian modes will be used to form the next step
  Hessian Eigenvalues:
     0.044647    0.045000    0.045000    0.045000    0.045000    0.045001
     0.045001    0.045001    0.045002    0.045002    0.045003    0.045008
     0.045011    0.045012    0.045014    0.045017    0.045032    0.045052
     0.045059    0.153684    0.159950    0.159953    0.159992    0.159995
     0.160000    0.160084    0.160271    0.176315    0.221354    0.222496
     0.229574    0.238030    0.240508    0.249553    0.249703    0.272357
     0.288304    0.322440    0.326427    0.327696    0.339150    0.340158
     0.341779    0.365512    0.365641    0.366210    0.366888    0.367216
     0.368258    0.370100    0.370899    0.400051    0.427231    0.435406
     0.435542    0.450859    0.463028    0.464128    0.481147    0.495501
     0.498296    0.564762

 Minimum Search - Taking Simple RFO Step
 Searching for Lamda that Minimizes Along All modes
 Value Taken    Lamda =  -0.00280389
 Step Taken.  Stepsize is  0.130322

                             Maximum     Tolerance    Cnvgd?
         Gradient           0.014950      0.000300      NO
         Displacement       0.055383      0.001200      NO
         Energy change     -0.012222      0.000001      NO


 New Cartesian Coordinates Obtained by Inverse Iteration

 Displacement from previous Coordinates is:  0.422729
 ----------------------------------------------------------------
             Standard Nuclear Orientation (Angstroms)
    I     Atom           X                Y                Z
 ----------------------------------------------------------------
    1      H      -0.1254180122    -0.5787474257    -0.1658576289
    2      H       1.0010790204    -2.9089694405    -0.6883477308
    3      C       0.9363780485    -0.7853608323    -0.2238510393
    4      C       1.5526962249    -1.9967721095    -0.4963453507
    5      S       2.0621470512     0.4887609877     0.0360993376
    6      C       2.9526441150    -1.9003032623    -0.4943385414
    7      H       3.6157340823    -2.7345019470    -0.6959878876
    8      C       3.4189086731    -0.6015333990    -0.2196417925
    9      H       4.5334505381     1.9929198310     0.2740368791
   10      C       4.7563214793    -0.1566288813    -0.1225726214
   11      C       5.2147480820     1.1607456424     0.1340344678
   12      S       6.1110969024    -1.2496637756    -0.3032586864
   13      C       6.5921477353     1.2689315433     0.1834674334
   14      H       7.1174397526     2.1958331838     0.3789651150
   15      C       7.2693412214     0.0422039334    -0.0323916962
   16      C       8.6699380767    -0.1618484774    -0.0747433543
   17      H       9.4382990062     1.8708189267     0.2351896884
   18      C       9.6640972212     0.8208609110     0.0904869458
   19      S       9.4122562112    -1.7407892061    -0.3000118318
   20      C      10.9681639898     0.3065676421     0.0283520517
   21      C      10.9906957368    -1.0633531243    -0.1783054602
   22      H      11.8666506554     0.9036554248     0.1282459219
   23      H      11.8580641885    -1.7056585754    -0.2675721691
 ----------------------------------------------------------------
 Nuclear Repulsion Energy =  1180.5363414460 hartrees
 There are       64 alpha and       63 beta electrons
 Applying Cartesian multipole field
    Component          Value
    ---------          -----
     (2,0,0)        1.00000E-12
     (0,2,0)        2.00000E-11
     (0,0,2)       -3.00000E-11
 Nucleus-field energy     =     0.0000000342 hartrees
 Requested basis set is 6-31++G(d,p)
 There are 110 shells and 345 basis functions
 A cutoff of  1.0D-12 yielded   4681 shell pairs
 There are     47723 function pairs

 Q-Chem warning in module /project/projectdirs/jcesr/qchem/qc44/cnl_qc441/compile/cori/qc_src/libqints/qchem/aobasis.C, line 68:

 Using reconstructed effective core potential

 Smallest overlap matrix eigenvalue = 5.88E-08
 Linear dependence detected in AO basis
 Number of orthogonalized atomic orbitals = 342
 Maximum deviation from orthogonality = 1.760E-10
 Guess MOs from SCF MO coefficient file
 Reading MOs from coefficient file
 Reading MOs from coefficient file
 An unrestricted hybrid HF-DFT SCF calculation will be
 performed using Pulay DIIS extrapolation
 Exchange:     0.2000 Hartree-Fock + 0.0800 Slater + 0.7200 B88
 Correlation:  0.1900 VWN1RPA + 0.8100 LYP
 Using SG-1 standard quadrature grid
 SCF converges when DIIS error is below 1.0E-08
 Geometry optimization detected.  Setting ReadMinima to 0
 Setting SaveMinima to 0
 ---------------------------------------
  Cycle       Energy         DIIS Error
 ---------------------------------------
    1   -1656.3905112084      1.42E-03
    2   -1656.4152265495      3.06E-04
    3   -1656.4100388666      6.14E-04
    4   -1656.4169311703      9.37E-05
    5   -1656.4170658644      2.86E-05
    6   -1656.4170790819      9.74E-06
    7   -1656.4170805701      3.74E-06
    8   -1656.4170808162      1.38E-06
    9   -1656.4170808697      6.33E-07
   10   -1656.4170808897      2.11E-07
   11   -1656.4170809001      1.14E-07
   12   -1656.4170809057      7.79E-08
   13   -1656.4170809057      3.29E-08
   14   -1656.4170809067      1.36E-08
   15   -1656.4170809066      7.38E-09 Convergence criterion met
 ---------------------------------------
 <S^2> = 0.7710
 SCF time:  CPU 20.80 s  wall 19.26 s
 SCF   energy in the final basis set = -1656.4170809066
 Total energy in the final basis set = -1656.4170809066
 
 --------------------------------------------------------------
 
                    Orbital Energies (a.u.)
 --------------------------------------------------------------
 
 Alpha MOs
 -- Occupied --
-89.074 -89.065 -89.064 -10.410 -10.409 -10.391 -10.390 -10.378
-10.378 -10.367 -10.366 -10.359 -10.358 -10.344 -10.344  -8.134
 -8.124  -8.124  -6.098  -6.094  -6.090  -6.088  -6.088  -6.084
 -6.084  -6.081  -6.081  -1.064  -1.041  -1.026  -0.945  -0.914
 -0.894  -0.892  -0.883  -0.841  -0.772  -0.749  -0.711  -0.707
 -0.688  -0.677  -0.673  -0.643  -0.608  -0.572  -0.572  -0.570
 -0.562  -0.550  -0.548  -0.545  -0.536  -0.520  -0.519  -0.511
 -0.494  -0.488  -0.457  -0.422  -0.407  -0.404  -0.395  -0.345
 -- Virtual --
 -0.232  -0.177  -0.156  -0.132  -0.127  -0.113  -0.112  -0.102
 -0.097  -0.092  -0.091  -0.082  -0.081  -0.079  -0.070  -0.067
 -0.064  -0.063  -0.061  -0.050  -0.045  -0.042  -0.039  -0.031
 -0.030  -0.022  -0.014  -0.011  -0.008  -0.004   0.002   0.005
  0.011   0.012   0.017   0.018   0.025   0.026   0.029   0.030
  0.033   0.036   0.042   0.046   0.047   0.048   0.050   0.053
  0.058   0.060   0.065   0.066   0.072   0.078   0.083   0.085
  0.087   0.092   0.095   0.098   0.099   0.107   0.112   0.118
  0.121   0.125   0.129   0.133   0.136   0.139   0.151   0.156
  0.161   0.166   0.175   0.179   0.184   0.193   0.199   0.200
  0.208   0.211   0.228   0.233   0.241   0.247   0.253   0.258
  0.266   0.269   0.280   0.303   0.311   0.326   0.346   0.358
  0.377   0.383   0.398   0.404   0.424   0.440   0.451   0.466
  0.471   0.472   0.500   0.505   0.508   0.513   0.513   0.522
  0.524   0.527   0.538   0.555   0.566   0.571   0.581   0.589
  0.590   0.592   0.596   0.608   0.628   0.631   0.645   0.651
  0.665   0.675   0.683   0.694   0.700   0.708   0.738   0.757
  0.792   0.793   0.802   0.804   0.818   0.821   0.828   0.837
  0.844   0.848   0.864   0.868   0.882   0.885   0.894   0.906
  0.916   0.928   0.936   0.944   0.962   0.967   0.977   0.988
  1.014   1.026   1.034   1.054   1.072   1.088   1.095   1.103
  1.127   1.134   1.147   1.185   1.187   1.198   1.199   1.209
  1.215   1.217   1.218   1.312   1.322   1.346   1.346   1.381
  1.393   1.432   1.435   1.466   1.522   1.533   1.554   1.563
  1.651   1.679   1.711   1.723   1.750   1.774   1.778   1.781
  1.792   1.816   1.822   1.850   1.857   1.870   1.902   1.919
  1.930   1.942   1.971   1.999   2.008   2.035   2.046   2.063
  2.084   2.089   2.117   2.123   2.157   2.187   2.224   2.230
  2.258   2.291   2.293   2.310   2.325   2.337   2.345   2.361
  2.379   2.390   2.397   2.405   2.430   2.442   2.470   2.491
  2.520   2.548   2.564   2.574   2.585   2.650   2.717   2.730
  2.768   2.793   2.824   2.846   2.983   3.042   3.087   3.142
  3.143   3.175   3.270   3.275   3.522   3.597   3.607   3.799
  3.841   3.876   4.111   4.127   4.150   4.174   4.180   4.200
  4.236   4.326   4.404   4.492   4.560   4.594
 
 Beta MOs
 -- Occupied --
-89.075 -89.065 -89.064 -10.408 -10.407 -10.391 -10.390 -10.375
-10.375 -10.366 -10.365 -10.357 -10.356 -10.345 -10.345  -8.134
 -8.124  -8.124  -6.098  -6.095  -6.091  -6.088  -6.088  -6.084
 -6.084  -6.081  -6.081  -1.060  -1.038  -1.023  -0.939  -0.912
 -0.891  -0.890  -0.881  -0.833  -0.769  -0.746  -0.708  -0.705
 -0.686  -0.674  -0.672  -0.641  -0.607  -0.570  -0.569  -0.562
 -0.559  -0.548  -0.546  -0.536  -0.535  -0.519  -0.511  -0.508
 -0.493  -0.487  -0.438  -0.420  -0.402  -0.400  -0.379
 -- Virtual --
 -0.292  -0.216  -0.166  -0.155  -0.126  -0.121  -0.112  -0.103
 -0.101  -0.096  -0.091  -0.091  -0.081  -0.078  -0.073  -0.070
 -0.064  -0.062  -0.060  -0.058  -0.049  -0.043  -0.041  -0.039
 -0.030  -0.029  -0.021  -0.013  -0.011  -0.007  -0.003   0.004
  0.005   0.011   0.012   0.018   0.018   0.026   0.027   0.029
  0.030   0.033   0.037   0.043   0.046   0.047   0.049   0.051
  0.054   0.061   0.061   0.066   0.066   0.072   0.079   0.084
  0.086   0.088   0.092   0.096   0.099   0.100   0.108   0.113
  0.119   0.122   0.126   0.131   0.134   0.137   0.140   0.152
  0.157   0.161   0.168   0.176   0.180   0.185   0.194   0.200
  0.201   0.210   0.213   0.229   0.234   0.242   0.248   0.254
  0.259   0.268   0.270   0.282   0.304   0.312   0.327   0.347
  0.358   0.378   0.383   0.400   0.404   0.425   0.441   0.453
  0.467   0.471   0.474   0.502   0.510   0.513   0.515   0.521
  0.525   0.527   0.532   0.539   0.557   0.569   0.572   0.585
  0.590   0.592   0.593   0.598   0.614   0.629   0.637   0.646
  0.653   0.668   0.676   0.687   0.699   0.701   0.711   0.739
  0.758   0.794   0.796   0.803   0.806   0.820   0.824   0.830
  0.838   0.845   0.849   0.864   0.870   0.883   0.886   0.894
  0.907   0.918   0.929   0.937   0.945   0.964   0.967   0.978
  0.989   1.015   1.029   1.037   1.057   1.075   1.090   1.101
  1.106   1.130   1.140   1.151   1.189   1.190   1.201   1.203
  1.211   1.218   1.221   1.225   1.314   1.328   1.348   1.350
  1.384   1.400   1.436   1.440   1.470   1.528   1.538   1.563
  1.571   1.657   1.681   1.712   1.726   1.752   1.775   1.782
  1.783   1.794   1.818   1.826   1.854   1.862   1.873   1.908
  1.922   1.933   1.943   1.978   2.006   2.014   2.041   2.050
  2.069   2.088   2.093   2.123   2.128   2.161   2.192   2.227
  2.232   2.262   2.292   2.298   2.315   2.326   2.343   2.347
  2.362   2.383   2.392   2.402   2.408   2.432   2.445   2.472
  2.494   2.523   2.549   2.568   2.578   2.586   2.653   2.720
  2.733   2.769   2.795   2.827   2.848   2.984   3.042   3.088
  3.143   3.143   3.175   3.271   3.276   3.524   3.598   3.608
  3.799   3.841   3.876   4.114   4.130   4.153   4.177   4.184
  4.202   4.241   4.329   4.408   4.495   4.562   4.597
 --------------------------------------------------------------
 
          Ground-State Mulliken Net Atomic Charges

     Atom                 Charge (a.u.)    Spin (a.u.)
  --------------------------------------------------------
      1 H                     0.242601      -0.011200
      2 H                     0.162816       0.001510
      3 C                     0.060250       0.221141
      4 C                    -0.210301      -0.039056
      5 S                    -0.027096      -0.020675
      6 C                     0.563042       0.141186
      7 H                     0.153348      -0.008942
      8 C                    -0.235587       0.020983
      9 H                     0.144629      -0.004855
     10 C                    -0.116879       0.187666
     11 C                    -0.192575       0.047270
     12 S                    -0.514458      -0.066801
     13 C                     0.184464       0.053163
     14 H                     0.138208      -0.004598
     15 C                     0.123188       0.178786
     16 C                    -0.138257       0.018348
     17 H                     0.125781      -0.010058
     18 C                     0.389113       0.154737
     19 S                     0.065142      -0.028479
     20 C                    -0.399414      -0.052014
     21 C                     0.075547       0.231472
     22 H                     0.160940       0.002339
     23 H                     0.245498      -0.011922
  --------------------------------------------------------
  Sum of atomic charges =     1.000000
  Sum of spin   charges =     1.000000

 -----------------------------------------------------------------
                    Cartesian Multipole Moments
 -----------------------------------------------------------------
    Charge (ESU x 10^10)
                 4.8032
    Dipole Moment (Debye)
         X      29.1451      Y      -1.4115      Z      -0.5673
       Tot      29.1847
    Quadrupole Moments (Debye-Ang)
        XX     160.1654     XY      -2.0735     YY     -86.3520
        XZ      -1.4008     YZ       4.7842     ZZ    -110.3614
    Octopole Moments (Debye-Ang^2)
       XXX     784.5695    XXY       6.2667    XYY    -521.6493
       YYY     127.2936    XXZ       2.9902    XYZ      25.1609
       YYZ       9.1323    XZZ    -664.6842    YZZ      48.5277
       ZZZ      46.8650
    Hexadecapole Moments (Debye-Ang^3)
      XXXX    -949.7408   XXXY      61.6530   XXYY   -4198.2620
      XYYY     783.0775   YYYY    -902.3484   XXXZ      73.7178
      XXYZ     168.8391   XYYZ      61.9776   YYYZ     -57.7811
      XXZZ   -5263.0203   XYZZ     273.6297   YYZZ    -205.0102
      XZZZ     232.5577   YZZZ     -97.0858   ZZZZ    -177.5268
 -----------------------------------------------------------------
 Calculating analytic gradient of the SCF energy
 Gradient of SCF Energy
            1           2           3           4           5           6
    1  -0.0004093  -0.0002787  -0.0011794  -0.0004738   0.0022187   0.0003662
    2   0.0003803   0.0001500  -0.0011864   0.0002851  -0.0013057  -0.0015338
    3  -0.0000315   0.0000843   0.0000224   0.0000722  -0.0001513   0.0003332
            7           8           9          10          11          12
    1   0.0003439   0.0012205  -0.0010068  -0.0006781   0.0005076  -0.0022753
    2   0.0001350   0.0043095  -0.0000075  -0.0046783   0.0020676   0.0018873
    3  -0.0004261   0.0001282  -0.0001843  -0.0008277   0.0002681   0.0000981
           13          14          15          16          17          18
    1  -0.0007219   0.0004721   0.0022704  -0.0014240  -0.0003292  -0.0002145
    2   0.0002545  -0.0000669  -0.0001364  -0.0013353   0.0003474   0.0001587
    3  -0.0007097   0.0004142   0.0025070  -0.0026848  -0.0003982   0.0009475
           19          20          21          22          23
    1  -0.0005863   0.0001905   0.0014345   0.0002604   0.0002926
    2   0.0010601  -0.0002547  -0.0003257  -0.0000823  -0.0001226
    3   0.0005240  -0.0000276   0.0001144   0.0000214  -0.0000937
 Max gradient component =       4.678E-03
 RMS gradient           =       1.205E-03
 Gradient time:  CPU 4.23 s  wall 4.18 s
 Geometry Optimization Parameters
   NAtoms,    NIC,     NZ,  NCons,   NDum,   NFix, NCnnct, MaxDiis
       23     166       0       1       0       0       0       0

 Cartesian Hessian Update
 Hessian Updated using BFGS Update


** CONSTRAINED OPTIMIZATION IN DELOCALIZED INTERNAL COORDINATES **
   Searching for a Minimum

   Optimization Cycle:   4

                       Coordinates (Angstroms)
     ATOM                X               Y               Z
      1  H        -0.1254180122   -0.5787474257   -0.1658576289
      2  H         1.0010790204   -2.9089694405   -0.6883477308
      3  C         0.9363780485   -0.7853608323   -0.2238510393
      4  C         1.5526962249   -1.9967721095   -0.4963453507
      5  S         2.0621470512    0.4887609877    0.0360993376
      6  C         2.9526441150   -1.9003032623   -0.4943385414
      7  H         3.6157340823   -2.7345019470   -0.6959878876
      8  C         3.4189086731   -0.6015333990   -0.2196417925
      9  H         4.5334505381    1.9929198310    0.2740368791
     10  C         4.7563214793   -0.1566288813   -0.1225726214
     11  C         5.2147480820    1.1607456424    0.1340344678
     12  S         6.1110969024   -1.2496637756   -0.3032586864
     13  C         6.5921477353    1.2689315433    0.1834674334
     14  H         7.1174397526    2.1958331838    0.3789651150
     15  C         7.2693412214    0.0422039334   -0.0323916962
     16  C         8.6699380767   -0.1618484774   -0.0747433543
     17  H         9.4382990062    1.8708189267    0.2351896884
     18  C         9.6640972212    0.8208609110    0.0904869458
     19  S         9.4122562112   -1.7407892061   -0.3000118318
     20  C        10.9681639898    0.3065676421    0.0283520517
     21  C        10.9906957368   -1.0633531243   -0.1783054602
     22  H        11.8666506554    0.9036554248    0.1282459219
     23  H        11.8580641885   -1.7056585754   -0.2675721691
   Point Group: c1    Number of degrees of freedom:    63


   Energy is  -1656.417080907

              Constraints and their Current Values
                                        Value     Constraint
   Dihedral:       13  15  16  18        0.000        0.000
 Hessian Updated using BFGS Update

 62 Hessian modes will be used to form the next step
  Hessian Eigenvalues:
     0.041826    0.045000    0.045000    0.045000    0.045001    0.045001
     0.045001    0.045001    0.045002    0.045002    0.045004    0.045010
     0.045011    0.045012    0.045016    0.045020    0.045040    0.045059
     0.045089    0.154441    0.159951    0.159969    0.159993    0.159999
     0.160019    0.160235    0.163065    0.167080    0.221510    0.222539
     0.229359    0.238050    0.241423    0.249696    0.250083    0.281037
     0.294349    0.322416    0.326447    0.327355    0.340078    0.340779
     0.341004    0.365513    0.365628    0.366312    0.366894    0.367222
     0.367708    0.370110    0.370394    0.401318    0.422841    0.435430
     0.435476    0.452476    0.462955    0.464033    0.480709    0.495498
     0.499500    0.569644

 Minimum Search - Taking Simple RFO Step
 Searching for Lamda that Minimizes Along All modes
 Value Taken    Lamda =  -0.00019086
 Step Taken.  Stepsize is  0.045539

                             Maximum     Tolerance    Cnvgd?
         Gradient           0.002001      0.000300      NO
         Displacement       0.017821      0.001200      NO
         Energy change     -0.001456      0.000001      NO


 New Cartesian Coordinates Obtained by Inverse Iteration

 Displacement from previous Coordinates is:  0.100381
 ----------------------------------------------------------------
             Standard Nuclear Orientation (Angstroms)
    I     Atom           X                Y                Z
 ----------------------------------------------------------------
    1      H      -0.1253673440    -0.5803944736    -0.1881854332
    2      H       1.0053792851    -2.9119134970    -0.6883964007
    3      C       0.9367019653    -0.7843332787    -0.2367602938
    4      C       1.5542275891    -1.9979162169    -0.4971361705
    5      S       2.0572055031     0.4915943568     0.0266330183
    6      C       2.9525985527    -1.9026348446    -0.4838358158
    7      H       3.6145135028    -2.7403504896    -0.6726706621
    8      C       3.4175064766    -0.6047401609    -0.2121130291
    9      H       4.5413379144     1.9972535829     0.2797927292
[...]
      2 H                     0.162704       0.001444
      3 C                     0.056826       0.220099
      4 C                    -0.209220      -0.037296
      5 S                    -0.021694      -0.019071
      6 C                     0.566850       0.138663
      7 H                     0.152857      -0.008830
      8 C                    -0.239883       0.022038
      9 H                     0.144015      -0.004771
     10 C                    -0.112411       0.189947
     11 C                    -0.205822       0.044111
     12 S                    -0.519026      -0.066017
     13 C                     0.180337       0.056033
     14 H                     0.136659      -0.004802
     15 C                     0.154477       0.175626
     16 C                    -0.137835       0.018826
     17 H                     0.125461      -0.009900
     18 C                     0.381810       0.153165
     19 S                     0.073673      -0.027903
     20 C                    -0.404592      -0.050770
     21 C                     0.066305       0.230181
     22 H                     0.161039       0.002284
     23 H                     0.245346      -0.011858
  --------------------------------------------------------
  Sum of atomic charges =     1.000000
  Sum of spin   charges =     1.000000

 -----------------------------------------------------------------
                    Cartesian Multipole Moments
 -----------------------------------------------------------------
    Charge (ESU x 10^10)
                 4.8032
    Dipole Moment (Debye)
         X      29.1459      Y      -1.4004      Z      -0.5903
       Tot      29.1855
    Quadrupole Moments (Debye-Ang)
        XX     160.0997     XY      -1.9970     YY     -86.2649
        XZ      -1.4526     YZ       4.8280     ZZ    -110.3644
    Octopole Moments (Debye-Ang^2)
       XXX     783.0946    XXY       7.3981    XYY    -521.8078
       YYY     126.4626    XXZ       1.1914    XYZ      27.2132
       YYZ      10.5196    XZZ    -664.0221    YZZ      48.5873
       ZZZ      49.9699
    Hexadecapole Moments (Debye-Ang^3)
      XXXX    -979.0678   XXXY      75.7649   XXYY   -4204.7639
      XYYY     780.0531   YYYY    -899.9304   XXXZ      51.8850
      XXYZ     195.9714   XYYZ      68.1958   YYYZ     -60.4753
      XXZZ   -5253.6517   XYZZ     272.7510   YYZZ    -205.6701
      XZZZ     252.3152   YZZZ     -99.4057   ZZZZ    -179.1457
 -----------------------------------------------------------------
 Calculating analytic gradient of the SCF energy
 Gradient of SCF Energy
            1           2           3           4           5           6
    1  -0.0000015  -0.0000037  -0.0000210   0.0000121   0.0000405  -0.0000131
    2   0.0000060   0.0000036  -0.0000222   0.0000100  -0.0000159  -0.0000292
    3   0.0000093  -0.0000035  -0.0000272   0.0000125   0.0000099  -0.0000785
            7           8           9          10          11          12
    1   0.0000060   0.0000162  -0.0000217  -0.0000177   0.0000281  -0.0000065
    2  -0.0000018   0.0000668  -0.0000079  -0.0000602   0.0000429   0.0000326
    3   0.0000320   0.0000943  -0.0000005  -0.0000312  -0.0000421   0.0000466
           13          14          15          16          17          18
    1  -0.0000250   0.0000097   0.0000056  -0.0000030  -0.0000061  -0.0000116
    2   0.0000048   0.0000018  -0.0000073  -0.0000499   0.0000031   0.0000113
    3   0.0000450  -0.0000263  -0.0001256   0.0001062   0.0000024  -0.0000412
           19          20          21          22          23
    1  -0.0000179   0.0000022   0.0000220   0.0000024   0.0000039
    2   0.0000204  -0.0000046  -0.0000027  -0.0000022   0.0000005
    3   0.0000033   0.0000021   0.0000052  -0.0000035   0.0000108
 Max gradient component =       1.256E-04
 RMS gradient           =       3.314E-05
 Gradient time:  CPU 4.20 s  wall 4.17 s
 Geometry Optimization Parameters
   NAtoms,    NIC,     NZ,  NCons,   NDum,   NFix, NCnnct, MaxDiis
       23     166       0       1       0       0       0       0

 Cartesian Hessian Update
 Hessian Updated using BFGS Update


** CONSTRAINED OPTIMIZATION IN DELOCALIZED INTERNAL COORDINATES **
   Searching for a Minimum

   Optimization Cycle:  10

                       Coordinates (Angstroms)
     ATOM                X               Y               Z
      1  H        -0.1257552923   -0.5681379021   -0.2344710642
      2  H         1.0021008472   -2.9137771416   -0.6663421633
      3  C         0.9364429129   -0.7758117497   -0.2631711232
      4  C         1.5517404929   -1.9978704709   -0.4870227679
      5  S         2.0575254936    0.5007624722   -0.0097782948
      6  C         2.9506852547   -1.9076884760   -0.4544247236
      7  H         3.6110663253   -2.7542225850   -0.6064672985
      8  C         3.4175290009   -0.6072536217   -0.2036674124
      9  H         4.5430730056    1.9934663986    0.2857989585
     10  C         4.7556903063   -0.1574653695   -0.1072324643
     11  C         5.2164490683    1.1569009468    0.1393165872
     12  S         6.1147004248   -1.2558304441   -0.2947945319
     13  C         6.5940153880    1.2673375595    0.1737462727
     14  H         7.1164246377    2.1992586903    0.3498170618
     15  C         7.2689040524    0.0417799081   -0.0455545901
     16  C         8.6711440866   -0.1596824142   -0.0694080820
     17  H         9.4413355094    1.8603397226    0.3117583389
     18  C         9.6645474714    0.8178614436    0.1199800851
     19  S         9.4125859879   -1.7311940376   -0.3559527354
     20  C        10.9676002956    0.3066043232    0.0358447372
     21  C        10.9880633458   -1.0553688477   -0.2173116405
     22  H        11.8655499677    0.9007280810    0.1536398006
     23  H        11.8554614175   -1.6935689156   -0.3286509000
   Point Group: c1    Number of degrees of freedom:    63


   Energy is  -1656.417275608

              Constraints and their Current Values
                                        Value     Constraint
   Dihedral:       13  15  16  18        0.000        0.000
 Hessian Updated using BFGS Update

 62 Hessian modes will be used to form the next step
  Hessian Eigenvalues:
     0.008897    0.018327    0.044933    0.045000    0.045000    0.045000
     0.045001    0.045001    0.045002    0.045003    0.045005    0.045010
     0.045012    0.045014    0.045016    0.045023    0.045042    0.045059
     0.045686    0.155226    0.159848    0.159975    0.160007    0.160100
     0.160233    0.160461    0.164269    0.168053    0.222583    0.223198
     0.228435    0.239291    0.247653    0.249573    0.250743    0.283064
     0.294334    0.317149    0.324027    0.326615    0.336390    0.340454
     0.341093    0.365526    0.365696    0.366323    0.366951    0.367245
     0.368553    0.370188    0.372222    0.402933    0.431032    0.436175
     0.441164    0.463064    0.464128    0.474805    0.493119    0.497543
     0.508380    0.567852

 Minimum Search - Taking Simple RFO Step
 Searching for Lamda that Minimizes Along All modes
 Value Taken    Lamda =   0.00000000
 Step Taken.  Stepsize is  0.005137

                             Maximum     Tolerance    Cnvgd?
         Gradient           0.000059      0.000300     YES
         Displacement       0.003232      0.001200      NO
         Energy change     -0.000001      0.000001     YES

 Final energy is   -1656.41727560805     


 ******************************
 **  OPTIMIZATION CONVERGED  **
 ******************************

                       Coordinates (Angstroms)
     ATOM                X               Y               Z
      1  H        -0.1257552923   -0.5681379021   -0.2344710642
      2  H         1.0021008472   -2.9137771416   -0.6663421633
      3  C         0.9364429129   -0.7758117497   -0.2631711232
      4  C         1.5517404929   -1.9978704709   -0.4870227679
      5  S         2.0575254936    0.5007624722   -0.0097782948
      6  C         2.9506852547   -1.9076884760   -0.4544247236
      7  H         3.6110663253   -2.7542225850   -0.6064672985
      8  C         3.4175290009   -0.6072536217   -0.2036674124
      9  H         4.5430730056    1.9934663986    0.2857989585
     10  C         4.7556903063   -0.1574653695   -0.1072324643
     11  C         5.2164490683    1.1569009468    0.1393165872
     12  S         6.1147004248   -1.2558304441   -0.2947945319
     13  C         6.5940153880    1.2673375595    0.1737462727
     14  H         7.1164246377    2.1992586903    0.3498170618
     15  C         7.2689040524    0.0417799081   -0.0455545901
     16  C         8.6711440866   -0.1596824142   -0.0694080820
     17  H         9.4413355094    1.8603397226    0.3117583389
     18  C         9.6645474714    0.8178614436    0.1199800851
     19  S         9.4125859879   -1.7311940376   -0.3559527354
     20  C        10.9676002956    0.3066043232    0.0358447372
     21  C        10.9880633458   -1.0553688477   -0.2173116405
     22  H        11.8655499677    0.9007280810    0.1536398006
     23  H        11.8554614175   -1.6935689156   -0.3286509000

Z-matrix Print:
$molecule
1 2
S 
C  1 1.754451
C  2 1.416178 1 110.398245
H  3 1.082769 2 122.689627 1 -179.991772 0
C  3 1.382415 2 113.696669 1 -0.068907 0
H  5 1.083852 3 123.647067 2 -179.934850 0
C  5 1.414441 3 113.777536 2 0.031467 0
C  7 1.415021 5 127.974851 3 179.998575 0
C  8 1.404262 7 128.383656 5 179.656548 0
H  9 1.084362 8 123.060867 7 0.200589 0
C  9 1.402227 8 113.289602 7 -179.827875 0
H  11 1.083118 9 124.368004 8 179.984176 0
C  11 1.386408 9 112.477767 8 0.002753 0
H  13 1.082690 11 127.500035 9 -179.913492 0
C  2 1.416839 1 122.924604 3 179.980218 0
C  15 1.406524 2 126.720649 1 -179.976881 0
H  16 1.083219 15 123.172874 2 0.119552 0
C  16 1.402287 15 113.255478 2 -179.899444 0
H  18 1.083131 16 124.322731 15 -179.982190 0
C  18 1.385452 16 112.525675 15 0.034472 0
H  20 1.082624 18 127.598833 16 -179.995299 0
S  13 1.717753 11 112.907055 9 0.002851 0
S  20 1.719910 18 112.797964 16 -0.011131 0
$end

 
 --------------------------------------------------------------
 
                    Orbital Energies (a.u.)
 --------------------------------------------------------------
 
 Alpha MOs
 -- Occupied --
-89.074 -89.065 -89.065 -10.410 -10.409 -10.391 -10.390 -10.378
-10.378 -10.367 -10.365 -10.358 -10.357 -10.344 -10.344  -8.133
 -8.124  -8.124  -6.098  -6.094  -6.090  -6.088  -6.088  -6.084
 -6.084  -6.081  -6.081  -1.064  -1.041  -1.026  -0.944  -0.914
 -0.894  -0.892  -0.883  -0.841  -0.772  -0.749  -0.711  -0.707
 -0.689  -0.677  -0.674  -0.643  -0.608  -0.572  -0.572  -0.570
 -0.561  -0.550  -0.547  -0.545  -0.535  -0.520  -0.519  -0.512
 -0.494  -0.488  -0.457  -0.422  -0.407  -0.404  -0.395  -0.345
 -- Virtual --
 -0.232  -0.177  -0.157  -0.132  -0.128  -0.113  -0.111  -0.103
 -0.097  -0.092  -0.091  -0.082  -0.081  -0.079  -0.070  -0.067
 -0.065  -0.063  -0.061  -0.050  -0.045  -0.042  -0.039  -0.031
 -0.030  -0.022  -0.014  -0.011  -0.008  -0.003   0.002   0.004
  0.011   0.012   0.017   0.018   0.025   0.026   0.028   0.030
  0.033   0.036   0.042   0.046   0.046   0.048   0.050   0.054
  0.058   0.060   0.065   0.066   0.072   0.078   0.083   0.085
  0.088   0.092   0.095   0.098   0.098   0.107   0.112   0.118
  0.121   0.125   0.130   0.132   0.136   0.139   0.151   0.156
  0.161   0.167   0.176   0.179   0.185   0.193   0.199   0.200
  0.210   0.212   0.229   0.234   0.242   0.248   0.254   0.258
  0.268   0.272   0.281   0.305   0.316   0.326   0.351   0.356
  0.378   0.382   0.399   0.404   0.424   0.441   0.452   0.467
  0.471   0.476   0.505   0.505   0.507   0.508   0.513   0.524
  0.524   0.527   0.539   0.559   0.563   0.571   0.580   0.589
  0.591   0.592   0.594   0.607   0.630   0.630   0.646   0.652
  0.664   0.676   0.683   0.694   0.700   0.708   0.738   0.757
  0.792   0.793   0.802   0.804   0.819   0.820   0.827   0.838
  0.845   0.849   0.865   0.868   0.883   0.886   0.894   0.906
  0.917   0.930   0.936   0.945   0.962   0.965   0.977   0.990
  1.016   1.027   1.035   1.055   1.072   1.090   1.096   1.103
  1.128   1.136   1.149   1.185   1.189   1.197   1.200   1.210
  1.214   1.216   1.218   1.316   1.323   1.344   1.347   1.383
  1.392   1.434   1.435   1.465   1.523   1.533   1.554   1.562
  1.651   1.679   1.711   1.724   1.751   1.776   1.777   1.782
  1.794   1.817   1.824   1.850   1.859   1.873   1.903   1.921
  1.932   1.944   1.970   2.000   2.008   2.036   2.048   2.065
  2.086   2.087   2.117   2.122   2.157   2.187   2.225   2.231
  2.258   2.293   2.295   2.310   2.326   2.338   2.345   2.362
  2.379   2.391   2.398   2.406   2.431   2.442   2.470   2.493
  2.521   2.549   2.565   2.576   2.587   2.650   2.718   2.733
  2.771   2.795   2.824   2.848   2.986   3.043   3.089   3.143
  3.144   3.178   3.271   3.277   3.523   3.598   3.608   3.799
  3.840   3.877   4.111   4.126   4.151   4.175   4.181   4.201
  4.236   4.327   4.405   4.493   4.561   4.596
 
 Beta MOs
 -- Occupied --
-89.075 -89.065 -89.065 -10.407 -10.407 -10.391 -10.390 -10.375
-10.375 -10.366 -10.365 -10.356 -10.355 -10.345 -10.344  -8.134
 -8.124  -8.124  -6.098  -6.094  -6.090  -6.088  -6.088  -6.084
 -6.084  -6.081  -6.081  -1.059  -1.037  -1.023  -0.939  -0.912
 -0.891  -0.890  -0.881  -0.833  -0.768  -0.746  -0.708  -0.704
 -0.687  -0.675  -0.672  -0.641  -0.606  -0.570  -0.568  -0.562
 -0.559  -0.548  -0.546  -0.535  -0.534  -0.519  -0.511  -0.508
 -0.493  -0.487  -0.438  -0.420  -0.402  -0.400  -0.379
 -- Virtual --
 -0.293  -0.216  -0.166  -0.156  -0.127  -0.121  -0.112  -0.102
 -0.102  -0.096  -0.091  -0.091  -0.081  -0.078  -0.072  -0.070
 -0.064  -0.062  -0.060  -0.057  -0.049  -0.043  -0.041  -0.038
 -0.030  -0.029  -0.021  -0.013  -0.011  -0.007  -0.003   0.004
  0.005   0.011   0.012   0.018   0.018   0.026   0.028   0.029
  0.030   0.033   0.037   0.043   0.047   0.047   0.049   0.052
  0.054   0.061   0.061   0.065   0.066   0.072   0.079   0.085
  0.086   0.089   0.092   0.097   0.099   0.100   0.107   0.112
  0.119   0.122   0.126   0.132   0.134   0.137   0.140   0.152
  0.158   0.161   0.168   0.177   0.180   0.186   0.194   0.200
  0.201   0.211   0.213   0.230   0.235   0.242   0.249   0.255
  0.259   0.269   0.273   0.283   0.306   0.317   0.328   0.351
  0.355   0.379   0.382   0.401   0.404   0.426   0.442   0.454
  0.468   0.472   0.477   0.506   0.510   0.513   0.515   0.517
  0.526   0.527   0.532   0.539   0.563   0.565   0.572   0.584
  0.591   0.592   0.594   0.596   0.613   0.630   0.637   0.647
  0.653   0.668   0.677   0.687   0.699   0.701   0.711   0.739
  0.758   0.794   0.796   0.803   0.806   0.821   0.824   0.830
  0.839   0.846   0.850   0.865   0.870   0.884   0.887   0.895
  0.907   0.918   0.931   0.937   0.946   0.964   0.966   0.978
  0.991   1.017   1.030   1.037   1.058   1.076   1.091   1.103
  1.105   1.132   1.143   1.152   1.190   1.190   1.201   1.203
  1.211   1.217   1.221   1.224   1.318   1.329   1.347   1.349
  1.386   1.399   1.438   1.440   1.468   1.531   1.536   1.564
  1.571   1.657   1.680   1.712   1.727   1.753   1.777   1.782
  1.784   1.796   1.820   1.828   1.854   1.863   1.876   1.910
  1.923   1.935   1.945   1.977   2.007   2.014   2.042   2.052
  2.071   2.090   2.091   2.124   2.127   2.161   2.192   2.228
  2.233   2.262   2.294   2.300   2.315   2.327   2.343   2.347
  2.363   2.383   2.392   2.403   2.409   2.433   2.445   2.472
  2.497   2.524   2.550   2.569   2.579   2.589   2.652   2.720
  2.736   2.773   2.797   2.827   2.850   2.986   3.044   3.090
  3.143   3.144   3.179   3.272   3.278   3.524   3.599   3.610
  3.799   3.840   3.877   4.114   4.130   4.153   4.178   4.185
  4.204   4.241   4.331   4.409   4.496   4.564   4.599
 --------------------------------------------------------------
 
          Ground-State Mulliken Net Atomic Charges

     Atom                 Charge (a.u.)    Spin (a.u.)
  --------------------------------------------------------
      1 H                     0.242126      -0.011199
      2 H                     0.162704       0.001444
      3 C                     0.056826       0.220099
      4 C                    -0.209220      -0.037296
      5 S                    -0.021694      -0.019071
      6 C                     0.566850       0.138663
      7 H                     0.152857      -0.008830
      8 C                    -0.239883       0.022038
      9 H                     0.144015      -0.004771
     10 C                    -0.112411       0.189947
     11 C                    -0.205822       0.044111
     12 S                    -0.519026      -0.066017
     13 C                     0.180337       0.056033
     14 H                     0.136659      -0.004802
     15 C                     0.154477       0.175626
     16 C                    -0.137835       0.018826
     17 H                     0.125461      -0.009900
     18 C                     0.381810       0.153165
     19 S                     0.073673      -0.027903
     20 C                    -0.404592      -0.050770
     21 C                     0.066305       0.230181
     22 H                     0.161039       0.002284
     23 H                     0.245346      -0.011858
  --------------------------------------------------------
  Sum of atomic charges =     1.000000
  Sum of spin   charges =     1.000000

 -----------------------------------------------------------------
                    Cartesian Multipole Moments
 -----------------------------------------------------------------
    Charge (ESU x 10^10)
                 4.8032
    Dipole Moment (Debye)
         X      29.1459      Y      -1.4004      Z      -0.5903
       Tot      29.1855
    Quadrupole Moments (Debye-Ang)
        XX     160.0997     XY      -1.9970     YY     -86.2649
        XZ      -1.4526     YZ       4.8280     ZZ    -110.3644
    Octopole Moments (Debye-Ang^2)
       XXX     783.0946    XXY       7.3981    XYY    -521.8078
       YYY     126.4626    XXZ       1.1914    XYZ      27.2132
       YYZ      10.5196    XZZ    -664.0221    YZZ      48.5873
       ZZZ      49.9699
    Hexadecapole Moments (Debye-Ang^3)
      XXXX    -979.0678   XXXY      75.7649   XXYY   -4204.7639
      XYYY     780.0531   YYYY    -899.9304   XXXZ      51.8850
      XXYZ     195.9714   XYYZ      68.1958   YYYZ     -60.4753
      XXZZ   -5253.6517   XYZZ     272.7510   YYZZ    -205.6701
      XZZZ     252.3152   YZZZ     -99.4057   ZZZZ    -179.1457
 -----------------------------------------------------------------
Archival summary:
1\1\nid00444\OPT\ProcedureUnspecified\BasisUnspecified\3128(1+,2)\bwood\TueMay3011:02:212017TueMay3011:02:212017\0\\#,OPT,ProcedureUnspecified,BasisUnspecified,\\1,2\S\C,1,1.75445\C,2,1.41618,1,110.398\H,3,1.08277,2,122.69,1,-179.992,0\C,3,1.38241,2,113.697,1,-0.0689069,0\H,5,1.08385,3,123.647,2,-179.935,0\C,5,1.41444,3,113.778,2,0.0314673,0\C,7,1.41502,5,127.975,3,179.999,0\C,8,1.40426,7,128.384,5,179.657,0\H,9,1.08436,8,123.061,7,0.200589,0\C,9,1.40223,8,113.29,7,-179.828,0\H,11,1.08312,9,124.368,8,179.984,0\C,11,1.38641,9,112.478,8,0.00275325,0\H,13,1.08269,11,127.5,9,-179.913,0\C,2,1.41684,1,122.925,3,179.98,0\C,15,1.40652,2,126.721,1,-179.977,0\H,16,1.08322,15,123.173,2,0.119552,0\C,16,1.40229,15,113.255,2,-179.899,0\H,18,1.08313,16,124.323,15,-179.982,0\C,18,1.38545,16,112.526,15,0.0344717,0\H,20,1.08262,18,127.599,16,-179.995,0\S,13,1.71775,11,112.907,9,0.00285089,0\S,20,1.71991,18,112.798,16,-0.0111306,0\\\@

 Total job time:  216.68s(wall), 229.72s(cpu) 
 Tue May 30 11:02:21 2017

        *************************************************************
        *                                                           *
        *  Thank you very much for using Q-Chem.  Have a nice day.  *
        *                                                           *
        *************************************************************


0 sent ACK to 0 
now end server 0 ... 
