srun -N 1 --ntasks-per-node 22 --cpus-per-task 2 --cpu_bind=cores --nodelist nid00500 /global/project/projectdirs/jcesr/qchem/qc44/cnl_qc441/dist/exe/qcprog.cori.haswell.exe .pt_nn_cation_60.0.in.33857.qcin.1 /dev/shm/eg_qchem/qchem33857/
Process 2 of 22 is on nid00500 - thread support 0
Process 3 of 22 is on nid00500 - thread support 0
Process 4 of 22 is on nid00500 - thread support 0
Process 6 of 22 is on nid00500 - thread support 0
Process 0 of 22 is on nid00500 - thread support 0
Process 1 of 22 is on nid00500 - thread support 0
Process 5 of 22 is on nid00500 - thread support 0
Process 21 of 22 is on nid00500 - thread support 0
initial socket setup ...start
initial socket setup ...done 
now start server 0 ... 
nid00500 10.128.1
Q-Chem Developer Version! Running on 10.128.1.*
                  Welcome to Q-Chem
     A Quantum Leap Into The Future Of Chemistry


 Q-Chem 4.4, Q-Chem, Inc., Pleasanton, CA (2016)

 Y. Shao,  Z. Gan,  E. Epifanovsky,  A. T. B. Gilbert,  M. Wormit,  
 J. Kussmann,  A. W. Lange,  A. Behn,  J. Deng,  X. Feng,  D. Ghosh,  
 M. Goldey,  P. R. Horn,  L. D. Jacobson,  I. Kaliman,  F. Rob,  
 R. Z. Khaliullin,  T. Kus,  A. Landau,  J. Liu,  E. I. Proynov,  Y. M. Rhee,  
 R. M. Richard,  M. A. Rohrdanz,  R. P. Steele,  E. J. Sundstrom,  
 H. L. Woodcock III,  P. M. Zimmerman,  D. Zuev,  B. Albrecht,  E. Alguire,  
 B. Austin,  S. A. Baeppler,  G. J. O. Beran,  Y. A. Bernard,  
 E. J. Berquist,  K. Brandhorst,  K. B. Bravaya,  S. T. Brown,  D. Casanova,  
 C.-M. Chang,  Y. Chen,  S. H. Chien,  K. D. Closser,  M. P. Coons,  
 D. L. Crittenden,  S. Dasgupta,  M. Diedenhofen,  R. A. DiStasio Jr.,  
 H. Do,  A. D. Dutoi,  R. G. Edgar,  P.-T. Fang,  S. Fatehi,  Q. Feng,  
 L. Fusti-Molnar,  A. Ghysels,  A. Golubeva-Zadorozhnaya,  J. Gomes,  
 A. Gunina,  M. W. D. Hanson-Heine,  P. H. P. Harbach,  A. W. Hauser,  
 J. E. Herr,  E. G. Hohenstein,  Z. C. Holden,  K. Hui,  T.-C. Jagau,  H. Ji,  
 B. Kaduk,  K. Khistyaev,  Jaehoon Kim,  Jihan Kim,  R. A. King,  
 P. Klunzinger,  K. Koh,  D. Kosenkov,  T. Kowalczyk,  C. M. Krauter,  
 A. Kunitsa,  K. U. Lao,  A. Laurent,  K. V. Lawler,  J. Lee,  D. Lefrancois,  
 S. Lehtola,  S. V. Levchenko,  C. Y. Lin,  Y.-S. Lin,  F. Liu,  E. Livshits,  
 R. C. Lochan,  A. Luenser,  P. Manohar,  S. F. Manzer,  S.-P. Mao,  Y. Mao,  
 N. Mardirossian,  A. V. Marenich,  L. A. Martinez-Martinez,  S. A. Maurer,  
 N. J. Mayhall,  J.-M. Mewes,  A. F. Morrison,  K. Nanda,  T. S. Nguyen-Beck,  
 C. M. Oana,  R. Olivares-Amaya,  D. P. O'Neill,  J. A. Parkhill,  
 T. M. Perrine,  R. Peverati,  P. A. Pieniazek,  F. Plasser,  A. Prociuk,  
 D. R. Rehn,  E. Rosta,  N. J. Russ,  N. Sergueev,  S. M. Sharada,  
 S. Sharma,  D. W. Small,  A. Sodt,  T. Stauch,  T. Stein,  D. Stuck,  
 Y.-C. Su,  A. J. W. Thom,  T. Tsuchimochi,  L. Vogt,  O. Vydrov,  T. Wang,  
 M. A. Watson,  J. Wenzel,  A. White,  C. F. Williams,  V. Vanovschi,  
 K. Yao,  S. Yeganeh,  S. R. Yost,  Z.-Q. You,  I. Y. Zhang,  X. Zhang,  
 Y. Zhao,  B. R. Brooks,  G. K. L. Chan,  D. M. Chipman,  C. J. Cramer,  
 W. A. Goddard III,  M. S. Gordon,  W. J. Hehre,  A. Klamt,  
 H. F. Schaefer III,  M. W. Schmidt,  C. D. Sherrill,  D. G. Truhlar,  
 A. Warshel,  X. Xu,  A. Aspuru-Guzik,  R. Baer,  A. T. Bell,  N. A. Besley,  
 J.-D. Chai,  A. Dreuw,  B. D. Dunietz,  T. R. Furlani,  S. R. Gwaltney,  
 C.-P. Hsu,  Y. Jung,  J. Kong,  D. S. Lambrecht,  W. Liang,  C. Ochsenfeld,  
 V. A. Rassolov,  L. V. Slipchenko,  J. E. Subotnik,  T. Van Voorhis,  
 J. M. Herbert,  A. I. Krylov,  P. M. W. Gill,  M. Head-Gordon

 Contributors to earlier versions of Q-Chem not listed above: 
 R. D. Adamson,  J. Baker,  E. F. C. Byrd,  A. K. Chakraborty,  C.-L. Cheng,  
 H. Dachsel,  R. J. Doerksen,  G. Hawkins,  A. Heyden,  S. Hirata,  
 G. Kedziora,  F. J. Keil,  C. Kelley,  P. P. Korambath,  W. Kurlancheek,  
 A. M. Lee,  M. S. Lee,  D. Liotard,  I. Lotan,  P. E. Maslen,  N. Nair,  
 D. Neuhauser,  R. Olson,  B. Peters,  J. Ritchie,  N. E. Schultz,  
 N. Shenvi,  A. C. Simmonett,  K. S. Thanthiriwatte,  Q. Wu,  W. Zhang

 Please cite Q-Chem as follows:
 Y. Shao et al., Mol. Phys. 113, 184-215 (2015)
 DOI: 10.1080/00268976.2014.952696

 Q-Chem 4.4.2 for Intel X86 EM64T Linux

 Parts of Q-Chem use Armadillo 5.200.1 (Boston Tea Smuggler).
 http://arma.sourceforge.net/

 Q-Chem begins on Tue May 30 10:58:48 2017  

Host: nid00444
0

     Scratch files written to /dev/shm/eg_qchem/qchem33857.0//
 Parallel job on  22  processors

Checking the input file for inconsistencies... 	...done.

--------------------------------------------------------------
User input:
--------------------------------------------------------------
$molecule
 1  2
 H           0.00000000        0.00000000        0.00000000
 H           0.66366000       -2.46828000       -0.59127000
 C           0.99103000       -0.39106000       -0.11652000
 C           1.36812000       -1.67442000       -0.42485000
 S           2.34669000        0.62586000        0.08638000
 C           2.76167000       -1.82175000       -0.50822000
 H           3.26291000       -2.73877000       -0.76199000
 C           3.44671000       -0.65043000       -0.26057000
 H           4.55645000        1.43902671        0.15704385
 C           4.88382000       -0.65043000       -0.26057000
 C           5.26091000        0.64090194        0.01245390
 S           6.23948000       -1.67253113       -0.43550939
 C           6.65446000        0.79046248        0.09175311
 H           7.15570000        1.71409653        0.32028213
 C           7.33950000       -0.38720773       -0.12368600
 C           8.77661000       -0.38720773       -0.12368600
 H           8.96041000        0.38932460        1.87870806
 C           9.46165000        0.01505175        1.00392618
 S           9.87663000       -0.90192832       -1.34202610
 C          10.85520000       -0.08729467        0.86908585
 C          11.23229000       -0.56469018       -0.36143154
 H          11.55966000        0.18392384        1.63351337
 H          12.22332000       -0.73252415       -0.73336856
$end


$rem
         jobtype = opt
        exchange = b3lyp
           basis = 6-31++g**
  max_scf_cycles = 150
      mem_static = 281
       mem_total = 2818
      sym_ignore = true
        symmetry = false
          thresh = 12
$end


$opt
CONSTRAINT
tors 13 15 16 18 60.0
ENDCONSTRAINT
$end

--------------------------------------------------------------
 ----------------------------------------------------------------
             Standard Nuclear Orientation (Angstroms)
    I     Atom           X                Y                Z
 ----------------------------------------------------------------
    1      H       0.0000000000     0.0000000000     0.0000000000
    2      H       0.6636600000    -2.4682800000    -0.5912700000
    3      C       0.9910300000    -0.3910600000    -0.1165200000
    4      C       1.3681200000    -1.6744200000    -0.4248500000
    5      S       2.3466900000     0.6258600000     0.0863800000
    6      C       2.7616700000    -1.8217500000    -0.5082200000
    7      H       3.2629100000    -2.7387700000    -0.7619900000
    8      C       3.4467100000    -0.6504300000    -0.2605700000
    9      H       4.5564500000     1.4390267100     0.1570438500
   10      C       4.8838200000    -0.6504300000    -0.2605700000
   11      C       5.2609100000     0.6409019400     0.0124539000
   12      S       6.2394800000    -1.6725311300    -0.4355093900
   13      C       6.6544600000     0.7904624800     0.0917531100
   14      H       7.1557000000     1.7140965300     0.3202821300
   15      C       7.3395000000    -0.3872077300    -0.1236860000
   16      C       8.7766100000    -0.3872077300    -0.1236860000
   17      H       8.9604100000     0.3893246000     1.8787080600
   18      C       9.4616500000     0.0150517500     1.0039261800
   19      S       9.8766300000    -0.9019283200    -1.3420261000
   20      C      10.8552000000    -0.0872946700     0.8690858500
   21      C      11.2322900000    -0.5646901800    -0.3614315400
   22      H      11.5596600000     0.1839238400     1.6335133700
   23      H      12.2233200000    -0.7325241500    -0.7333685600
 ----------------------------------------------------------------
 Nuclear Repulsion Energy =  1185.4428902698 hartrees
 There are       64 alpha and       63 beta electrons
 Requested basis set is 6-31++G(d,p)
 There are 110 shells and 345 basis functions

 Total QAlloc Memory Limit   2818 MB
 Mega-Array Size       275 MB
 MEM_STATIC part       281 MB
 A cutoff of  1.0D-12 yielded   4721 shell pairs
 There are     48130 function pairs

 Q-Chem warning in module /project/projectdirs/jcesr/qchem/qc44/cnl_qc441/compile/cori/qc_src/libqints/qchem/aobasis.C, line 68:

 Using reconstructed effective core potential

 
 -------------------------------------------------------
 OpenMP Integral Computing Module                       
 Release: version 1.0, May 2013, Q-Chem Inc. Pittsburgh 
 -------------------------------------------------------
 Integral Job Info:
 Integral job number is                      11
 Integral operator is                         1
 short-range coefficients                     0
 long-range coefficients              100000000
 Omega coefficients                           0
 if combine SR and LR in K                    0
 Integral screening is                        0
 Integral computing path is                   2
 max size of driver memory is            800000
 size of driver memory is                593474
 size of scratch memory is             15166112
 max col of scratch BK array               1296
 max len of scratch array in speh3          155
 max len of scratch index in speh4           18
 max int batch size is                      520
 min int batch size is                       52
 fixed nKL is                                52
 max L of basis functions is                  2
 order of int derivative is                   0
 number of shells is                        110
 number of basis is                         345
 number of cartesian basis is               345
 number of contracted shell pairs          4721
 number of primitive shell pairs          14778
 maxK2 (contraction) of shell pair           36
 max number of K2 of shell pair               1
 max number of CS2 of shell pair            507
 max number of PS2 of shell pair           3042
 mem total for path MDJ                  101288
 -------------------------------------------------------
 Smallest overlap matrix eigenvalue = 7.66E-08
 Linear dependence detected in AO basis
 Number of orthogonalized atomic orbitals = 342
 Maximum deviation from orthogonality = 1.264E-10

 Scale SEOQF with 1.000000e-02/1.000000e-01/1.000000e-01

 Standard Electronic Orientation quadrupole field applied
 Nucleus-field energy     =     0.0000000260 hartrees
 Guess from superposition of atomic densities
 Warning:  Energy on first SCF cycle will be non-variational
 An unrestricted hybrid HF-DFT SCF calculation will be
 performed using Pulay DIIS extrapolation
 Exchange:     0.2000 Hartree-Fock + 0.0800 Slater + 0.7200 B88
 Correlation:  0.1900 VWN1RPA + 0.8100 LYP
 Using SG-1 standard quadrature grid
 SCF converges when DIIS error is below 1.0E-08
 Inaccurate integrated density:
   Number of electrons =   127
   Numerical integral  =   127.999206846944
   Relative error      =     0.7867770448 %
 ---------------------------------------
  Cycle       Energy         DIIS Error
 ---------------------------------------
    1   -1660.7247851933      3.84E-02
    2   -1656.1551951829      3.54E-03
    3   -1655.8203770829      5.57E-03
    4   -1656.3506354868      8.40E-04
    5   -1656.3583028197      5.30E-04
    6   -1656.3624569893      1.96E-04
    7   -1656.3630717762      7.87E-05
    8   -1656.3631998977      2.13E-05
    9   -1656.3632196909      7.54E-06
   10   -1656.3632305046      3.23E-06
   11   -1656.3632380103      2.65E-06
   12   -1656.3632409537      1.14E-06
   13   -1656.3632419591      8.49E-07
   14   -1656.3632420933      3.04E-07
   15   -1656.3632421212      9.92E-08
   16   -1656.3632421239      5.72E-08
   17   -1656.3632421240      3.07E-08
   18   -1656.3632421245      2.16E-08
   19   -1656.3632421260      1.17E-08
   20   -1656.3632421249      6.78E-09 Convergence criterion met
 ---------------------------------------
 <S^2> = 0.7632
 SCF time:  CPU 27.12 s  wall 25.38 s
 SCF   energy in the final basis set = -1656.3632421249
 Total energy in the final basis set = -1656.3632421249
 
 --------------------------------------------------------------
 
                    Orbital Energies (a.u.)
 --------------------------------------------------------------
 
 Alpha MOs
 -- Occupied --
-89.087 -89.073 -89.056 -10.407 -10.406 -10.398 -10.384 -10.377
-10.361 -10.360 -10.356 -10.356 -10.348 -10.341 -10.329  -8.146
 -8.133  -8.115  -6.110  -6.106  -6.102  -6.098  -6.093  -6.090
 -6.079  -6.075  -6.072  -1.082  -1.054  -1.034  -0.957  -0.917
 -0.902  -0.895  -0.881  -0.848  -0.774  -0.750  -0.708  -0.705
 -0.693  -0.683  -0.676  -0.653  -0.608  -0.584  -0.581  -0.573
 -0.562  -0.554  -0.551  -0.539  -0.529  -0.525  -0.521  -0.509
 -0.496  -0.484  -0.451  -0.424  -0.411  -0.396  -0.391  -0.362
 -- Virtual --
 -0.219  -0.169  -0.148  -0.143  -0.119  -0.117  -0.108  -0.105
 -0.103  -0.095  -0.094  -0.091  -0.080  -0.080  -0.074  -0.074
 -0.068  -0.063  -0.059  -0.055  -0.048  -0.043  -0.038  -0.035
 -0.026  -0.020  -0.015  -0.014  -0.006  -0.003   0.003   0.008
  0.009   0.012   0.015   0.017   0.021   0.025   0.027   0.032
  0.034   0.039   0.042   0.042   0.044   0.048   0.051   0.054
  0.055   0.059   0.060   0.062   0.067   0.073   0.076   0.082
  0.086   0.094   0.097   0.100   0.108   0.110   0.112   0.119
  0.122   0.125   0.128   0.131   0.136   0.147   0.148   0.155
  0.165   0.168   0.171   0.172   0.178   0.180   0.190   0.193
  0.208   0.213   0.219   0.230   0.234   0.240   0.246   0.251
  0.258   0.264   0.276   0.287   0.307   0.327   0.345   0.350
  0.373   0.390   0.397   0.404   0.417   0.438   0.460   0.463
  0.486   0.488   0.493   0.500   0.504   0.510   0.514   0.516
  0.528   0.543   0.555   0.560   0.569   0.579   0.588   0.590
  0.599   0.603   0.610   0.613   0.629   0.644   0.651   0.658
  0.662   0.667   0.676   0.679   0.698   0.719   0.744   0.770
  0.791   0.797   0.803   0.811   0.821   0.826   0.833   0.845
  0.847   0.852   0.859   0.872   0.874   0.889   0.892   0.897
  0.904   0.918   0.920   0.943   0.955   0.965   0.973   0.980
  1.002   1.019   1.035   1.046   1.050   1.082   1.097   1.112
  1.137   1.152   1.157   1.179   1.191   1.196   1.204   1.213
  1.220   1.230   1.245   1.264   1.272   1.296   1.315   1.357
  1.396   1.413   1.453   1.481   1.500   1.554   1.564   1.606
  1.667   1.699   1.728   1.745   1.759   1.776   1.782   1.787
  1.797   1.841   1.843   1.848   1.879   1.900   1.913   1.941
  1.950   1.978   1.982   2.033   2.047   2.056   2.071   2.088
  2.096   2.118   2.143   2.146   2.176   2.193   2.230   2.251
  2.277   2.305   2.318   2.320   2.331   2.341   2.364   2.387
  2.391   2.397   2.418   2.444   2.450   2.473   2.477   2.514
  2.534   2.537   2.572   2.581   2.617   2.684   2.690   2.714
  2.753   2.780   2.801   2.818   3.028   3.061   3.080   3.156
  3.171   3.200   3.291   3.307   3.557   3.621   3.637   3.817
  3.844   3.853   4.101   4.151   4.170   4.182   4.193   4.217
  4.240   4.331   4.407   4.508   4.561   4.576
 
 Beta MOs
 -- Occupied --
-89.087 -89.073 -89.056 -10.404 -10.403 -10.397 -10.381 -10.376
-10.360 -10.359 -10.356 -10.354 -10.348 -10.340 -10.330  -8.146
 -8.133  -8.115  -6.110  -6.106  -6.103  -6.098  -6.094  -6.090
 -6.079  -6.075  -6.072  -1.077  -1.050  -1.031  -0.951  -0.915
 -0.898  -0.892  -0.880  -0.841  -0.770  -0.747  -0.705  -0.702
 -0.691  -0.681  -0.674  -0.652  -0.607  -0.581  -0.572  -0.571
 -0.560  -0.551  -0.544  -0.537  -0.526  -0.520  -0.516  -0.507
 -0.495  -0.483  -0.432  -0.421  -0.408  -0.392  -0.374
 -- Virtual --
 -0.309  -0.204  -0.161  -0.142  -0.138  -0.116  -0.115  -0.103
 -0.102  -0.097  -0.093  -0.090  -0.086  -0.080  -0.079  -0.073
 -0.072  -0.067  -0.062  -0.058  -0.054  -0.047  -0.042  -0.037
 -0.034  -0.025  -0.019  -0.014  -0.014  -0.005  -0.003   0.004
  0.008   0.010   0.013   0.015   0.018   0.022   0.025   0.028
  0.033   0.035   0.040   0.043   0.043   0.045   0.049   0.052
  0.055   0.056   0.060   0.061   0.063   0.068   0.074   0.077
  0.083   0.087   0.095   0.098   0.101   0.108   0.111   0.113
  0.120   0.122   0.126   0.128   0.132   0.137   0.148   0.148
  0.155   0.166   0.169   0.172   0.173   0.178   0.181   0.191
  0.195   0.209   0.215   0.221   0.231   0.236   0.241   0.246
  0.252   0.260   0.266   0.278   0.288   0.308   0.328   0.347
  0.351   0.373   0.391   0.399   0.406   0.418   0.439   0.461
  0.464   0.487   0.491   0.497   0.503   0.507   0.512   0.519
  0.521   0.532   0.545   0.558   0.562   0.572   0.582   0.590
  0.592   0.601   0.607   0.611   0.618   0.632   0.647   0.653
  0.659   0.665   0.670   0.678   0.683   0.701   0.723   0.745
  0.771   0.792   0.799   0.806   0.813   0.825   0.828   0.834
  0.847   0.848   0.853   0.860   0.874   0.876   0.891   0.894
  0.898   0.905   0.919   0.921   0.945   0.956   0.966   0.975
  0.981   1.003   1.021   1.038   1.048   1.054   1.084   1.100
  1.115   1.141   1.156   1.160   1.182   1.193   1.201   1.208
  1.218   1.224   1.232   1.248   1.266   1.277   1.301   1.319
  1.359   1.401   1.417   1.456   1.487   1.505   1.564   1.569
  1.613   1.670   1.702   1.730   1.751   1.761   1.777   1.784
  1.789   1.800   1.845   1.846   1.852   1.883   1.903   1.916
  1.944   1.953   1.982   1.988   2.040   2.054   2.062   2.077
  2.094   2.102   2.123   2.148   2.150   2.179   2.198   2.233
  2.252   2.283   2.307   2.321   2.323   2.336   2.343   2.367
  2.389   2.396   2.400   2.420   2.448   2.453   2.475   2.479
  2.516   2.537   2.539   2.576   2.582   2.619   2.687   2.694
  2.716   2.755   2.781   2.802   2.821   3.029   3.062   3.082
  3.157   3.172   3.201   3.292   3.308   3.558   3.622   3.638
  3.817   3.845   3.853   4.105   4.156   4.173   4.185   4.197
  4.219   4.245   4.335   4.411   4.511   4.564   4.579
 --------------------------------------------------------------
 
          Ground-State Mulliken Net Atomic Charges

     Atom                 Charge (a.u.)    Spin (a.u.)
  --------------------------------------------------------
      1 H                     0.251148      -0.012659
      2 H                     0.157677       0.001202
      3 C                     0.098010       0.256422
      4 C                    -0.396144      -0.040474
      5 S                    -0.102551      -0.035543
      6 C                     0.557947       0.146609
      7 H                     0.143812      -0.009143
      8 C                     0.124644       0.067597
      9 H                     0.069776      -0.007074
     10 C                    -0.117402       0.155206
     11 C                    -0.411385       0.096561
     12 S                     0.257295      -0.044667
     13 C                    -0.139297       0.000277
     14 H                     0.182125      -0.000670
     15 C                    -0.114432       0.218777
     16 C                    -0.081030       0.042812
     17 H                     0.168484      -0.005221
     18 C                     0.142311       0.075435
     19 S                     0.159758      -0.019821
     20 C                    -0.347590      -0.019685
     21 C                     0.009666       0.139462
     22 H                     0.154762       0.001075
     23 H                     0.232415      -0.006477
  --------------------------------------------------------
  Sum of atomic charges =     1.000000
  Sum of spin   charges =     1.000000

 -----------------------------------------------------------------
                    Cartesian Multipole Moments
 -----------------------------------------------------------------
    Charge (ESU x 10^10)
                 4.8032
    Dipole Moment (Debye)
         X      27.3994      Y      -2.0615      Z      -0.1756
       Tot      27.4774
    Quadrupole Moments (Debye-Ang)
        XX     138.3473     XY      -7.6701     YY     -94.9354
        XZ       1.9074     YZ       5.5612     ZZ    -103.7021
    Octopole Moments (Debye-Ang^2)
       XXX     519.1678    XXY     -16.4782    XYY    -612.9123
       YYY     142.1260    XXZ      41.1136    XYZ      34.9080
       YYZ      13.9100    XZZ    -611.6646    YZZ      53.1094
       ZZZ      68.5146
    Hexadecapole Moments (Debye-Ang^3)
      XXXX   -4231.9971   XXXY     114.0352   XXYY   -5144.3106
      XYYY     923.6703   YYYY    -704.0705   XXXZ     518.3562
      XXYZ     268.4397   XYYZ     104.4108   YYYZ     -99.5114
      XXZZ   -4802.7574   XYZZ     315.4696   YYZZ    -193.6807
      XZZZ     438.8908   YZZZ    -117.8217   ZZZZ    -376.2446
 -----------------------------------------------------------------
 Calculating analytic gradient of the SCF energy
 Gradient of SCF Energy
            1           2           3           4           5           6
    1   0.0069840   0.0045381  -0.0048885  -0.0020010   0.0031982   0.0261784
    2  -0.0034543   0.0048567   0.0002307   0.0142216  -0.0276806   0.0129087
    3  -0.0011087   0.0011356  -0.0005354   0.0043248  -0.0058898   0.0035745
            7           8           9          10          11          12
    1  -0.0015461  -0.0231539  -0.0023130   0.0469967  -0.0621909   0.0021966
    2   0.0061159   0.0609453  -0.0063128  -0.0456259  -0.0322858   0.0399466
    3   0.0006118   0.0106557  -0.0001132  -0.0066047  -0.0089437   0.0118657
           13          14          15          16          17          18
    1   0.0266335  -0.0031488  -0.0105136   0.0078071   0.0018482  -0.0096893
    2  -0.0187723  -0.0050722  -0.0111405   0.0121465  -0.0003980  -0.0122057
    3  -0.0135031   0.0010818   0.0122489  -0.0087264  -0.0060169  -0.0063581
           19          20          21          22          23
    1   0.0031550  -0.0028337   0.0035500  -0.0039416  -0.0068653
    2   0.0140739  -0.0015430   0.0004430  -0.0012144  -0.0001832
    3   0.0218741  -0.0052035  -0.0027821  -0.0052113   0.0036240
 Max gradient component =       6.219E-02
 RMS gradient           =       1.731E-02
 Gradient time:  CPU 4.23 s  wall 4.22 s
 Geometry Optimization Parameters
   NAtoms,    NIC,     NZ,  NCons,   NDum,   NFix, NCnnct, MaxDiis
       23     166       0       1       0       0       0       0


** CONSTRAINED OPTIMIZATION IN DELOCALIZED INTERNAL COORDINATES **
   Searching for a Minimum

   Optimization Cycle:   1

                       Coordinates (Angstroms)
     ATOM                X               Y               Z
      1  H         0.0000000000    0.0000000000    0.0000000000
      2  H         0.6636600000   -2.4682800000   -0.5912700000
      3  C         0.9910300000   -0.3910600000   -0.1165200000
      4  C         1.3681200000   -1.6744200000   -0.4248500000
      5  S         2.3466900000    0.6258600000    0.0863800000
      6  C         2.7616700000   -1.8217500000   -0.5082200000
      7  H         3.2629100000   -2.7387700000   -0.7619900000
      8  C         3.4467100000   -0.6504300000   -0.2605700000
      9  H         4.5564500000    1.4390267100    0.1570438500
     10  C         4.8838200000   -0.6504300000   -0.2605700000
     11  C         5.2609100000    0.6409019400    0.0124539000
     12  S         6.2394800000   -1.6725311300   -0.4355093900
     13  C         6.6544600000    0.7904624800    0.0917531100
     14  H         7.1557000000    1.7140965300    0.3202821300
     15  C         7.3395000000   -0.3872077300   -0.1236860000
     16  C         8.7766100000   -0.3872077300   -0.1236860000
     17  H         8.9604100000    0.3893246000    1.8787080600
     18  C         9.4616500000    0.0150517500    1.0039261800
     19  S         9.8766300000   -0.9019283200   -1.3420261000
     20  C        10.8552000000   -0.0872946700    0.8690858500
     21  C        11.2322900000   -0.5646901800   -0.3614315400
     22  H        11.5596600000    0.1839238400    1.6335133700
     23  H        12.2233200000   -0.7325241500   -0.7333685600
   Point Group: c1    Number of degrees of freedom:    63


   Energy is  -1656.363242125

              Constraints and their Current Values
                                        Value     Constraint
   Dihedral:       13  15  16  18       60.000       60.000

 Attempting to Generate Delocalized Internal Coordinates

 62 Hessian modes will be used to form the next step
  Hessian Eigenvalues:
     0.045000    0.045000    0.045000    0.045000    0.045000    0.045000
     0.045001    0.045001    0.045001    0.045002    0.045003    0.045003
     0.045011    0.045012    0.045012    0.045025    0.045032    0.045058
     0.045059    0.159944    0.159945    0.159945    0.159992    0.159993
     0.159993    0.160000    0.160000    0.221307    0.221308    0.227041
     0.237995    0.238010    0.245411    0.249662    0.249670    0.249670
     0.249825    0.326317    0.326319    0.326962    0.340043    0.340044
     0.340629    0.365512    0.365512    0.365513    0.366888    0.366889
     0.366889    0.370099    0.370100    0.399845    0.399845    0.435419
     0.435419    0.435422    0.463117    0.463122    0.464282    0.495500
     0.495500    0.495533

 Minimum Search - Taking Simple RFO Step
 Searching for Lamda that Minimizes Along All modes
 Value Taken    Lamda =  -0.06455745
 Calculated Step too Large.  Step scaled by  0.686889
 Step Taken.  Stepsize is  0.300000

                             Maximum     Tolerance    Cnvgd?
         Gradient           0.079778      0.000300      NO
         Displacement       0.172635      0.001200      NO
         Energy change     *********      0.000001      NO


 New Cartesian Coordinates Obtained by Inverse Iteration

 Displacement from previous Coordinates is:  1.986336
 ----------------------------------------------------------------
             Standard Nuclear Orientation (Angstroms)
    I     Atom           X                Y                Z
 ----------------------------------------------------------------
    1      H      -0.1204295540    -0.2932785354    -0.1035208501
    2      H       0.8004206951    -2.7018155770    -0.6555823329
    3      C       0.9143345720    -0.5850074288    -0.1865875318
    4      C       1.4213146040    -1.8368833859    -0.4745132098
    5      S       2.1466940839     0.5857108156     0.0508911026
    6      C       2.8236832959    -1.8386898174    -0.5111638137
    7      H       3.4207279675    -2.7097488517    -0.7401480035
    8      C       3.3939299714    -0.5857109517    -0.2500706646
    9      H       4.6276137719     1.7548137858     0.1994703064
   10      C       4.8252009359    -0.3979900641    -0.1999015574
   11      C       5.2830441018     0.9105980402     0.0665678444
   12      S       6.1625797559    -1.4692056544    -0.3587158080
   13      C       6.6746277929     1.0131745313     0.1481739438
   14      H       7.2153524497     1.9240099823     0.3597256052
   15      C       7.3139308427    -0.2087638352    -0.0533248172
   16      C       8.7512612445    -0.3302656206    -0.0711263200
   17      H       9.1084608870     0.4596360327     1.9234300538
   18      C       9.5285090798     0.0227738416     1.0289961379
   19      S       9.7363918087    -0.9914592298    -1.3334828418
   20      C      10.8997100158    -0.2275170969     0.8347807246
   21      C      11.1627267421    -0.7658364367    -0.4072518719
   22      H      11.6675376482    -0.0178575023     1.5645960499
   23      H      12.1192572872    -1.0405631017    -0.8217932857
 ----------------------------------------------------------------
 Nuclear Repulsion Energy =  1176.5301314298 hartrees
 There are       64 alpha and       63 beta electrons
 Applying Cartesian multipole field
    Component          Value
    ---------          -----
     (2,0,0)        1.00000E-12
     (0,2,0)        2.00000E-11
     (0,0,2)       -3.00000E-11
 Nucleus-field energy     =     0.0000000262 hartrees
 Requested basis set is 6-31++G(d,p)
 There are 110 shells and 345 basis functions
 A cutoff of  1.0D-12 yielded   4693 shell pairs
 There are     47762 function pairs

 Q-Chem warning in module /project/projectdirs/jcesr/qchem/qc44/cnl_qc441/compile/cori/qc_src/libqints/qchem/aobasis.C, line 68:

 Using reconstructed effective core potential

 Smallest overlap matrix eigenvalue = 7.30E-08
 Linear dependence detected in AO basis
 Number of orthogonalized atomic orbitals = 342
 Maximum deviation from orthogonality = 8.541E-11
 Guess MOs from SCF MO coefficient file
 Reading MOs from coefficient file
 Reading MOs from coefficient file
 An unrestricted hybrid HF-DFT SCF calculation will be
 performed using Pulay DIIS extrapolation
 Exchange:     0.2000 Hartree-Fock + 0.0800 Slater + 0.7200 B88
 Correlation:  0.1900 VWN1RPA + 0.8100 LYP
 Using SG-1 standard quadrature grid
 SCF converges when DIIS error is below 1.0E-08
 Geometry optimization detected.  Setting ReadMinima to 0
 Setting SaveMinima to 0
 Inaccurate integrated density:
   Number of electrons =   127
   Numerical integral  =   126.743612730688
   Relative error      =    -0.2018797396 %
 ---------------------------------------
  Cycle       Energy         DIIS Error
 ---------------------------------------
    1   -1656.0949561443      5.11E-03
    2   -1656.3711120879      1.12E-03
    3   -1656.3320511844      1.89E-03
    4   -1656.3918353081      3.15E-04
    5   -1656.3933129924      1.07E-04
    6   -1656.3934809560      4.57E-05
    7   -1656.3935127425      1.89E-05
    8   -1656.3935189953      5.51E-06
    9   -1656.3935195670      2.40E-06
   10   -1656.3935197414      6.93E-07
   11   -1656.3935197961      4.00E-07
   12   -1656.3935198195      1.97E-07
   13   -1656.3935198299      1.08E-07
   14   -1656.3935198332      5.24E-08
   15   -1656.3935198356      2.85E-08
   16   -1656.3935198367      1.31E-08
   17   -1656.3935198352      7.39E-09 Convergence criterion met
 ---------------------------------------
 <S^2> = 0.7646
 SCF time:  CPU 24.10 s  wall 22.29 s
 SCF   energy in the final basis set = -1656.3935198352
 Total energy in the final basis set = -1656.3935198352
 
 --------------------------------------------------------------
 
                    Orbital Energies (a.u.)
 --------------------------------------------------------------
 
 Alpha MOs
 -- Occupied --
-89.083 -89.073 -89.057 -10.412 -10.409 -10.400 -10.386 -10.378
-10.366 -10.362 -10.361 -10.361 -10.350 -10.344 -10.332  -8.142
 -8.133  -8.116  -6.106  -6.102  -6.098  -6.097  -6.093  -6.090
 -6.080  -6.076  -6.073  -1.071  -1.047  -1.028  -0.946  -0.913
 -0.897  -0.894  -0.881  -0.844  -0.770  -0.745  -0.709  -0.703
 -0.691  -0.681  -0.671  -0.650  -0.608  -0.576  -0.573  -0.571
 -0.558  -0.553  -0.548  -0.538  -0.530  -0.524  -0.521  -0.510
 -0.498  -0.486  -0.447  -0.422  -0.411  -0.395  -0.390  -0.359
 -- Virtual --
 -0.223  -0.172  -0.151  -0.139  -0.123  -0.115  -0.109  -0.107
 -0.102  -0.095  -0.094  -0.090  -0.081  -0.079  -0.075  -0.073
 -0.067  -0.062  -0.059  -0.055  -0.048  -0.042  -0.039  -0.033
 -0.024  -0.021  -0.015  -0.013  -0.006  -0.004   0.004   0.008
  0.009   0.011   0.015   0.019   0.022   0.024   0.029   0.032
  0.033   0.039   0.042   0.042   0.044   0.048   0.050   0.053
  0.055   0.057   0.060   0.062   0.067   0.070   0.075   0.081
  0.087   0.088   0.096   0.099   0.105   0.109   0.111   0.116
  0.120   0.122   0.123   0.132   0.136   0.143   0.147   0.151
  0.155   0.165   0.168   0.171   0.179   0.182   0.185   0.195
  0.201   0.208   0.217   0.223   0.232   0.237   0.242   0.249
  0.252   0.260   0.269   0.281   0.310   0.325   0.334   0.348
  0.375   0.386   0.393   0.402   0.417   0.434   0.453   0.457
  0.472   0.482   0.489   0.498   0.503   0.510   0.515   0.519
  0.526   0.539   0.553   0.557   0.567   0.574   0.580   0.589
  0.597   0.602   0.607   0.614   0.630   0.645   0.646   0.651
  0.668   0.670   0.672   0.679   0.698   0.716   0.728   0.767
  0.790   0.798   0.803   0.810   0.818   0.822   0.832   0.837
  0.841   0.849   0.852   0.860   0.871   0.874   0.886   0.896
  0.898   0.911   0.916   0.941   0.949   0.963   0.968   0.974
  0.993   1.014   1.025   1.039   1.048   1.078   1.084   1.110
  1.129   1.145   1.153   1.181   1.192   1.197   1.204   1.207
  1.216   1.225   1.242   1.256   1.284   1.301   1.319   1.355
  1.391   1.406   1.431   1.479   1.501   1.550   1.559   1.604
  1.666   1.691   1.719   1.736   1.756   1.766   1.775   1.783
  1.796   1.820   1.826   1.831   1.871   1.877   1.897   1.922
  1.927   1.963   1.968   2.019   2.031   2.045   2.061   2.072
  2.089   2.101   2.115   2.124   2.155   2.175   2.224   2.245
  2.269   2.300   2.308   2.308   2.318   2.335   2.346   2.374
  2.378   2.387   2.394   2.426   2.436   2.466   2.472   2.487
  2.516   2.527   2.562   2.574   2.609   2.673   2.691   2.709
  2.751   2.761   2.771   2.798   2.999   3.045   3.065   3.142
  3.157   3.191   3.274   3.292   3.534   3.598   3.618   3.815
  3.837   3.849   4.092   4.146   4.165   4.171   4.182   4.207
  4.237   4.325   4.396   4.500   4.552   4.570
 
 Beta MOs
 -- Occupied --
-89.083 -89.073 -89.057 -10.409 -10.406 -10.399 -10.382 -10.378
-10.365 -10.360 -10.360 -10.359 -10.350 -10.343 -10.332  -8.142
 -8.133  -8.116  -6.107  -6.103  -6.099  -6.097  -6.093  -6.090
 -6.080  -6.076  -6.073  -1.066  -1.043  -1.025  -0.940  -0.911
 -0.895  -0.889  -0.880  -0.837  -0.766  -0.741  -0.706  -0.701
 -0.689  -0.679  -0.669  -0.648  -0.606  -0.572  -0.569  -0.564
 -0.556  -0.550  -0.541  -0.536  -0.529  -0.521  -0.512  -0.508
 -0.497  -0.485  -0.428  -0.420  -0.408  -0.393  -0.373
 -- Virtual --
 -0.306  -0.207  -0.164  -0.142  -0.137  -0.120  -0.114  -0.106
 -0.101  -0.098  -0.094  -0.091  -0.084  -0.080  -0.079  -0.073
 -0.072  -0.067  -0.061  -0.058  -0.054  -0.046  -0.042  -0.039
 -0.033  -0.023  -0.020  -0.015  -0.013  -0.005  -0.003   0.004
  0.008   0.010   0.012   0.015   0.019   0.023   0.025   0.030
  0.032   0.035   0.039   0.043   0.043   0.045   0.049   0.051
  0.053   0.056   0.057   0.062   0.062   0.068   0.071   0.077
  0.083   0.088   0.089   0.096   0.100   0.105   0.110   0.112
  0.117   0.121   0.123   0.124   0.133   0.137   0.144   0.148
  0.152   0.157   0.166   0.169   0.172   0.179   0.183   0.187
  0.196   0.202   0.210   0.219   0.224   0.233   0.238   0.243
  0.250   0.253   0.261   0.271   0.282   0.311   0.326   0.336
  0.349   0.376   0.388   0.394   0.403   0.418   0.435   0.455
  0.458   0.474   0.483   0.491   0.504   0.504   0.514   0.521
  0.522   0.529   0.541   0.555   0.558   0.569   0.577   0.582
  0.591   0.599   0.607   0.608   0.619   0.632   0.646   0.649
  0.653   0.671   0.672   0.674   0.683   0.702   0.720   0.729
  0.768   0.791   0.802   0.805   0.811   0.822   0.824   0.834
  0.839   0.842   0.850   0.852   0.862   0.872   0.876   0.887
  0.897   0.900   0.912   0.917   0.942   0.950   0.964   0.969
  0.974   0.994   1.015   1.028   1.042   1.051   1.081   1.087
  1.113   1.134   1.149   1.156   1.184   1.195   1.200   1.207
  1.213   1.219   1.228   1.245   1.258   1.289   1.305   1.324
  1.358   1.396   1.410   1.434   1.484   1.508   1.560   1.565
  1.610   1.668   1.694   1.723   1.740   1.758   1.767   1.777
  1.785   1.800   1.824   1.829   1.836   1.874   1.881   1.900
  1.926   1.930   1.968   1.973   2.026   2.037   2.050   2.067
  2.078   2.094   2.106   2.120   2.129   2.158   2.180   2.227
  2.246   2.275   2.303   2.310   2.313   2.322   2.336   2.348
  2.375   2.383   2.389   2.397   2.429   2.440   2.468   2.474
  2.489   2.519   2.530   2.566   2.575   2.611   2.676   2.695
  2.711   2.753   2.763   2.773   2.800   3.000   3.046   3.066
  3.142   3.157   3.192   3.275   3.293   3.535   3.599   3.619
  3.815   3.837   3.849   4.097   4.151   4.168   4.174   4.185
  4.208   4.243   4.329   4.400   4.503   4.554   4.573
 --------------------------------------------------------------
 
          Ground-State Mulliken Net Atomic Charges

     Atom                 Charge (a.u.)    Spin (a.u.)
  --------------------------------------------------------
      1 H                     0.247426      -0.012748
      2 H                     0.163208       0.001526
      3 C                     0.076023       0.251376
      4 C                    -0.339937      -0.042457
      5 S                    -0.024571      -0.036464
      6 C                     0.458343       0.144633
      7 H                     0.140924      -0.009460
      8 C                    -0.084365       0.062683
      9 H                     0.122917      -0.006973
     10 C                    -0.035881       0.161270
     11 C                    -0.247093       0.100047
     12 S                     0.115636      -0.051297
     13 C                    -0.037826       0.006257
     14 H                     0.181058      -0.001069
     15 C                    -0.186917       0.224678
     16 C                    -0.123650       0.039874
     17 H                     0.171797      -0.005649
     18 C                     0.201837       0.077803
     19 S                     0.141310      -0.019299
     20 C                    -0.362780      -0.021870
     21 C                     0.033638       0.142590
     22 H                     0.155106       0.001171
     23 H                     0.233797      -0.006622
  --------------------------------------------------------
  Sum of atomic charges =     1.000000
  Sum of spin   charges =     1.000000

 -----------------------------------------------------------------
                    Cartesian Multipole Moments
 -----------------------------------------------------------------
    Charge (ESU x 10^10)
                 4.8032
    Dipole Moment (Debye)
         X      27.3864      Y      -2.0073      Z      -0.1666
       Tot      27.4603
    Quadrupole Moments (Debye-Ang)
        XX     138.5755     XY      -7.3375     YY     -93.6505
        XZ       2.6977     YZ       5.9669     ZZ    -103.9801
    Octopole Moments (Debye-Ang^2)
       XXX     529.0300    XXY     -34.3849    XYY    -599.7782
       YYY     136.8893    XXZ      47.6363    XYZ      38.2721
       YYZ      12.2911    XZZ    -606.7102    YZZ      50.2770
       ZZZ      64.9910
    Hexadecapole Moments (Debye-Ang^3)
      XXXX   -4090.5827   XXXY    -242.8373   XXYY   -5015.9083
      XYYY     904.0358   YYYY    -713.1846   XXXZ     561.8681
      XXYZ     303.5366   XYYZ      85.2948   YYYZ     -95.9051
      XXZZ   -4737.0837   XYZZ     295.2543   YYZZ    -196.0240
      XZZZ     391.9587   YZZZ    -117.4025   ZZZZ    -372.7848
 -----------------------------------------------------------------
 Calculating analytic gradient of the SCF energy
 Gradient of SCF Energy
            1           2           3           4           5           6
    1   0.0029492   0.0012971  -0.0020146  -0.0038222   0.0001531   0.0098488
    2  -0.0013230   0.0017345  -0.0006971   0.0042075  -0.0146247   0.0043394
    3  -0.0004482   0.0004468  -0.0005774   0.0016502  -0.0026957   0.0022216
            7           8           9          10          11          12
    1  -0.0009415  -0.0279350   0.0036895   0.0334669  -0.0244160  -0.0005935
    2   0.0027064   0.0368061  -0.0029240  -0.0438862  -0.0050921   0.0251495
    3  -0.0001736   0.0051409   0.0004505  -0.0065010  -0.0028580   0.0079149
           13          14          15          16          17          18
    1   0.0187012  -0.0011293  -0.0100194   0.0074858   0.0008746  -0.0048982
    2  -0.0039466  -0.0019722  -0.0079153   0.0065878   0.0005657  -0.0086722
    3  -0.0100281   0.0014276   0.0107009  -0.0127839  -0.0027182   0.0021914
           19          20          21          22          23
    1   0.0022939  -0.0013566   0.0007209  -0.0015516  -0.0028031
    2   0.0086698   0.0000231   0.0007945  -0.0000648  -0.0004662
    3   0.0099573  -0.0004506  -0.0028841  -0.0018627   0.0018794
 Max gradient component =       4.389E-02
 RMS gradient           =       1.099E-02
 Gradient time:  CPU 4.18 s  wall 4.18 s
 Geometry Optimization Parameters
   NAtoms,    NIC,     NZ,  NCons,   NDum,   NFix, NCnnct, MaxDiis
       23     166       0       1       0       0       0       0

 Cartesian Hessian Update
 Hessian Updated using BFGS Update


** CONSTRAINED OPTIMIZATION IN DELOCALIZED INTERNAL COORDINATES **
   Searching for a Minimum

   Optimization Cycle:   2

                       Coordinates (Angstroms)
     ATOM                X               Y               Z
      1  H        -0.1204295540   -0.2932785354   -0.1035208501
      2  H         0.8004206951   -2.7018155770   -0.6555823329
      3  C         0.9143345720   -0.5850074288   -0.1865875318
      4  C         1.4213146040   -1.8368833859   -0.4745132098
      5  S         2.1466940839    0.5857108156    0.0508911026
      6  C         2.8236832959   -1.8386898174   -0.5111638137
      7  H         3.4207279675   -2.7097488517   -0.7401480035
      8  C         3.3939299714   -0.5857109517   -0.2500706646
      9  H         4.6276137719    1.7548137858    0.1994703064
     10  C         4.8252009359   -0.3979900641   -0.1999015574
     11  C         5.2830441018    0.9105980402    0.0665678444
     12  S         6.1625797559   -1.4692056544   -0.3587158080
     13  C         6.6746277929    1.0131745313    0.1481739438
     14  H         7.2153524497    1.9240099823    0.3597256052
     15  C         7.3139308427   -0.2087638352   -0.0533248172
     16  C         8.7512612445   -0.3302656206   -0.0711263200
     17  H         9.1084608870    0.4596360327    1.9234300538
     18  C         9.5285090798    0.0227738416    1.0289961379
     19  S         9.7363918087   -0.9914592298   -1.3334828418
     20  C        10.8997100158   -0.2275170969    0.8347807246
     21  C        11.1627267421   -0.7658364367   -0.4072518719
     22  H        11.6675376482   -0.0178575023    1.5645960499
     23  H        12.1192572872   -1.0405631017   -0.8217932857
   Point Group: c1    Number of degrees of freedom:    63


   Energy is  -1656.393519835

              Constraints and their Current Values
                                        Value     Constraint
   Dihedral:       13  15  16  18       60.000       60.000
 Hessian Updated using BFGS Update

 62 Hessian modes will be used to form the next step
  Hessian Eigenvalues:
     0.044718    0.045000    0.045000    0.045000    0.045000    0.045000
     0.045001    0.045001    0.045001    0.045002    0.045003    0.045003
     0.045011    0.045012    0.045014    0.045019    0.045028    0.045057
     0.045059    0.159437    0.159945    0.159946    0.159980    0.159993
     0.159994    0.160000    0.160244    0.190567    0.221310    0.221825
     0.230234    0.238069    0.238878    0.246515    0.249669    0.249670
     0.283956    0.324259    0.326559    0.327326    0.338626    0.340053
     0.340405    0.365167    0.365513    0.365520    0.366535    0.366889
     0.367340    0.369907    0.370100    0.399664    0.414826    0.434824
     0.435420    0.437058    0.462496    0.463129    0.471126    0.495132
     0.495502    0.578213

 Minimum Search - Taking Simple RFO Step
 Searching for Lamda that Minimizes Along All modes
 Value Taken    Lamda =  -0.02122314
 Calculated Step too Large.  Step scaled by  0.906742
 Step Taken.  Stepsize is  0.300000

                             Maximum     Tolerance    Cnvgd?
         Gradient           0.030660      0.000300      NO
         Displacement       0.130173      0.001200      NO
         Energy change     -0.030278      0.000001      NO


 New Cartesian Coordinates Obtained by Inverse Iteration

 Displacement from previous Coordinates is:  1.611380
 ----------------------------------------------------------------
             Standard Nuclear Orientation (Angstroms)
    I     Atom           X                Y                Z
 ----------------------------------------------------------------
    1      H      -0.0948513887    -0.4540685204    -0.2052262880
    2      H       0.9561346465    -2.8280417282    -0.7175029482
    3      C       0.9599388332    -0.6964271952    -0.2558082240
    4      C       1.5341745920    -1.9325523418    -0.5236010553
    5      S       2.1159443325     0.5508402021     0.0110413977
    6      C       2.9326409035    -1.8729441034    -0.5172900977
    7      H       3.5781713904    -2.7212823691    -0.7190511050
    8      C       3.4279870843    -0.5797400028    -0.2435177738
    9      H       4.5732036411     1.9439545579     0.2294546858
   10      C       4.7920472594    -0.2218809162    -0.1387117666
   11      C       5.2454919041     1.0982131500     0.1248686396
   12      S       6.1236960568    -1.3333102216    -0.2759959636
   13      C       6.6253530926     1.1865985470     0.2200854137
   14      H       7.1725421368     2.1015663792     0.4116335249
   15      C       7.2706593380    -0.0550700345     0.0383702636
   16      C       8.6965914308    -0.2605457021    -0.0010204868
   17      H       9.2458939377     0.5416940466     1.9557435537
   18      C       9.5709486942     0.0501862926     1.0456545215
   19      S       9.5394824754    -1.0723609631    -1.2980463217
   20      C      10.9011646365    -0.3383207429     0.7806936998
   21      C      11.0364431898    -0.9407650491    -0.4556593727
   22      H      11.7304286674    -0.1828844557     1.4606171612
   23      H      11.9427931457    -1.3127348892    -0.9172825983
 ----------------------------------------------------------------
 Nuclear Repulsion Energy =  1179.2770308308 hartrees
 There are       64 alpha and       63 beta electrons
 Applying Cartesian multipole field
    Component          Value
    ---------          -----
     (2,0,0)        1.00000E-12
     (0,2,0)        2.00000E-11
     (0,0,2)       -3.00000E-11
 Nucleus-field energy     =     0.0000000266 hartrees
 Requested basis set is 6-31++G(d,p)
 There are 110 shells and 345 basis functions
 A cutoff of  1.0D-12 yielded   4693 shell pairs
 There are     47842 function pairs

 Q-Chem warning in module /project/projectdirs/jcesr/qchem/qc44/cnl_qc441/compile/cori/qc_src/libqints/qchem/aobasis.C, line 68:

 Using reconstructed effective core potential

 Smallest overlap matrix eigenvalue = 7.40E-08
 Linear dependence detected in AO basis
 Number of orthogonalized atomic orbitals = 342
 Maximum deviation from orthogonality = 3.308E-11
 Guess MOs from SCF MO coefficient file
 Reading MOs from coefficient file
 Reading MOs from coefficient file
 An unrestricted hybrid HF-DFT SCF calculation will be
 performed using Pulay DIIS extrapolation
 Exchange:     0.2000 Hartree-Fock + 0.0800 Slater + 0.7200 B88
 Correlation:  0.1900 VWN1RPA + 0.8100 LYP
 Using SG-1 standard quadrature grid
 SCF converges when DIIS error is below 1.0E-08
 Geometry optimization detected.  Setting ReadMinima to 0
 Setting SaveMinima to 0
 Inaccurate integrated density:
   Number of electrons =   127
   Numerical integral  =   126.836162856327
   Relative error      =    -0.1290056249 %
 ---------------------------------------
  Cycle       Energy         DIIS Error
 ---------------------------------------
    1   -1656.2249427926      3.91E-03
    2   -1656.3936913108      7.86E-04
    3   -1656.3678361453      1.45E-03
    4   -1656.4046370101      2.13E-04
    5   -1656.4053075551      7.92E-05
    6   -1656.4054009124      3.15E-05
    7   -1656.4054171833      1.28E-05
    8   -1656.4054202654      3.68E-06
    9   -1656.4054206819      1.63E-06
   10   -1656.4054208394      6.83E-07
   11   -1656.4054209325      4.17E-07
   12   -1656.4054209710      2.37E-07
   13   -1656.4054209892      1.15E-07
   14   -1656.4054209964      5.63E-08
   15   -1656.4054209972      2.88E-08
   16   -1656.4054209973      1.51E-08
   17   -1656.4054209974      6.27E-09 Convergence criterion met
 ---------------------------------------
 <S^2> = 0.7661
 SCF time:  CPU 23.72 s  wall 21.98 s
 SCF   energy in the final basis set = -1656.4054209974
 Total energy in the final basis set = -1656.4054209974
 
 --------------------------------------------------------------
 
                    Orbital Energies (a.u.)
 --------------------------------------------------------------
 
 Alpha MOs
 -- Occupied --
-89.080 -89.073 -89.056 -10.411 -10.410 -10.398 -10.387 -10.379
-10.369 -10.365 -10.364 -10.363 -10.352 -10.346 -10.333  -8.139
 -8.132  -8.115  -6.103  -6.099  -6.096  -6.095  -6.092  -6.089
 -6.080  -6.076  -6.072  -1.067  -1.043  -1.023  -0.944  -0.915
 -0.898  -0.888  -0.879  -0.840  -0.770  -0.746  -0.711  -0.701
 -0.691  -0.681  -0.667  -0.644  -0.607  -0.575  -0.572  -0.569
 -0.558  -0.553  -0.546  -0.538  -0.532  -0.522  -0.518  -0.510
 -0.500  -0.487  -0.447  -0.424  -0.412  -0.395  -0.389  -0.354
 -- Virtual --
 -0.228  -0.174  -0.154  -0.140  -0.128  -0.115  -0.110  -0.108
 -0.098  -0.095  -0.093  -0.087  -0.082  -0.079  -0.075  -0.073
 -0.066  -0.062  -0.059  -0.054  -0.047  -0.041  -0.040  -0.029
 -0.024  -0.022  -0.016  -0.012  -0.005  -0.003   0.004   0.007
  0.008   0.011   0.015   0.019   0.022   0.026   0.029   0.032
  0.033   0.039   0.041   0.041   0.044   0.047   0.050   0.052
  0.056   0.057   0.061   0.063   0.068   0.071   0.077   0.080
  0.085   0.088   0.096   0.098   0.104   0.107   0.113   0.115
  0.118   0.121   0.124   0.131   0.136   0.144   0.148   0.148
  0.152   0.163   0.166   0.171   0.181   0.182   0.184   0.193
  0.201   0.204   0.215   0.220   0.233   0.235   0.239   0.247
  0.251   0.258   0.267   0.281   0.312   0.325   0.329   0.355
  0.376   0.381   0.395   0.402   0.425   0.437   0.444   0.449
  0.463   0.478   0.485   0.500   0.503   0.509   0.514   0.518
  0.526   0.545   0.551   0.553   0.571   0.573   0.580   0.587
  0.597   0.604   0.607   0.618   0.628   0.643   0.648   0.650
  0.668   0.675   0.680   0.688   0.699   0.713   0.732   0.766
  0.787   0.792   0.801   0.810   0.816   0.819   0.826   0.833
  0.840   0.846   0.850   0.854   0.868   0.877   0.881   0.892
  0.895   0.909   0.918   0.936   0.943   0.959   0.961   0.972
  0.987   1.009   1.025   1.045   1.049   1.076   1.082   1.111
  1.122   1.136   1.155   1.175   1.192   1.196   1.202   1.208
  1.218   1.227   1.244   1.270   1.298   1.313   1.338   1.360
  1.390   1.411   1.433   1.481   1.514   1.550   1.556   1.599
  1.664   1.698   1.706   1.722   1.754   1.764   1.775   1.783
  1.788   1.811   1.814   1.819   1.867   1.875   1.904   1.909
  1.923   1.957   1.971   2.009   2.024   2.042   2.052   2.067
  2.084   2.091   2.110   2.122   2.141   2.173   2.220   2.241
  2.270   2.290   2.294   2.306   2.311   2.329   2.339   2.368
  2.375   2.381   2.389   2.412   2.438   2.461   2.471   2.477
  2.510   2.525   2.560   2.568   2.599   2.658   2.707   2.725
  2.739   2.761   2.778   2.789   2.984   3.035   3.061   3.132
  3.148   3.172   3.263   3.282   3.526   3.590   3.607   3.812
  3.833   3.851   4.095   4.142   4.165   4.167   4.178   4.198
  4.243   4.326   4.394   4.502   4.552   4.571
 
 Beta MOs
 -- Occupied --
-89.080 -89.073 -89.056 -10.408 -10.408 -10.397 -10.384 -10.378
-10.368 -10.364 -10.362 -10.361 -10.353 -10.345 -10.333  -8.139
 -8.132  -8.115  -6.103  -6.100  -6.096  -6.096  -6.092  -6.089
 -6.080  -6.076  -6.072  -1.062  -1.039  -1.020  -0.938  -0.913
 -0.897  -0.883  -0.878  -0.833  -0.766  -0.743  -0.708  -0.699
 -0.688  -0.680  -0.666  -0.642  -0.606  -0.571  -0.568  -0.563
 -0.556  -0.551  -0.540  -0.535  -0.531  -0.519  -0.510  -0.507
 -0.499  -0.486  -0.427  -0.421  -0.409  -0.392  -0.373
 -- Virtual --
 -0.301  -0.211  -0.166  -0.145  -0.137  -0.125  -0.114  -0.108
 -0.099  -0.097  -0.093  -0.091  -0.082  -0.079  -0.079  -0.073
 -0.072  -0.065  -0.061  -0.058  -0.054  -0.045  -0.040  -0.039
 -0.029  -0.023  -0.021  -0.016  -0.011  -0.005  -0.002   0.004
  0.007   0.009   0.012   0.015   0.020   0.023   0.027   0.030
  0.033   0.034   0.039   0.042   0.042   0.045   0.049   0.051
  0.053   0.056   0.058   0.062   0.063   0.069   0.072   0.078
  0.082   0.086   0.089   0.097   0.099   0.105   0.108   0.114
  0.116   0.119   0.123   0.125   0.132   0.137   0.144   0.148
  0.150   0.153   0.164   0.167   0.172   0.182   0.183   0.185
  0.194   0.202   0.206   0.217   0.222   0.235   0.236   0.240
  0.249   0.252   0.259   0.269   0.283   0.313   0.326   0.331
  0.356   0.376   0.383   0.396   0.403   0.426   0.438   0.445
  0.450   0.464   0.479   0.486   0.503   0.507   0.514   0.520
  0.523   0.528   0.550   0.552   0.555   0.573   0.575   0.582
  0.588   0.598   0.607   0.610   0.623   0.630   0.644   0.651
  0.652   0.669   0.679   0.685   0.689   0.703   0.716   0.733
  0.767   0.789   0.794   0.803   0.811   0.819   0.822   0.829
  0.835   0.840   0.848   0.850   0.857   0.869   0.879   0.882
  0.894   0.897   0.911   0.919   0.937   0.944   0.960   0.962
  0.972   0.988   1.011   1.028   1.049   1.051   1.080   1.085
  1.113   1.128   1.141   1.157   1.177   1.196   1.200   1.204
  1.214   1.221   1.230   1.246   1.273   1.302   1.319   1.342
  1.363   1.394   1.414   1.438   1.485   1.521   1.559   1.562
  1.605   1.668   1.700   1.708   1.727   1.756   1.766   1.776
  1.787   1.792   1.816   1.817   1.821   1.870   1.879   1.907
  1.913   1.927   1.961   1.976   2.016   2.030   2.047   2.058
  2.072   2.088   2.096   2.116   2.127   2.145   2.178   2.223
  2.243   2.275   2.293   2.296   2.311   2.315   2.331   2.341
  2.369   2.380   2.382   2.392   2.415   2.441   2.463   2.474
  2.479   2.512   2.528   2.563   2.569   2.601   2.661   2.711
  2.727   2.742   2.763   2.780   2.791   2.985   3.036   3.062
  3.133   3.148   3.172   3.264   3.283   3.528   3.591   3.607
  3.813   3.833   3.851   4.100   4.147   4.169   4.170   4.181
  4.200   4.248   4.330   4.399   4.505   4.554   4.574
 --------------------------------------------------------------
 
          Ground-State Mulliken Net Atomic Charges

     Atom                 Charge (a.u.)    Spin (a.u.)
  --------------------------------------------------------
      1 H                     0.243698      -0.013123
      2 H                     0.166113       0.001556
      3 C                     0.050999       0.257162
      4 C                    -0.263799      -0.042864
      5 S                    -0.044712      -0.033119
      6 C                     0.461934       0.149026
      7 H                     0.143987      -0.009638
      8 C                    -0.188889       0.053052
      9 H                     0.145001      -0.006415
     10 C                    -0.057047       0.161220
     11 C                    -0.102701       0.091515
     12 S                    -0.066197      -0.054301
     13 C                     0.107797       0.021056
     14 H                     0.180965      -0.001870
     15 C                    -0.227038       0.226512
     16 C                    -0.151946       0.030477
     17 H                     0.174255      -0.006286
     18 C                     0.244521       0.078909
     19 S                     0.102901      -0.016313
     20 C                    -0.362296      -0.023045
     21 C                     0.052809       0.141828
     22 H                     0.154618       0.001244
     23 H                     0.235029      -0.006581
  --------------------------------------------------------
  Sum of atomic charges =     1.000000
  Sum of spin   charges =     1.000000

 -----------------------------------------------------------------
                    Cartesian Multipole Moments
 -----------------------------------------------------------------
    Charge (ESU x 10^10)
                 4.8032
    Dipole Moment (Debye)
         X      27.2929      Y      -1.9936      Z      -0.1638
       Tot      27.3661
    Quadrupole Moments (Debye-Ang)
        XX     134.9726     XY      -7.7921     YY     -91.8653
        XZ       3.5055     YZ       6.4792     ZZ    -104.1577
    Octopole Moments (Debye-Ang^2)
       XXX     480.5969    XXY     -50.8559    XYY    -584.7210
       YYY     132.8393    XXZ      54.2167    XYZ      42.1968
       YYZ       9.8969    XZZ    -604.9493    YZZ      48.3831
       ZZZ      59.9371
    Hexadecapole Moments (Debye-Ang^3)
      XXXX   -4507.5701   XXXY    -502.0531   XXYY   -4846.3098
      XYYY     888.7485   YYYY    -738.9754   XXXZ     601.6269
      XXYZ     338.8104   XYYZ      60.1328   YYYZ     -94.4156
      XXZZ   -4672.6749   XYZZ     284.1523   YYZZ    -199.7817
      XZZZ     333.5364   YZZZ    -120.4165   ZZZZ    -365.9058
 -----------------------------------------------------------------
 Calculating analytic gradient of the SCF energy
 Gradient of SCF Energy
            1           2           3           4           5           6
    1  -0.0001867   0.0001146   0.0022373  -0.0005698   0.0034743   0.0022369
    2   0.0006691  -0.0003402  -0.0012037  -0.0012742   0.0000069  -0.0026533
    3   0.0000274  -0.0000153  -0.0002865  -0.0000544   0.0003097   0.0007154
            7           8           9          10          11          12
    1   0.0003961  -0.0078655  -0.0007418   0.0114021  -0.0043593  -0.0026864
    2  -0.0002776   0.0161035   0.0010769  -0.0183048   0.0033945   0.0028804
    3  -0.0006750   0.0013941   0.0006376  -0.0015776  -0.0001943   0.0027130
           13          14          15          16          17          18
    1   0.0014571  -0.0007254  -0.0064663   0.0034757   0.0001528  -0.0014290
    2   0.0034008   0.0001354  -0.0055044   0.0029272   0.0009869  -0.0068707
    3  -0.0082616   0.0010329   0.0095019  -0.0124282  -0.0001100   0.0062325
           19          20          21          22          23
    1   0.0003030  -0.0000986  -0.0005108   0.0002609   0.0001288
    2   0.0035941   0.0004649   0.0015451   0.0002282  -0.0009850
    3   0.0014384   0.0011748  -0.0018405   0.0000654   0.0002003
 Max gradient component =       1.830E-02
 RMS gradient           =       4.528E-03
 Gradient time:  CPU 4.16 s  wall 4.23 s
 Geometry Optimization Parameters
   NAtoms,    NIC,     NZ,  NCons,   NDum,   NFix, NCnnct, MaxDiis
       23     166       0       1       0       0       0       0

 Cartesian Hessian Update
 Hessian Updated using BFGS Update


** CONSTRAINED OPTIMIZATION IN DELOCALIZED INTERNAL COORDINATES **
   Searching for a Minimum

   Optimization Cycle:   3

                       Coordinates (Angstroms)
     ATOM                X               Y               Z
      1  H        -0.0948513887   -0.4540685204   -0.2052262880
      2  H         0.9561346465   -2.8280417282   -0.7175029482
      3  C         0.9599388332   -0.6964271952   -0.2558082240
      4  C         1.5341745920   -1.9325523418   -0.5236010553
      5  S         2.1159443325    0.5508402021    0.0110413977
      6  C         2.9326409035   -1.8729441034   -0.5172900977
      7  H         3.5781713904   -2.7212823691   -0.7190511050
      8  C         3.4279870843   -0.5797400028   -0.2435177738
      9  H         4.5732036411    1.9439545579    0.2294546858
     10  C         4.7920472594   -0.2218809162   -0.1387117666
     11  C         5.2454919041    1.0982131500    0.1248686396
     12  S         6.1236960568   -1.3333102216   -0.2759959636
     13  C         6.6253530926    1.1865985470    0.2200854137
     14  H         7.1725421368    2.1015663792    0.4116335249
     15  C         7.2706593380   -0.0550700345    0.0383702636
     16  C         8.6965914308   -0.2605457021   -0.0010204868
     17  H         9.2458939377    0.5416940466    1.9557435537
     18  C         9.5709486942    0.0501862926    1.0456545215
     19  S         9.5394824754   -1.0723609631   -1.2980463217
     20  C        10.9011646365   -0.3383207429    0.7806936998
     21  C        11.0364431898   -0.9407650491   -0.4556593727
     22  H        11.7304286674   -0.1828844557    1.4606171612
     23  H        11.9427931457   -1.3127348892   -0.9172825983
   Point Group: c1    Number of degrees of freedom:    63


   Energy is  -1656.405420997

              Constraints and their Current Values
                                        Value     Constraint
   Dihedral:       13  15  16  18       60.000       60.000
 Hessian Updated using BFGS Update

 62 Hessian modes will be used to form the next step
  Hessian Eigenvalues:
     0.042572    0.045000    0.045000    0.045000    0.045000    0.045000
     0.045001    0.045001    0.045002    0.045003    0.045003    0.045005
     0.045011    0.045012    0.045013    0.045025    0.045051    0.045057
     0.045096    0.153547    0.159945    0.159961    0.159986    0.159993
     0.159999    0.160018    0.160461    0.170473    0.221312    0.222989
     0.230413    0.238279    0.240398    0.249311    0.249670    0.262739
     0.279763    0.323050    0.326539    0.327983    0.338120    0.340070
     0.341573    0.365513    0.365515    0.365840    0.366889    0.367249
     0.367971    0.370099    0.371000    0.400947    0.423884    0.435420
     0.435531    0.442650    0.463105    0.464601    0.482839    0.495274
     0.497738    0.579451

 Minimum Search - Taking Simple RFO Step
 Searching for Lamda that Minimizes Along All modes
 Value Taken    Lamda =  -0.00371957
 Step Taken.  Stepsize is  0.201347

                             Maximum     Tolerance    Cnvgd?
         Gradient           0.009063      0.000300      NO
         Displacement       0.069126      0.001200      NO
         Energy change     -0.011901      0.000001      NO


 New Cartesian Coordinates Obtained by Inverse Iteration

 Displacement from previous Coordinates is:  0.918083
 ----------------------------------------------------------------
             Standard Nuclear Orientation (Angstroms)
    I     Atom           X                Y                Z
 ----------------------------------------------------------------
    1      H      -0.1113829390    -0.5461063529    -0.2904803485
    2      H       1.0223357319    -2.8802855456    -0.7798537275
    3      C       0.9514013346    -0.7555192562    -0.3125953403
    4      C       1.5722761009    -1.9714642686    -0.5678381711
    5      S       2.0722665924     0.5136345172    -0.0139023950
    6      C       2.9691748553    -1.8811733918    -0.5228861982
    7      H       3.6354369009    -2.7169043446    -0.7061903274
    8      C       3.4340674750    -0.5818511190    -0.2308698518
    9      H       4.5582639927     2.0163306954     0.2631416204
   10      C       4.7682767496    -0.1430541841    -0.0896701078
   11      C       5.2313748855     1.1702180020     0.1778860412
   12      S       6.1192317099    -1.2546066748    -0.2114215470
   13      C       6.6113172990     1.2580202638     0.2826655821
   14      H       7.1594206861     2.1765452627     0.4560000836
   15      C       7.2706552263     0.0213504553     0.1147129311
   16      C       8.6875394751    -0.2072126644     0.0455790837
   17      H       9.3645585343     0.6289637386     1.9427096573
   18      C       9.6242297022     0.0958221068     1.0352280588
   19      S       9.4295693402    -1.1330582390    -1.2472416455
   20      C      10.9190339848    -0.3774460616     0.7314015035
   21      C      10.9689675059    -1.0440542511    -0.4762982992
   22      H      11.7836443532    -0.2403809822     1.3697486808
   23      H      11.8352205034    -1.4776437660    -0.9603764235
 ----------------------------------------------------------------
 Nuclear Repulsion Energy =  1179.9023507259 hartrees
 There are       64 alpha and       63 beta electrons
 Applying Cartesian multipole field
    Component          Value
    ---------          -----
     (2,0,0)        1.00000E-12
     (0,2,0)        2.00000E-11
     (0,0,2)       -3.00000E-11
 Nucleus-field energy     =     0.0000000270 hartrees
 Requested basis set is 6-31++G(d,p)
 There are 110 shells and 345 basis functions
 A cutoff of  1.0D-12 yielded   4691 shell pairs
 There are     47859 function pairs

 Q-Chem warning in module /project/projectdirs/jcesr/qchem/qc44/cnl_qc441/compile/cori/qc_src/libqints/qchem/aobasis.C, line 68:

 Using reconstructed effective core potential

 Smallest overlap matrix eigenvalue = 9.72E-08
 Linear dependence detected in AO basis
 Number of orthogonalized atomic orbitals = 342
 Maximum deviation from orthogonality = 5.851E-11
 Guess MOs from SCF MO coefficient file
 Reading MOs from coefficient file
 Reading MOs from coefficient file
 An unrestricted hybrid HF-DFT SCF calculation will be
 performed using Pulay DIIS extrapolation
 Exchange:     0.2000 Hartree-Fock + 0.0800 Slater + 0.7200 B88
 Correlation:  0.1900 VWN1RPA + 0.8100 LYP
 Using SG-1 standard quadrature grid
 SCF converges when DIIS error is below 1.0E-08
 Geometry optimization detected.  Setting ReadMinima to 0
 Setting SaveMinima to 0
 ---------------------------------------
  Cycle       Energy         DIIS Error
 ---------------------------------------
    1   -1656.3361018790      2.24E-03
    2   -1656.4023189116      5.35E-04
    3   -1656.3871647208      1.09E-03
    4   -1656.4071005532      1.59E-04
    5   -1656.4075086968      5.15E-05
    6   -1656.4075550044      1.66E-05
    7   -1656.4075595358      6.89E-06
    8   -1656.4075603961      2.60E-06
    9   -1656.4075605757      1.11E-06
   10   -1656.4075606340      4.96E-07
   11   -1656.4075606659      3.60E-07
   12   -1656.4075606808      1.64E-07
   13   -1656.4075606879      8.81E-08
   14   -1656.4075606887      2.54E-08
   15   -1656.4075606882      1.24E-08
   16   -1656.4075606883      5.23E-09 Convergence criterion met
 ---------------------------------------
 <S^2> = 0.7658
 SCF time:  CPU 22.47 s  wall 20.94 s
 SCF   energy in the final basis set = -1656.4075606883
 Total energy in the final basis set = -1656.4075606883
 
 --------------------------------------------------------------
 
                    Orbital Energies (a.u.)
 --------------------------------------------------------------
 
 Alpha MOs
 -- Occupied --
-89.077 -89.071 -89.057 -10.411 -10.411 -10.398 -10.386 -10.381
-10.370 -10.366 -10.366 -10.364 -10.352 -10.348 -10.335  -8.136
 -8.130  -8.116  -6.100  -6.096  -6.094  -6.092  -6.090  -6.087
 -6.080  -6.076  -6.073  -1.065  -1.042  -1.023  -0.944  -0.914
 -0.897  -0.887  -0.880  -0.841  -0.771  -0.747  -0.711  -0.703
 -0.690  -0.680  -0.668  -0.643  -0.609  -0.574  -0.571  -0.571
 -0.559  -0.555  -0.547  -0.539  -0.533  -0.520  -0.518  -0.509
 -0.496  -0.487  -0.448  -0.422  -0.411  -0.396  -0.391  -0.354
 -- Virtual --
 -0.228  -0.176  -0.154  -0.139  -0.128  -0.114  -0.110  -0.109
 -0.099  -0.094  -0.092  -0.084  -0.082  -0.079  -0.076  -0.073
 -0.066  -0.063  -0.059  -0.054  -0.047  -0.042  -0.039  -0.029
 -0.024  -0.021  -0.017  -0.011  -0.005  -0.003   0.004   0.005
  0.008   0.012   0.014   0.018   0.023   0.027   0.029   0.033
  0.034   0.039   0.040   0.041   0.043   0.046   0.051   0.053
  0.056   0.058   0.061   0.063   0.068   0.072   0.076   0.080
  0.085   0.088   0.096   0.098   0.103   0.106   0.112   0.114
  0.119   0.121   0.126   0.130   0.136   0.144   0.147   0.149
  0.153   0.163   0.166   0.171   0.180   0.182   0.185   0.191
  0.202   0.203   0.214   0.221   0.233   0.235   0.239   0.249
  0.252   0.259   0.269   0.282   0.309   0.326   0.330   0.357
  0.377   0.379   0.393   0.399   0.427   0.437   0.437   0.446
  0.460   0.476   0.484   0.500   0.504   0.510   0.513   0.517
  0.526   0.545   0.548   0.553   0.571   0.578   0.579   0.587
  0.596   0.605   0.605   0.619   0.631   0.641   0.645   0.650
  0.667   0.674   0.682   0.688   0.699   0.710   0.734   0.766
  0.786   0.791   0.801   0.810   0.816   0.818   0.824   0.833
  0.839   0.847   0.848   0.850   0.869   0.877   0.882   0.891
  0.896   0.910   0.923   0.934   0.942   0.960   0.962   0.972
  0.981   1.009   1.022   1.047   1.049   1.071   1.084   1.108
  1.118   1.131   1.153   1.174   1.192   1.194   1.203   1.207
  1.215   1.227   1.242   1.274   1.309   1.323   1.341   1.355
  1.394   1.415   1.440   1.482   1.520   1.548   1.555   1.589
  1.663   1.697   1.703   1.717   1.753   1.764   1.772   1.774
  1.786   1.806   1.810   1.817   1.865   1.872   1.903   1.907
  1.920   1.958   1.973   2.003   2.018   2.038   2.046   2.059
  2.076   2.091   2.107   2.126   2.140   2.178   2.221   2.240
  2.271   2.284   2.290   2.308   2.313   2.328   2.337   2.368
  2.378   2.384   2.388   2.406   2.442   2.459   2.473   2.481
  2.508   2.526   2.561   2.567   2.597   2.650   2.705   2.735
  2.744   2.759   2.791   2.798   2.984   3.036   3.064   3.135
  3.147   3.171   3.264   3.281   3.524   3.589   3.605   3.809
  3.833   3.854   4.097   4.141   4.164   4.168   4.179   4.194
  4.246   4.327   4.393   4.503   4.552   4.572
 
 Beta MOs
 -- Occupied --
-89.077 -89.071 -89.057 -10.409 -10.408 -10.398 -10.383 -10.380
-10.368 -10.365 -10.364 -10.363 -10.352 -10.347 -10.335  -8.136
 -8.130  -8.116  -6.100  -6.096  -6.094  -6.093  -6.090  -6.087
 -6.080  -6.076  -6.073  -1.061  -1.038  -1.020  -0.938  -0.912
 -0.895  -0.883  -0.878  -0.835  -0.767  -0.744  -0.708  -0.700
 -0.688  -0.679  -0.666  -0.641  -0.607  -0.570  -0.569  -0.562
 -0.556  -0.553  -0.541  -0.536  -0.531  -0.516  -0.509  -0.507
 -0.495  -0.486  -0.429  -0.420  -0.407  -0.394  -0.375
 -- Virtual --
 -0.302  -0.212  -0.167  -0.146  -0.135  -0.125  -0.113  -0.108
 -0.099  -0.097  -0.093  -0.091  -0.081  -0.079  -0.076  -0.074
 -0.072  -0.065  -0.062  -0.058  -0.054  -0.045  -0.042  -0.038
 -0.028  -0.023  -0.020  -0.016  -0.011  -0.004  -0.002   0.004
  0.006   0.008   0.012   0.015   0.019   0.024   0.028   0.030
  0.034   0.035   0.039   0.041   0.042   0.044   0.047   0.052
  0.053   0.057   0.058   0.062   0.064   0.069   0.073   0.078
  0.081   0.086   0.089   0.097   0.099   0.104   0.107   0.113
  0.115   0.119   0.122   0.127   0.131   0.137   0.145   0.149
  0.150   0.153   0.164   0.167   0.172   0.181   0.184   0.186
  0.192   0.203   0.205   0.216   0.223   0.234   0.236   0.240
  0.250   0.253   0.260   0.271   0.283   0.310   0.327   0.332
  0.358   0.378   0.380   0.394   0.401   0.429   0.438   0.439
  0.447   0.461   0.476   0.485   0.502   0.508   0.515   0.518
  0.523   0.527   0.548   0.550   0.556   0.574   0.579   0.581
  0.589   0.597   0.605   0.611   0.624   0.634   0.643   0.649
  0.651   0.668   0.678   0.686   0.689   0.703   0.713   0.735
  0.767   0.788   0.793   0.803   0.811   0.817   0.822   0.826
  0.835   0.839   0.849   0.849   0.852   0.870   0.878   0.883
  0.892   0.897   0.911   0.924   0.935   0.943   0.962   0.963
  0.973   0.982   1.010   1.025   1.050   1.051   1.075   1.086
  1.111   1.124   1.135   1.155   1.177   1.196   1.197   1.205
  1.214   1.218   1.230   1.244   1.277   1.312   1.328   1.345
  1.359   1.398   1.418   1.445   1.485   1.529   1.554   1.564
  1.595   1.666   1.699   1.705   1.722   1.755   1.765   1.775
  1.777   1.788   1.810   1.813   1.821   1.868   1.876   1.907
  1.910   1.924   1.962   1.977   2.010   2.023   2.043   2.053
  2.064   2.081   2.096   2.112   2.130   2.144   2.183   2.224
  2.242   2.274   2.287   2.295   2.312   2.317   2.329   2.339
  2.369   2.382   2.386   2.391   2.408   2.445   2.461   2.477
  2.483   2.510   2.529   2.565   2.569   2.599   2.653   2.708
  2.737   2.748   2.761   2.793   2.800   2.985   3.037   3.065
  3.135   3.148   3.171   3.265   3.282   3.525   3.591   3.606
  3.809   3.833   3.855   4.101   4.145   4.167   4.171   4.182
  4.196   4.251   4.331   4.398   4.506   4.554   4.575
 --------------------------------------------------------------
 
          Ground-State Mulliken Net Atomic Charges

     Atom                 Charge (a.u.)    Spin (a.u.)
  --------------------------------------------------------
      1 H                     0.244027      -0.012756
      2 H                     0.166007       0.001334
      3 C                     0.060773       0.250011
      4 C                    -0.251302      -0.038782
      5 S                    -0.050945      -0.028865
      6 C                     0.497331       0.142953
      7 H                     0.145496      -0.009269
      8 C                    -0.265237       0.051308
      9 H                     0.152627      -0.005809
     10 C                    -0.077863       0.164895
     11 C                    -0.040685       0.083062
     12 S                    -0.178795      -0.054678
     13 C                     0.166797       0.035032
     14 H                     0.181173      -0.002877
     15 C                    -0.202910       0.215833
     16 C                    -0.128163       0.029241
     17 H                     0.175411      -0.006852
     18 C                     0.225107       0.082774
     19 S                     0.076175      -0.016321
     20 C                    -0.341201      -0.023370
     21 C                     0.054650       0.148961
     22 H                     0.155150       0.001261
     23 H                     0.236379      -0.007086
  --------------------------------------------------------
  Sum of atomic charges =     1.000000
  Sum of spin   charges =     1.000000

 -----------------------------------------------------------------
                    Cartesian Multipole Moments
 -----------------------------------------------------------------
    Charge (ESU x 10^10)
                 4.8032
    Dipole Moment (Debye)
         X      27.5172      Y      -1.9923      Z      -0.1628
       Tot      27.5897
    Quadrupole Moments (Debye-Ang)
        XX     137.9081     XY      -7.9988     YY     -91.1968
        XZ       4.2107     YZ       6.8619     ZZ    -104.3619
    Octopole Moments (Debye-Ang^2)
       XXX     515.1973    XXY     -59.1940    XYY    -575.8966
       YYY     131.6693    XXZ      59.1223    XYZ      45.1963
       YYZ       7.8291    XZZ    -605.2384    YZZ      47.8138
       ZZZ      54.8371
    Hexadecapole Moments (Debye-Ang^3)
      XXXX   -4079.0473   XXXY    -636.7551   XXYY   -4744.2961
      XYYY     876.7183   YYYY    -756.5129   XXXZ     622.6682
      XXYZ     367.4785   XYYZ      39.6742   YYYZ     -95.3748
      XXZZ   -4659.6075   XYZZ     280.7103   YYZZ    -199.9824
      XZZZ     280.5309   YZZZ    -124.6212   ZZZZ    -357.2226
 -----------------------------------------------------------------
 Calculating analytic gradient of the SCF energy
 Gradient of SCF Energy
            1           2           3           4           5           6
    1  -0.0004266  -0.0003014  -0.0015253  -0.0002317   0.0020815  -0.0001747
    2   0.0003367   0.0001477  -0.0010684   0.0002062  -0.0012231  -0.0018103
    3  -0.0000212   0.0000708  -0.0000528   0.0000613  -0.0002748   0.0004134
            7           8           9          10          11          12
    1   0.0003240   0.0022961  -0.0008748  -0.0010718   0.0010778  -0.0021607
    2   0.0001578   0.0035094  -0.0001576  -0.0036461   0.0021297   0.0014281
    3  -0.0003672  -0.0002438   0.0000125   0.0003177   0.0004415   0.0014061
           13          14          15          16          17          18
    1  -0.0010919   0.0003635   0.0003915   0.0023467  -0.0001236  -0.0019971
    2   0.0016049  -0.0002850  -0.0030522   0.0060350   0.0003019  -0.0069237
    3  -0.0081996   0.0002427   0.0109419  -0.0082455  -0.0001096   0.0040717
           19          20          21          22          23
    1  -0.0004713   0.0003475   0.0009905   0.0001858   0.0000460
    2   0.0021137  -0.0004994   0.0013987  -0.0000757  -0.0006285
    3   0.0003876  -0.0007975  -0.0000975  -0.0000337   0.0000761
 Max gradient component =       1.094E-02
 RMS gradient           =       2.552E-03
 Gradient time:  CPU 4.24 s  wall 4.18 s
 Geometry Optimization Parameters
   NAtoms,    NIC,     NZ,  NCons,   NDum,   NFix, NCnnct, MaxDiis
       23     166       0       1       0       0       0       0

 Cartesian Hessian Update
 Hessian Updated using BFGS Update


** CONSTRAINED OPTIMIZATION IN DELOCALIZED INTERNAL COORDINATES **
   Searching for a Minimum

   Optimization Cycle:   4

                       Coordinates (Angstroms)
     ATOM                X               Y               Z
      1  H        -0.1113829390   -0.5461063529   -0.2904803485
      2  H         1.0223357319   -2.8802855456   -0.7798537275
      3  C         0.9514013346   -0.7555192562   -0.3125953403
      4  C         1.5722761009   -1.9714642686   -0.5678381711
      5  S         2.0722665924    0.5136345172   -0.0139023950
      6  C         2.9691748553   -1.8811733918   -0.5228861982
      7  H         3.6354369009   -2.7169043446   -0.7061903274
      8  C         3.4340674750   -0.5818511190   -0.2308698518
      9  H         4.5582639927    2.0163306954    0.2631416204
     10  C         4.7682767496   -0.1430541841   -0.0896701078
     11  C         5.2313748855    1.1702180020    0.1778860412
     12  S         6.1192317099   -1.2546066748   -0.2114215470
     13  C         6.6113172990    1.2580202638    0.2826655821
     14  H         7.1594206861    2.1765452627    0.4560000836
     15  C         7.2706552263    0.0213504553    0.1147129311
     16  C         8.6875394751   -0.2072126644    0.0455790837
     17  H         9.3645585343    0.6289637386    1.9427096573
     18  C         9.6242297022    0.0958221068    1.0352280588
     19  S         9.4295693402   -1.1330582390   -1.2472416455
     20  C        10.9190339848   -0.3774460616    0.7314015035
     21  C        10.9689675059   -1.0440542511   -0.4762982992
     22  H        11.7836443532   -0.2403809822    1.3697486808
     23  H        11.8352205034   -1.4776437660   -0.9603764235
   Point Group: c1    Number of degrees of freedom:    63


   Energy is  -1656.407560688

              Constraints and their Current Values
                                        Value     Constraint
   Dihedral:       13  15  16  18       60.000       60.000
 Hessian Updated using BFGS Update

 62 Hessian modes will be used to form the next step
  Hessian Eigenvalues:
     0.032157    0.045000    0.045000    0.045000    0.045000    0.045001
     0.045001    0.045002    0.045002    0.045003    0.045005    0.045007
     0.045011    0.045012    0.045023    0.045027    0.045055    0.045074
     0.045193    0.158773    0.159946    0.159976    0.159981    0.159997
     0.160004    0.160403    0.162532    0.181286    0.221381    0.223186
     0.230179    0.238270    0.241670    0.249669    0.251122    0.265808
     0.285802    0.322547    0.326657    0.327802    0.338215    0.340279
     0.341172    0.365512    0.365514    0.365842    0.366890    0.367245
     0.367933    0.370117    0.370782    0.400340    0.421006    0.435435
     0.435857    0.443896    0.463447    0.464081    0.481462    0.495553
     0.499599    0.582404

 Minimum Search - Taking Simple RFO Step
 Searching for Lamda that Minimizes Along All modes
 Value Taken    Lamda =  -0.00058629
 Step Taken.  Stepsize is  0.121180

                             Maximum     Tolerance    Cnvgd?
         Gradient           0.002456      0.000300      NO
         Displacement       0.055055      0.001200      NO
         Energy change     -0.002140      0.000001      NO


 New Cartesian Coordinates Obtained by Inverse Iteration

 Displacement from previous Coordinates is:  0.366744
 ----------------------------------------------------------------
             Standard Nuclear Orientation (Angstroms)
    I     Atom           X                Y                Z
 ----------------------------------------------------------------
    1      H      -0.1073748127    -0.5612646561    -0.3256889307
    2      H       1.0407343263    -2.8858616531    -0.8187074339
    3      C       0.9563050159    -0.7633522957    -0.3361834220
[...]
      2 H                     0.164618       0.001315
      3 C                     0.056497       0.240577
      4 C                    -0.250460      -0.037240
      5 S                    -0.045888      -0.025089
      6 C                     0.499284       0.139962
      7 H                     0.144757      -0.009073
      8 C                    -0.265206       0.044365
      9 H                     0.150352      -0.005049
     10 C                    -0.093620       0.170657
     11 C                    -0.069123       0.071890
     12 S                    -0.202253      -0.054710
     13 C                     0.146068       0.047385
     14 H                     0.183330      -0.003817
     15 C                    -0.044532       0.203258
     16 C                    -0.079610       0.021005
     17 H                     0.174984      -0.007834
     18 C                     0.076104       0.104431
     19 S                     0.082973      -0.020640
     20 C                    -0.274467      -0.030053
     21 C                     0.010707       0.167805
     22 H                     0.156239       0.001659
     23 H                     0.236701      -0.008465
  --------------------------------------------------------
  Sum of atomic charges =     1.000000
  Sum of spin   charges =     1.000000

 -----------------------------------------------------------------
                    Cartesian Multipole Moments
 -----------------------------------------------------------------
    Charge (ESU x 10^10)
                 4.8032
    Dipole Moment (Debye)
         X      27.9784      Y      -2.0121      Z      -0.1380
       Tot      28.0510
    Quadrupole Moments (Debye-Ang)
        XX     143.6486     XY      -8.5951     YY     -90.7056
        XZ       4.7637     YZ       7.5443     ZZ    -104.6855
    Octopole Moments (Debye-Ang^2)
       XXX     580.0317    XXY     -64.9030    XYY    -568.2489
       YYY     134.0481    XXZ      63.2685    XYZ      49.8307
       YYZ       5.9506    XZZ    -608.8444    YZZ      49.0693
       ZZZ      49.9970
    Hexadecapole Moments (Debye-Ang^3)
      XXXX   -3343.7419   XXXY    -684.5539   XXYY   -4655.9673
      XYYY     887.8177   YYYY    -777.5204   XXXZ     653.2231
      XXYZ     405.8856   XYYZ      25.7079   YYYZ    -100.3860
      XXZZ   -4690.2694   XYZZ     293.3942   YYZZ    -198.4895
      XZZZ     240.8042   YZZZ    -134.4566   ZZZZ    -347.4438
 -----------------------------------------------------------------
 Calculating analytic gradient of the SCF energy
 Gradient of SCF Energy
            1           2           3           4           5           6
    1  -0.0000063   0.0000004   0.0000237  -0.0000373  -0.0000001   0.0000280
    2  -0.0000001   0.0000054  -0.0000009  -0.0000017  -0.0000095   0.0000186
    3  -0.0000019   0.0000118   0.0000029  -0.0000072   0.0000112  -0.0000131
            7           8           9          10          11          12
    1   0.0000048   0.0000356  -0.0000130  -0.0000006  -0.0000783   0.0000332
    2  -0.0000022   0.0000652   0.0000052  -0.0000008  -0.0000544   0.0000097
    3   0.0000071   0.0000260   0.0000076   0.0000068  -0.0000705   0.0000231
           13          14          15          16          17          18
    1  -0.0006147  -0.0000067   0.0006156   0.0007450  -0.0000064  -0.0007262
    2   0.0009097   0.0000020  -0.0060911   0.0131405  -0.0000312  -0.0079226
    3  -0.0086600  -0.0000203   0.0159124  -0.0108824   0.0000225   0.0036321
           19          20          21          22          23
    1   0.0000465   0.0000056  -0.0000544  -0.0000009   0.0000063
    2  -0.0000414   0.0000113  -0.0000309   0.0000084   0.0000106
    3  -0.0000216   0.0000166   0.0000027  -0.0000034  -0.0000022
 Max gradient component =       1.591E-02
 RMS gradient           =       3.264E-03
 Gradient time:  CPU 4.24 s  wall 4.23 s
 Geometry Optimization Parameters
   NAtoms,    NIC,     NZ,  NCons,   NDum,   NFix, NCnnct, MaxDiis
       23     166       0       1       0       0       0       0

 Cartesian Hessian Update
 Hessian Updated using BFGS Update


** CONSTRAINED OPTIMIZATION IN DELOCALIZED INTERNAL COORDINATES **
   Searching for a Minimum

   Optimization Cycle:   9

                       Coordinates (Angstroms)
     ATOM                X               Y               Z
      1  H        -0.1065359853   -0.5557724092   -0.3287137145
      2  H         1.0374206843   -2.8730196430   -0.8608476983
      3  C         0.9568927235   -0.7594865924   -0.3410685642
      4  C         1.5809189463   -1.9685488303   -0.6166677437
      5  S         2.0668613253    0.5029338041    0.0099950039
      6  C         2.9767216034   -1.8786865674   -0.5453351417
      7  H         3.6439214636   -2.7129824838   -0.7310572144
      8  C         3.4345705905   -0.5912012847   -0.2129117027
      9  H         4.5523256610    2.0038192556    0.3275386846
     10  C         4.7689485215   -0.1485869285   -0.0590202852
     11  C         5.2235378383    1.1577196624    0.2341181796
     12  S         6.1317207632   -1.2545365658   -0.1940948067
     13  C         6.6014185603    1.2531700437    0.3467879175
     14  H         7.1372831056    2.1780279483    0.5251723880
     15  C         7.2716797870    0.0234151741    0.1680505685
     16  C         8.6850542090   -0.1678247781    0.0384216315
     17  H         9.4346571577    0.7747529251    1.8591934278
     18  C         9.6580100100    0.1773886796    0.9824641684
     19  S         9.3725471825   -1.2309280353   -1.1854276059
     20  C        10.9297158360   -0.3515756816    0.6892577053
     21  C        10.9294823469   -1.1216596624   -0.4583513524
     22  H        11.8131860545   -0.1839129139    1.2932530520
     23  H        11.7765416149   -1.6023811767   -0.9313080371
   Point Group: c1    Number of degrees of freedom:    63


   Energy is  -1656.408224660

              Constraints and their Current Values
                                        Value     Constraint
   Dihedral:       13  15  16  18       60.000       60.000
 Hessian Updated using BFGS Update

 62 Hessian modes will be used to form the next step
  Hessian Eigenvalues:
     0.013877    0.030119    0.045000    0.045000    0.045001    0.045001
     0.045001    0.045002    0.045003    0.045004    0.045007    0.045011
     0.045016    0.045018    0.045026    0.045035    0.045060    0.045105
     0.045425    0.154790    0.159477    0.159944    0.159968    0.160030
     0.160094    0.160513    0.161101    0.173568    0.217645    0.221993
     0.226692    0.239468    0.240843    0.246160    0.249761    0.270765
     0.285690    0.292625    0.326724    0.327009    0.334499    0.339764
     0.341174    0.365511    0.365526    0.365866    0.366898    0.367308
     0.368006    0.370140    0.371234    0.400487    0.428043    0.435169
     0.436810    0.453682    0.462615    0.464612    0.479136    0.492041
     0.498957    0.554802

 Minimum Search - Taking Simple RFO Step
 Searching for Lamda that Minimizes Along All modes
 Value Taken    Lamda =   0.00000000
 Step Taken.  Stepsize is  0.002393

                             Maximum     Tolerance    Cnvgd?
         Gradient           0.000089      0.000300     YES
         Displacement       0.000907      0.001200     YES
         Energy change     -0.000001      0.000001      NO

 Final energy is   -1656.40822466049     


 ******************************
 **  OPTIMIZATION CONVERGED  **
 ******************************

                       Coordinates (Angstroms)
     ATOM                X               Y               Z
      1  H        -0.1065359853   -0.5557724092   -0.3287137145
      2  H         1.0374206843   -2.8730196430   -0.8608476983
      3  C         0.9568927235   -0.7594865924   -0.3410685642
      4  C         1.5809189463   -1.9685488303   -0.6166677437
      5  S         2.0668613253    0.5029338041    0.0099950039
      6  C         2.9767216034   -1.8786865674   -0.5453351417
      7  H         3.6439214636   -2.7129824838   -0.7310572144
      8  C         3.4345705905   -0.5912012847   -0.2129117027
      9  H         4.5523256610    2.0038192556    0.3275386846
     10  C         4.7689485215   -0.1485869285   -0.0590202852
     11  C         5.2235378383    1.1577196624    0.2341181796
     12  S         6.1317207632   -1.2545365658   -0.1940948067
     13  C         6.6014185603    1.2531700437    0.3467879175
     14  H         7.1372831056    2.1780279483    0.5251723880
     15  C         7.2716797870    0.0234151741    0.1680505685
     16  C         8.6850542090   -0.1678247781    0.0384216315
     17  H         9.4346571577    0.7747529251    1.8591934278
     18  C         9.6580100100    0.1773886796    0.9824641684
     19  S         9.3725471825   -1.2309280353   -1.1854276059
     20  C        10.9297158360   -0.3515756816    0.6892577053
     21  C        10.9294823469   -1.1216596624   -0.4583513524
     22  H        11.8131860545   -0.1839129139    1.2932530520
     23  H        11.7765416149   -1.6023811767   -0.9313080371

Z-matrix Print:
$molecule
1 2
S 
C  1 1.750376
C  2 1.411912 1 110.666710
H  3 1.083667 2 121.967534 1 -176.593539 0
C  3 1.385771 2 113.686437 1 1.700266 0
H  5 1.084038 3 123.702818 2 -179.062121 0
C  5 1.413867 3 113.589896 2 -0.983967 0
C  7 1.414268 5 127.957366 3 178.716518 0
C  8 1.406325 7 128.273172 5 177.814297 0
H  9 1.084296 8 122.995530 7 -0.168090 0
C  9 1.400510 8 113.281644 7 -179.903552 0
H  11 1.083089 9 124.414954 8 179.824495 0
C  11 1.388235 9 112.457968 8 -0.026863 0
H  13 1.082836 11 127.413922 9 179.981053 0
C  2 1.432133 1 121.770199 3 -169.481081 0
C  15 1.398939 2 126.324073 1 -132.284982 0
H  16 1.084152 15 122.574981 2 -9.806281 0
C  16 1.408194 15 113.258612 2 168.895582 0
H  18 1.083255 16 124.214130 15 179.121571 0
C  18 1.382040 16 112.460665 15 -1.235972 0
H  20 1.082724 18 127.588684 16 176.858343 0
S  13 1.717260 11 112.972876 9 -0.041951 0
S  20 1.721809 18 112.715734 16 -0.820957 0
$end

 
 --------------------------------------------------------------
 
                    Orbital Energies (a.u.)
 --------------------------------------------------------------
 
 Alpha MOs
 -- Occupied --
-89.076 -89.069 -89.059 -10.411 -10.410 -10.396 -10.384 -10.384
-10.369 -10.368 -10.366 -10.362 -10.351 -10.349 -10.337  -8.135
 -8.128  -8.118  -6.099  -6.096  -6.092  -6.091  -6.089  -6.085
 -6.082  -6.078  -6.075  -1.064  -1.041  -1.024  -0.944  -0.914
 -0.896  -0.889  -0.881  -0.841  -0.771  -0.747  -0.710  -0.705
 -0.689  -0.679  -0.669  -0.643  -0.608  -0.573  -0.570  -0.570
 -0.559  -0.553  -0.547  -0.541  -0.532  -0.519  -0.518  -0.510
 -0.495  -0.488  -0.449  -0.422  -0.409  -0.400  -0.392  -0.352
 -- Virtual --
 -0.228  -0.178  -0.154  -0.138  -0.128  -0.113  -0.110  -0.108
 -0.100  -0.094  -0.093  -0.083  -0.082  -0.079  -0.077  -0.072
 -0.066  -0.063  -0.059  -0.054  -0.047  -0.043  -0.039  -0.030
 -0.024  -0.021  -0.018  -0.011  -0.005  -0.003   0.004   0.005
  0.008   0.012   0.014   0.018   0.023   0.028   0.029   0.034
  0.036   0.038   0.039   0.041   0.043   0.045   0.052   0.053
  0.056   0.058   0.063   0.064   0.067   0.074   0.076   0.080
  0.084   0.089   0.096   0.099   0.103   0.106   0.113   0.113
  0.119   0.121   0.128   0.130   0.137   0.144   0.149   0.151
  0.153   0.163   0.167   0.172   0.181   0.183   0.186   0.190
  0.204   0.204   0.216   0.223   0.231   0.236   0.239   0.248
  0.251   0.260   0.269   0.279   0.309   0.324   0.333   0.353
  0.377   0.379   0.391   0.398   0.425   0.428   0.437   0.444
  0.460   0.475   0.485   0.501   0.505   0.510   0.511   0.517
  0.526   0.540   0.545   0.555   0.570   0.580   0.581   0.589
  0.596   0.602   0.606   0.615   0.636   0.637   0.640   0.651
  0.666   0.671   0.683   0.689   0.698   0.709   0.733   0.764
  0.787   0.791   0.800   0.809   0.814   0.818   0.821   0.829
  0.838   0.842   0.849   0.851   0.871   0.874   0.881   0.891
  0.895   0.908   0.926   0.939   0.943   0.962   0.963   0.972
  0.976   1.009   1.022   1.047   1.052   1.070   1.086   1.110
  1.118   1.132   1.152   1.168   1.193   1.195   1.198   1.204
  1.211   1.221   1.242   1.266   1.314   1.323   1.340   1.346
  1.398   1.419   1.456   1.482   1.518   1.529   1.556   1.576
  1.664   1.699   1.703   1.720   1.754   1.766   1.771   1.774
  1.788   1.805   1.813   1.830   1.863   1.873   1.896   1.910
  1.921   1.955   1.972   1.999   2.013   2.034   2.041   2.061
  2.073   2.090   2.111   2.125   2.142   2.179   2.224   2.238
  2.271   2.282   2.292   2.309   2.312   2.328   2.336   2.367
  2.379   2.384   2.386   2.408   2.442   2.456   2.474   2.485
  2.511   2.528   2.564   2.567   2.597   2.642   2.707   2.735
  2.747   2.763   2.794   2.798   2.987   3.035   3.066   3.136
  3.144   3.173   3.267   3.277   3.524   3.592   3.601   3.802
  3.834   3.858   4.100   4.139   4.166   4.170   4.180   4.193
  4.245   4.327   4.393   4.503   4.552   4.571
 
 Beta MOs
 -- Occupied --
-89.076 -89.069 -89.059 -10.408 -10.408 -10.396 -10.383 -10.381
-10.367 -10.367 -10.365 -10.360 -10.350 -10.350 -10.338  -8.135
 -8.128  -8.118  -6.100  -6.096  -6.092  -6.092  -6.089  -6.085
 -6.082  -6.078  -6.075  -1.060  -1.037  -1.021  -0.938  -0.912
 -0.894  -0.885  -0.879  -0.834  -0.767  -0.744  -0.707  -0.702
 -0.687  -0.678  -0.668  -0.641  -0.607  -0.569  -0.568  -0.561
 -0.557  -0.552  -0.543  -0.537  -0.531  -0.516  -0.508  -0.508
 -0.494  -0.487  -0.430  -0.419  -0.406  -0.396  -0.376
 -- Virtual --
 -0.299  -0.212  -0.169  -0.148  -0.134  -0.124  -0.113  -0.108
 -0.099  -0.098  -0.092  -0.091  -0.081  -0.079  -0.076  -0.074
 -0.071  -0.065  -0.062  -0.058  -0.053  -0.046  -0.042  -0.038
 -0.029  -0.023  -0.020  -0.017  -0.011  -0.004  -0.003   0.005
  0.006   0.008   0.013   0.015   0.019   0.024   0.029   0.030
  0.035   0.036   0.039   0.040   0.042   0.043   0.046   0.053
  0.054   0.057   0.059   0.064   0.065   0.068   0.075   0.078
  0.080   0.086   0.091   0.097   0.100   0.104   0.107   0.114
  0.114   0.119   0.122   0.129   0.132   0.138   0.145   0.150
  0.152   0.154   0.164   0.167   0.173   0.182   0.184   0.187
  0.191   0.205   0.206   0.219   0.225   0.232   0.237   0.240
  0.249   0.252   0.260   0.271   0.280   0.310   0.326   0.334
  0.354   0.379   0.379   0.392   0.400   0.427   0.430   0.438
  0.445   0.462   0.476   0.486   0.502   0.510   0.513   0.516
  0.524   0.528   0.541   0.549   0.558   0.573   0.581   0.583
  0.590   0.597   0.602   0.612   0.619   0.639   0.641   0.643
  0.652   0.667   0.675   0.687   0.690   0.702   0.712   0.734
  0.765   0.789   0.794   0.802   0.810   0.816   0.821   0.824
  0.831   0.839   0.844   0.850   0.853   0.872   0.875   0.882
  0.892   0.897   0.909   0.927   0.940   0.944   0.963   0.964
  0.973   0.977   1.010   1.025   1.049   1.055   1.074   1.089
  1.113   1.124   1.136   1.155   1.172   1.196   1.198   1.200
  1.207   1.218   1.226   1.244   1.269   1.317   1.328   1.344
  1.350   1.402   1.422   1.462   1.486   1.526   1.535   1.565
  1.583   1.667   1.701   1.706   1.725   1.756   1.767   1.772
  1.780   1.790   1.808   1.816   1.834   1.866   1.877   1.900
  1.914   1.926   1.958   1.976   2.006   2.018   2.041   2.046
  2.065   2.078   2.095   2.117   2.130   2.145   2.184   2.227
  2.240   2.274   2.285   2.297   2.313   2.317   2.329   2.338
  2.369   2.383   2.386   2.390   2.410   2.445   2.458   2.477
  2.488   2.513   2.531   2.567   2.570   2.600   2.645   2.710
  2.737   2.750   2.764   2.795   2.800   2.988   3.036   3.067
  3.137   3.145   3.174   3.269   3.278   3.525   3.593   3.602
  3.802   3.834   3.858   4.104   4.143   4.169   4.173   4.183
  4.196   4.250   4.331   4.398   4.506   4.554   4.574
 --------------------------------------------------------------
 
          Ground-State Mulliken Net Atomic Charges

     Atom                 Charge (a.u.)    Spin (a.u.)
  --------------------------------------------------------
      1 H                     0.242546      -0.012339
      2 H                     0.164618       0.001315
      3 C                     0.056497       0.240577
      4 C                    -0.250460      -0.037240
      5 S                    -0.045888      -0.025089
      6 C                     0.499284       0.139962
      7 H                     0.144757      -0.009073
      8 C                    -0.265206       0.044365
      9 H                     0.150352      -0.005049
     10 C                    -0.093620       0.170657
     11 C                    -0.069123       0.071890
     12 S                    -0.202253      -0.054710
     13 C                     0.146068       0.047385
     14 H                     0.183330      -0.003817
     15 C                    -0.044532       0.203258
     16 C                    -0.079610       0.021005
     17 H                     0.174984      -0.007834
     18 C                     0.076104       0.104431
     19 S                     0.082973      -0.020640
     20 C                    -0.274467      -0.030053
     21 C                     0.010707       0.167805
     22 H                     0.156239       0.001659
     23 H                     0.236701      -0.008465
  --------------------------------------------------------
  Sum of atomic charges =     1.000000
  Sum of spin   charges =     1.000000

 -----------------------------------------------------------------
                    Cartesian Multipole Moments
 -----------------------------------------------------------------
    Charge (ESU x 10^10)
                 4.8032
    Dipole Moment (Debye)
         X      27.9784      Y      -2.0121      Z      -0.1380
       Tot      28.0510
    Quadrupole Moments (Debye-Ang)
        XX     143.6486     XY      -8.5951     YY     -90.7056
        XZ       4.7637     YZ       7.5443     ZZ    -104.6855
    Octopole Moments (Debye-Ang^2)
       XXX     580.0317    XXY     -64.9030    XYY    -568.2489
       YYY     134.0481    XXZ      63.2685    XYZ      49.8307
       YYZ       5.9506    XZZ    -608.8444    YZZ      49.0693
       ZZZ      49.9970
    Hexadecapole Moments (Debye-Ang^3)
      XXXX   -3343.7419   XXXY    -684.5539   XXYY   -4655.9673
      XYYY     887.8177   YYYY    -777.5204   XXXZ     653.2231
      XXYZ     405.8856   XYYZ      25.7079   YYYZ    -100.3860
      XXZZ   -4690.2694   XYZZ     293.3942   YYZZ    -198.4895
      XZZZ     240.8042   YZZZ    -134.4566   ZZZZ    -347.4438
 -----------------------------------------------------------------
Archival summary:
1\1\nid00500\OPT\ProcedureUnspecified\BasisUnspecified\3128(1+,2)\bwood\TueMay3011:02:222017TueMay3011:02:222017\0\\#,OPT,ProcedureUnspecified,BasisUnspecified,\\1,2\S\C,1,1.75038\C,2,1.41191,1,110.667\H,3,1.08367,2,121.968,1,-176.594,0\C,3,1.38577,2,113.686,1,1.70027,0\H,5,1.08404,3,123.703,2,-179.062,0\C,5,1.41387,3,113.59,2,-0.983967,0\C,7,1.41427,5,127.957,3,178.717,0\C,8,1.40632,7,128.273,5,177.814,0\H,9,1.0843,8,122.996,7,-0.16809,0\C,9,1.40051,8,113.282,7,-179.904,0\H,11,1.08309,9,124.415,8,179.824,0\C,11,1.38823,9,112.458,8,-0.0268629,0\H,13,1.08284,11,127.414,9,179.981,0\C,2,1.43213,1,121.77,3,-169.481,0\C,15,1.39894,2,126.324,1,-132.285,0\H,16,1.08415,15,122.575,2,-9.80628,0\C,16,1.40819,15,113.259,2,168.896,0\H,18,1.08325,16,124.214,15,179.122,0\C,18,1.38204,16,112.461,15,-1.23597,0\H,20,1.08272,18,127.589,16,176.858,0\S,13,1.71726,11,112.973,9,-0.0419514,0\S,20,1.72181,18,112.716,16,-0.820957,0\\\@

 Total job time:  214.08s(wall), 226.68s(cpu) 
 Tue May 30 11:02:22 2017

        *************************************************************
        *                                                           *
        *  Thank you very much for using Q-Chem.  Have a nice day.  *
        *                                                           *
        *************************************************************


0 sent ACK to 0 
now end server 0 ... 
