srun -N 1 --ntasks-per-node 22 --cpus-per-task 2 --cpu_bind=cores --nodelist nid00506 /global/project/projectdirs/jcesr/qchem/qc44/cnl_qc441/dist/exe/qcprog.cori.haswell.exe .pt_nn_cation_70.0.in.34030.qcin.1 /dev/shm/eg_qchem/qchem34030/
Process 3 of 22 is on nid00506 - thread support 0
Process 4 of 22 is on nid00506 - thread support 0
Process 6 of 22 is on nid00506 - thread support 0
Process 0 of 22 is on nid00506 - thread support 0
Process 1 of 22 is on nid00506 - thread support 0
Process 2 of 22 is on nid00506 - thread support 0
Process 5 of 22 is on nid00506 - thread support 0
Process 21 of 22 is on nid00506 - thread support 0
initial socket setup ...start
initial socket setup ...done 
now start server 0 ... 
nid00506 10.128.1
Q-Chem Developer Version! Running on 10.128.1.*
                  Welcome to Q-Chem
     A Quantum Leap Into The Future Of Chemistry


 Q-Chem 4.4, Q-Chem, Inc., Pleasanton, CA (2016)

 Y. Shao,  Z. Gan,  E. Epifanovsky,  A. T. B. Gilbert,  M. Wormit,  
 J. Kussmann,  A. W. Lange,  A. Behn,  J. Deng,  X. Feng,  D. Ghosh,  
 M. Goldey,  P. R. Horn,  L. D. Jacobson,  I. Kaliman,  F. Rob,  
 R. Z. Khaliullin,  T. Kus,  A. Landau,  J. Liu,  E. I. Proynov,  Y. M. Rhee,  
 R. M. Richard,  M. A. Rohrdanz,  R. P. Steele,  E. J. Sundstrom,  
 H. L. Woodcock III,  P. M. Zimmerman,  D. Zuev,  B. Albrecht,  E. Alguire,  
 B. Austin,  S. A. Baeppler,  G. J. O. Beran,  Y. A. Bernard,  
 E. J. Berquist,  K. Brandhorst,  K. B. Bravaya,  S. T. Brown,  D. Casanova,  
 C.-M. Chang,  Y. Chen,  S. H. Chien,  K. D. Closser,  M. P. Coons,  
 D. L. Crittenden,  S. Dasgupta,  M. Diedenhofen,  R. A. DiStasio Jr.,  
 H. Do,  A. D. Dutoi,  R. G. Edgar,  P.-T. Fang,  S. Fatehi,  Q. Feng,  
 L. Fusti-Molnar,  A. Ghysels,  A. Golubeva-Zadorozhnaya,  J. Gomes,  
 A. Gunina,  M. W. D. Hanson-Heine,  P. H. P. Harbach,  A. W. Hauser,  
 J. E. Herr,  E. G. Hohenstein,  Z. C. Holden,  K. Hui,  T.-C. Jagau,  H. Ji,  
 B. Kaduk,  K. Khistyaev,  Jaehoon Kim,  Jihan Kim,  R. A. King,  
 P. Klunzinger,  K. Koh,  D. Kosenkov,  T. Kowalczyk,  C. M. Krauter,  
 A. Kunitsa,  K. U. Lao,  A. Laurent,  K. V. Lawler,  J. Lee,  D. Lefrancois,  
 S. Lehtola,  S. V. Levchenko,  C. Y. Lin,  Y.-S. Lin,  F. Liu,  E. Livshits,  
 R. C. Lochan,  A. Luenser,  P. Manohar,  S. F. Manzer,  S.-P. Mao,  Y. Mao,  
 N. Mardirossian,  A. V. Marenich,  L. A. Martinez-Martinez,  S. A. Maurer,  
 N. J. Mayhall,  J.-M. Mewes,  A. F. Morrison,  K. Nanda,  T. S. Nguyen-Beck,  
 C. M. Oana,  R. Olivares-Amaya,  D. P. O'Neill,  J. A. Parkhill,  
 T. M. Perrine,  R. Peverati,  P. A. Pieniazek,  F. Plasser,  A. Prociuk,  
 D. R. Rehn,  E. Rosta,  N. J. Russ,  N. Sergueev,  S. M. Sharada,  
 S. Sharma,  D. W. Small,  A. Sodt,  T. Stauch,  T. Stein,  D. Stuck,  
 Y.-C. Su,  A. J. W. Thom,  T. Tsuchimochi,  L. Vogt,  O. Vydrov,  T. Wang,  
 M. A. Watson,  J. Wenzel,  A. White,  C. F. Williams,  V. Vanovschi,  
 K. Yao,  S. Yeganeh,  S. R. Yost,  Z.-Q. You,  I. Y. Zhang,  X. Zhang,  
 Y. Zhao,  B. R. Brooks,  G. K. L. Chan,  D. M. Chipman,  C. J. Cramer,  
 W. A. Goddard III,  M. S. Gordon,  W. J. Hehre,  A. Klamt,  
 H. F. Schaefer III,  M. W. Schmidt,  C. D. Sherrill,  D. G. Truhlar,  
 A. Warshel,  X. Xu,  A. Aspuru-Guzik,  R. Baer,  A. T. Bell,  N. A. Besley,  
 J.-D. Chai,  A. Dreuw,  B. D. Dunietz,  T. R. Furlani,  S. R. Gwaltney,  
 C.-P. Hsu,  Y. Jung,  J. Kong,  D. S. Lambrecht,  W. Liang,  C. Ochsenfeld,  
 V. A. Rassolov,  L. V. Slipchenko,  J. E. Subotnik,  T. Van Voorhis,  
 J. M. Herbert,  A. I. Krylov,  P. M. W. Gill,  M. Head-Gordon

 Contributors to earlier versions of Q-Chem not listed above: 
 R. D. Adamson,  J. Baker,  E. F. C. Byrd,  A. K. Chakraborty,  C.-L. Cheng,  
 H. Dachsel,  R. J. Doerksen,  G. Hawkins,  A. Heyden,  S. Hirata,  
 G. Kedziora,  F. J. Keil,  C. Kelley,  P. P. Korambath,  W. Kurlancheek,  
 A. M. Lee,  M. S. Lee,  D. Liotard,  I. Lotan,  P. E. Maslen,  N. Nair,  
 D. Neuhauser,  R. Olson,  B. Peters,  J. Ritchie,  N. E. Schultz,  
 N. Shenvi,  A. C. Simmonett,  K. S. Thanthiriwatte,  Q. Wu,  W. Zhang

 Please cite Q-Chem as follows:
 Y. Shao et al., Mol. Phys. 113, 184-215 (2015)
 DOI: 10.1080/00268976.2014.952696

 Q-Chem 4.4.2 for Intel X86 EM64T Linux

 Parts of Q-Chem use Armadillo 5.200.1 (Boston Tea Smuggler).
 http://arma.sourceforge.net/

 Q-Chem begins on Tue May 30 10:58:50 2017  

Host: nid00444
0

     Scratch files written to /dev/shm/eg_qchem/qchem34030.0//
 Parallel job on  22  processors

Checking the input file for inconsistencies... 	...done.

--------------------------------------------------------------
User input:
--------------------------------------------------------------
$molecule
 1  2
 H           0.00000000        0.00000000        0.00000000
 H           0.66366000       -2.46828000       -0.59127000
 C           0.99103000       -0.39106000       -0.11652000
 C           1.36812000       -1.67442000       -0.42485000
 S           2.34669000        0.62586000        0.08638000
 C           2.76167000       -1.82175000       -0.50822000
 H           3.26291000       -2.73877000       -0.76199000
 C           3.44671000       -0.65043000       -0.26057000
 H           4.55645000        1.43902671        0.15704385
 C           4.88382000       -0.65043000       -0.26057000
 C           5.26091000        0.64090194        0.01245390
 S           6.23948000       -1.67253113       -0.43550939
 C           6.65446000        0.79046248        0.09175311
 H           7.15570000        1.71409653        0.32028213
 C           7.33950000       -0.38720773       -0.12368600
 C           8.77661000       -0.38720773       -0.12368600
 H           8.96041000        0.02981525        1.98313062
 C           9.46165000       -0.18686727        1.05664685
 S           9.87663000       -0.68254602       -1.41289707
 C          10.85520000       -0.26424405        0.90608278
 C          11.23229000       -0.52070975       -0.38863915
 H          11.55966000       -0.12988740        1.70599352
 H          12.22332000       -0.62140775       -0.78406968
$end


$rem
         jobtype = opt
        exchange = b3lyp
           basis = 6-31++g**
  max_scf_cycles = 150
      mem_static = 281
       mem_total = 2818
      sym_ignore = true
        symmetry = false
          thresh = 12
$end


$opt
CONSTRAINT
tors 13 15 16 18 70.0
ENDCONSTRAINT
$end

--------------------------------------------------------------
 ----------------------------------------------------------------
             Standard Nuclear Orientation (Angstroms)
    I     Atom           X                Y                Z
 ----------------------------------------------------------------
    1      H       0.0000000000     0.0000000000     0.0000000000
    2      H       0.6636600000    -2.4682800000    -0.5912700000
    3      C       0.9910300000    -0.3910600000    -0.1165200000
    4      C       1.3681200000    -1.6744200000    -0.4248500000
    5      S       2.3466900000     0.6258600000     0.0863800000
    6      C       2.7616700000    -1.8217500000    -0.5082200000
    7      H       3.2629100000    -2.7387700000    -0.7619900000
    8      C       3.4467100000    -0.6504300000    -0.2605700000
    9      H       4.5564500000     1.4390267100     0.1570438500
   10      C       4.8838200000    -0.6504300000    -0.2605700000
   11      C       5.2609100000     0.6409019400     0.0124539000
   12      S       6.2394800000    -1.6725311300    -0.4355093900
   13      C       6.6544600000     0.7904624800     0.0917531100
   14      H       7.1557000000     1.7140965300     0.3202821300
   15      C       7.3395000000    -0.3872077300    -0.1236860000
   16      C       8.7766100000    -0.3872077300    -0.1236860000
   17      H       8.9604100000     0.0298152500     1.9831306200
   18      C       9.4616500000    -0.1868672700     1.0566468500
   19      S       9.8766300000    -0.6825460200    -1.4128970700
   20      C      10.8552000000    -0.2642440500     0.9060827800
   21      C      11.2322900000    -0.5207097500    -0.3886391500
   22      H      11.5596600000    -0.1298874000     1.7059935200
   23      H      12.2233200000    -0.6214077500    -0.7840696800
 ----------------------------------------------------------------
 Nuclear Repulsion Energy =  1185.1150821942 hartrees
 There are       64 alpha and       63 beta electrons
 Requested basis set is 6-31++G(d,p)
 There are 110 shells and 345 basis functions

 Total QAlloc Memory Limit   2818 MB
 Mega-Array Size       275 MB
 MEM_STATIC part       281 MB
 A cutoff of  1.0D-12 yielded   4724 shell pairs
 There are     48185 function pairs

 Q-Chem warning in module /project/projectdirs/jcesr/qchem/qc44/cnl_qc441/compile/cori/qc_src/libqints/qchem/aobasis.C, line 68:

 Using reconstructed effective core potential

 
 -------------------------------------------------------
 OpenMP Integral Computing Module                       
 Release: version 1.0, May 2013, Q-Chem Inc. Pittsburgh 
 -------------------------------------------------------
 Integral Job Info:
 Integral job number is                      11
 Integral operator is                         1
 short-range coefficients                     0
 long-range coefficients              100000000
 Omega coefficients                           0
 if combine SR and LR in K                    0
 Integral screening is                        0
 Integral computing path is                   2
 max size of driver memory is            800000
 size of driver memory is                593474
 size of scratch memory is             15166112
 max col of scratch BK array               1296
 max len of scratch array in speh3          155
 max len of scratch index in speh4           18
 max int batch size is                      520
 min int batch size is                       52
 fixed nKL is                                52
 max L of basis functions is                  2
 order of int derivative is                   0
 number of shells is                        110
 number of basis is                         345
 number of cartesian basis is               345
 number of contracted shell pairs          4724
 number of primitive shell pairs          14787
 maxK2 (contraction) of shell pair           36
 max number of K2 of shell pair               1
 max number of CS2 of shell pair            507
 max number of PS2 of shell pair           3042
 mem total for path MDJ                  101704
 -------------------------------------------------------
 Smallest overlap matrix eigenvalue = 8.28E-08
 Linear dependence detected in AO basis
 Number of orthogonalized atomic orbitals = 342
 Maximum deviation from orthogonality = 1.237E-10

 Scale SEOQF with 1.000000e-02/1.000000e-01/1.000000e-01

 Standard Electronic Orientation quadrupole field applied
 Nucleus-field energy     =     0.0000000251 hartrees
 Guess from superposition of atomic densities
 Warning:  Energy on first SCF cycle will be non-variational
 An unrestricted hybrid HF-DFT SCF calculation will be
 performed using Pulay DIIS extrapolation
 Exchange:     0.2000 Hartree-Fock + 0.0800 Slater + 0.7200 B88
 Correlation:  0.1900 VWN1RPA + 0.8100 LYP
 Using SG-1 standard quadrature grid
 SCF converges when DIIS error is below 1.0E-08
 Inaccurate integrated density:
   Number of electrons =   127
   Numerical integral  =   127.999272429281
   Relative error      =     0.7868286845 %
 ---------------------------------------
  Cycle       Energy         DIIS Error
 ---------------------------------------
    1   -1660.7222166096      3.84E-02
    2   -1656.1472889450      3.57E-03
    3   -1655.7859345931      5.69E-03
    4   -1656.3426407466      9.60E-04
    5   -1656.3541357978      5.29E-04
    6   -1656.3586173133      1.79E-04
    7   -1656.3591225458      7.70E-05
    8   -1656.3592404307      2.41E-05
    9   -1656.3592641941      9.28E-06
   10   -1656.3592770819      3.92E-06
   11   -1656.3592850711      3.82E-06
   12   -1656.3592882126      1.57E-06
   13   -1656.3592893364      1.05E-06
   14   -1656.3592895267      3.59E-07
   15   -1656.3592895637      1.23E-07
   16   -1656.3592895684      6.85E-08
   17   -1656.3592895689      3.33E-08
   18   -1656.3592895688      2.34E-08
   19   -1656.3592895706      1.32E-08
   20   -1656.3592895696      6.72E-09 Convergence criterion met
 ---------------------------------------
 <S^2> = 0.7629
 SCF time:  CPU 27.72 s  wall 25.87 s
 SCF   energy in the final basis set = -1656.3592895696
 Total energy in the final basis set = -1656.3592895696
 
 --------------------------------------------------------------
 
                    Orbital Energies (a.u.)
 --------------------------------------------------------------
 
 Alpha MOs
 -- Occupied --
-89.088 -89.076 -89.052 -10.408 -10.407 -10.402 -10.389 -10.371
-10.364 -10.360 -10.356 -10.354 -10.352 -10.336 -10.325  -8.146
 -8.137  -8.111  -6.111  -6.107  -6.103  -6.101  -6.097  -6.093
 -6.076  -6.072  -6.069  -1.083  -1.056  -1.030  -0.958  -0.918
 -0.903  -0.896  -0.877  -0.848  -0.774  -0.751  -0.709  -0.702
 -0.694  -0.685  -0.675  -0.651  -0.609  -0.586  -0.583  -0.576
 -0.562  -0.555  -0.551  -0.535  -0.527  -0.524  -0.522  -0.509
 -0.499  -0.481  -0.451  -0.425  -0.414  -0.391  -0.387  -0.365
 -- Virtual --
 -0.220  -0.167  -0.152  -0.144  -0.119  -0.118  -0.109  -0.105
 -0.103  -0.098  -0.094  -0.089  -0.081  -0.079  -0.074  -0.073
 -0.068  -0.063  -0.059  -0.056  -0.046  -0.042  -0.037  -0.034
 -0.028  -0.019  -0.016  -0.013  -0.006  -0.004   0.003   0.008
  0.010   0.013   0.015   0.018   0.021   0.022   0.026   0.030
  0.033   0.039   0.041   0.043   0.045   0.049   0.050   0.054
  0.056   0.059   0.060   0.062   0.066   0.073   0.077   0.083
  0.085   0.093   0.098   0.099   0.106   0.111   0.113   0.119
  0.123   0.124   0.129   0.131   0.135   0.146   0.151   0.154
  0.164   0.167   0.171   0.171   0.179   0.182   0.188   0.193
  0.206   0.215   0.217   0.228   0.233   0.240   0.246   0.251
  0.258   0.264   0.277   0.286   0.309   0.331   0.345   0.349
  0.370   0.386   0.397   0.405   0.421   0.435   0.459   0.464
  0.484   0.487   0.492   0.502   0.503   0.507   0.511   0.516
  0.530   0.544   0.552   0.556   0.569   0.579   0.586   0.593
  0.600   0.604   0.613   0.618   0.636   0.647   0.652   0.656
  0.660   0.665   0.677   0.680   0.698   0.721   0.739   0.773
  0.788   0.796   0.803   0.813   0.822   0.826   0.840   0.845
  0.847   0.852   0.857   0.864   0.871   0.884   0.892   0.893
  0.903   0.915   0.921   0.939   0.951   0.962   0.970   0.984
  1.006   1.018   1.034   1.046   1.057   1.088   1.097   1.110
  1.140   1.151   1.161   1.178   1.191   1.196   1.204   1.212
  1.221   1.231   1.250   1.262   1.269   1.302   1.313   1.358
  1.396   1.417   1.448   1.478   1.497   1.550   1.572   1.629
  1.666   1.699   1.725   1.742   1.750   1.775   1.780   1.789
  1.796   1.838   1.842   1.854   1.878   1.899   1.911   1.940
  1.949   1.973   1.986   2.033   2.044   2.059   2.071   2.086
  2.097   2.129   2.140   2.145   2.178   2.192   2.226   2.254
  2.276   2.306   2.318   2.323   2.336   2.343   2.364   2.385
  2.389   2.400   2.413   2.440   2.447   2.481   2.485   2.511
  2.532   2.537   2.569   2.582   2.621   2.684   2.690   2.719
  2.749   2.781   2.795   2.815   3.027   3.065   3.076   3.153
  3.175   3.200   3.288   3.311   3.556   3.618   3.640   3.816
  3.843   3.852   4.099   4.153   4.174   4.179   4.195   4.224
  4.243   4.337   4.406   4.507   4.560   4.577
 
 Beta MOs
 -- Occupied --
-89.088 -89.076 -89.052 -10.405 -10.404 -10.401 -10.385 -10.371
-10.362 -10.358 -10.356 -10.353 -10.352 -10.335 -10.325  -8.147
 -8.137  -8.111  -6.111  -6.107  -6.104  -6.101  -6.097  -6.094
 -6.076  -6.072  -6.069  -1.078  -1.052  -1.027  -0.952  -0.916
 -0.900  -0.893  -0.876  -0.842  -0.770  -0.748  -0.706  -0.700
 -0.692  -0.683  -0.673  -0.650  -0.608  -0.582  -0.574  -0.572
 -0.560  -0.552  -0.543  -0.533  -0.524  -0.522  -0.516  -0.506
 -0.498  -0.480  -0.431  -0.422  -0.411  -0.388  -0.371
 -- Virtual --
 -0.312  -0.204  -0.161  -0.143  -0.140  -0.117  -0.116  -0.103
 -0.101  -0.099  -0.094  -0.089  -0.088  -0.081  -0.078  -0.074
 -0.071  -0.067  -0.062  -0.058  -0.055  -0.045  -0.042  -0.037
 -0.034  -0.027  -0.018  -0.015  -0.013  -0.005  -0.003   0.003
  0.008   0.010   0.014   0.015   0.019   0.022   0.023   0.027
  0.031   0.034   0.039   0.041   0.043   0.046   0.050   0.051
  0.055   0.057   0.060   0.061   0.063   0.067   0.074   0.078
  0.084   0.086   0.094   0.098   0.100   0.107   0.111   0.114
  0.120   0.123   0.125   0.130   0.132   0.136   0.147   0.152
  0.155   0.165   0.168   0.172   0.173   0.180   0.183   0.189
  0.194   0.207   0.216   0.218   0.229   0.234   0.241   0.247
  0.253   0.260   0.265   0.279   0.287   0.310   0.332   0.347
  0.350   0.371   0.388   0.398   0.406   0.422   0.436   0.461
  0.466   0.488   0.489   0.495   0.503   0.506   0.509   0.518
  0.518   0.533   0.546   0.555   0.558   0.573   0.581   0.588
  0.595   0.603   0.608   0.614   0.623   0.638   0.649   0.655
  0.658   0.663   0.668   0.680   0.682   0.702   0.724   0.741
  0.775   0.789   0.799   0.806   0.814   0.826   0.828   0.841
  0.846   0.849   0.853   0.858   0.866   0.873   0.886   0.894
  0.894   0.905   0.916   0.922   0.941   0.952   0.964   0.971
  0.985   1.008   1.019   1.036   1.049   1.061   1.091   1.100
  1.112   1.145   1.155   1.164   1.182   1.193   1.201   1.209
  1.216   1.224   1.233   1.252   1.263   1.276   1.306   1.317
  1.360   1.400   1.420   1.452   1.485   1.501   1.561   1.577
  1.636   1.668   1.703   1.727   1.747   1.754   1.777   1.782
  1.790   1.798   1.842   1.846   1.857   1.882   1.902   1.914
  1.943   1.953   1.978   1.991   2.039   2.052   2.065   2.076
  2.093   2.103   2.133   2.145   2.150   2.181   2.197   2.229
  2.256   2.281   2.309   2.321   2.326   2.341   2.344   2.367
  2.387   2.393   2.402   2.415   2.444   2.450   2.483   2.487
  2.514   2.535   2.540   2.573   2.583   2.623   2.688   2.694
  2.721   2.751   2.783   2.797   2.817   3.028   3.066   3.077
  3.153   3.176   3.200   3.289   3.312   3.557   3.619   3.641
  3.817   3.844   3.852   4.103   4.158   4.177   4.182   4.198
  4.226   4.248   4.340   4.411   4.510   4.563   4.579
 --------------------------------------------------------------
 
          Ground-State Mulliken Net Atomic Charges

     Atom                 Charge (a.u.)    Spin (a.u.)
  --------------------------------------------------------
      1 H                     0.252402      -0.013246
      2 H                     0.159326       0.001101
      3 C                     0.097997       0.268177
      4 C                    -0.395995      -0.039062
      5 S                    -0.104012      -0.038562
      6 C                     0.570810       0.147783
      7 H                     0.147151      -0.009279
      8 C                     0.130164       0.080683
      9 H                     0.070795      -0.007797
     10 C                    -0.118390       0.148836
     11 C                    -0.422621       0.112655
     12 S                     0.272420      -0.045474
     13 C                    -0.100089      -0.014973
     14 H                     0.182036       0.000083
     15 C                    -0.173498       0.240224
     16 C                    -0.077086       0.045315
     17 H                     0.163280      -0.004245
     18 C                     0.139935       0.048576
     19 S                     0.157935      -0.013871
     20 C                    -0.344645      -0.009595
     21 C                     0.008696       0.106354
     22 H                     0.152565       0.000883
     23 H                     0.230824      -0.004567
  --------------------------------------------------------
  Sum of atomic charges =     1.000000
  Sum of spin   charges =     1.000000

 -----------------------------------------------------------------
                    Cartesian Multipole Moments
 -----------------------------------------------------------------
    Charge (ESU x 10^10)
                 4.8032
    Dipole Moment (Debye)
         X      26.5668      Y      -2.1822      Z      -0.1850
       Tot      26.6569
    Quadrupole Moments (Debye-Ang)
        XX     127.4601     XY      -8.2606     YY     -95.3668
        XZ       1.9101     YZ       4.5553     ZZ    -103.1156
    Octopole Moments (Debye-Ang^2)
       XXX     393.3632    XXY     -20.5262    XYY    -619.4829
       YYY     140.8028    XXZ      41.2079    XYZ      24.1969
       YYZ      14.4563    XZZ    -606.5614    YZZ      51.3115
       ZZZ      70.7514
    Hexadecapole Moments (Debye-Ang^3)
      XXXX   -5646.1959   XXXY      83.3450   XXYY   -5216.3359
      XYYY     914.7159   YYYY    -676.9837   XXXZ     521.3332
      XXYZ     160.2558   XYYZ     111.2779   YYYZ     -81.8103
      XXZZ   -4754.7230   XYZZ     298.3335   YYZZ    -195.5262
      XZZZ     461.6449   YZZZ    -103.8508   ZZZZ    -395.3736
 -----------------------------------------------------------------
 Calculating analytic gradient of the SCF energy
 Gradient of SCF Energy
            1           2           3           4           5           6
    1   0.0070517   0.0045272  -0.0050821  -0.0029275   0.0034366   0.0274127
    2  -0.0034628   0.0048812  -0.0005885   0.0152407  -0.0282324   0.0139115
    3  -0.0011121   0.0011468  -0.0007208   0.0045784  -0.0059984   0.0037592
            7           8           9          10          11          12
    1  -0.0015384  -0.0243005  -0.0022424   0.0476490  -0.0612778   0.0021312
    2   0.0061039   0.0600329  -0.0063602  -0.0447637  -0.0328919   0.0401777
    3   0.0006218   0.0103363  -0.0001083  -0.0065412  -0.0088591   0.0121403
           13          14          15          16          17          18
    1   0.0257842  -0.0034669  -0.0058443   0.0021639   0.0020301  -0.0067871
    2  -0.0177637  -0.0048869  -0.0149427   0.0141121   0.0004032  -0.0105660
    3  -0.0134167   0.0007552   0.0127092  -0.0109665  -0.0060056  -0.0062179
           19          20          21          22          23
    1   0.0034330  -0.0047612   0.0033455  -0.0039277  -0.0068093
    2   0.0102881  -0.0001228   0.0007279  -0.0002990  -0.0009984
    3   0.0232842  -0.0037103  -0.0039629  -0.0053459   0.0036344
 Max gradient component =       6.128E-02
 RMS gradient           =       1.727E-02
 Gradient time:  CPU 4.31 s  wall 4.24 s
 Geometry Optimization Parameters
   NAtoms,    NIC,     NZ,  NCons,   NDum,   NFix, NCnnct, MaxDiis
       23     166       0       1       0       0       0       0


** CONSTRAINED OPTIMIZATION IN DELOCALIZED INTERNAL COORDINATES **
   Searching for a Minimum

   Optimization Cycle:   1

                       Coordinates (Angstroms)
     ATOM                X               Y               Z
      1  H         0.0000000000    0.0000000000    0.0000000000
      2  H         0.6636600000   -2.4682800000   -0.5912700000
      3  C         0.9910300000   -0.3910600000   -0.1165200000
      4  C         1.3681200000   -1.6744200000   -0.4248500000
      5  S         2.3466900000    0.6258600000    0.0863800000
      6  C         2.7616700000   -1.8217500000   -0.5082200000
      7  H         3.2629100000   -2.7387700000   -0.7619900000
      8  C         3.4467100000   -0.6504300000   -0.2605700000
      9  H         4.5564500000    1.4390267100    0.1570438500
     10  C         4.8838200000   -0.6504300000   -0.2605700000
     11  C         5.2609100000    0.6409019400    0.0124539000
     12  S         6.2394800000   -1.6725311300   -0.4355093900
     13  C         6.6544600000    0.7904624800    0.0917531100
     14  H         7.1557000000    1.7140965300    0.3202821300
     15  C         7.3395000000   -0.3872077300   -0.1236860000
     16  C         8.7766100000   -0.3872077300   -0.1236860000
     17  H         8.9604100000    0.0298152500    1.9831306200
     18  C         9.4616500000   -0.1868672700    1.0566468500
     19  S         9.8766300000   -0.6825460200   -1.4128970700
     20  C        10.8552000000   -0.2642440500    0.9060827800
     21  C        11.2322900000   -0.5207097500   -0.3886391500
     22  H        11.5596600000   -0.1298874000    1.7059935200
     23  H        12.2233200000   -0.6214077500   -0.7840696800
   Point Group: c1    Number of degrees of freedom:    63


   Energy is  -1656.359289570

              Constraints and their Current Values
                                        Value     Constraint
   Dihedral:       13  15  16  18       70.000       70.000

 Attempting to Generate Delocalized Internal Coordinates

 62 Hessian modes will be used to form the next step
  Hessian Eigenvalues:
     0.045000    0.045000    0.045000    0.045000    0.045000    0.045000
     0.045001    0.045001    0.045001    0.045002    0.045003    0.045003
     0.045011    0.045012    0.045012    0.045025    0.045032    0.045058
     0.045059    0.159944    0.159945    0.159945    0.159992    0.159993
     0.159993    0.160000    0.160000    0.221307    0.221308    0.227041
     0.237995    0.238010    0.245411    0.249662    0.249670    0.249670
     0.249825    0.326317    0.326319    0.326962    0.340043    0.340044
     0.340629    0.365512    0.365512    0.365513    0.366888    0.366889
     0.366889    0.370099    0.370100    0.399845    0.399845    0.435419
     0.435419    0.435422    0.463117    0.463122    0.464282    0.495500
     0.495500    0.495533

 Minimum Search - Taking Simple RFO Step
 Searching for Lamda that Minimizes Along All modes
 Value Taken    Lamda =  -0.06451380
 Calculated Step too Large.  Step scaled by  0.687135
 Step Taken.  Stepsize is  0.300000

                             Maximum     Tolerance    Cnvgd?
         Gradient           0.079390      0.000300      NO
         Displacement       0.172078      0.001200      NO
         Energy change     *********      0.000001      NO


 New Cartesian Coordinates Obtained by Inverse Iteration

 Displacement from previous Coordinates is:  1.948660
 ----------------------------------------------------------------
             Standard Nuclear Orientation (Angstroms)
    I     Atom           X                Y                Z
 ----------------------------------------------------------------
    1      H      -0.1182436762    -0.2871848067    -0.1025898680
    2      H       0.7993197004    -2.6975725809    -0.6542875478
    3      C       0.9162349309    -0.5801226267    -0.1856986645
    4      C       1.4214401881    -1.8334369937    -0.4735350394
    5      S       2.1495715099     0.5896113376     0.0514151434
    6      C       2.8231626807    -1.8371640221    -0.5104376944
    7      H       3.4190940125    -2.7090069541    -0.7393156832
    8      C       3.3951006754    -0.5840932548    -0.2495435582
    9      H       4.6309283326     1.7549730141     0.1996705221
   10      C       4.8260974603    -0.3986004253    -0.1997234567
   11      C       5.2853455755     0.9098939874     0.0667025171
   12      S       6.1622950442    -1.4713399964    -0.3586082196
   13      C       6.6776671506     1.0100842050     0.1489028345
   14      H       7.2207158217     1.9193531636     0.3614995054
   15      C       7.3150123071    -0.2121118352    -0.0522339655
   16      C       8.7554793851    -0.3369051772    -0.0697164365
   17      H       9.0820571933     0.0950595314     2.0347083119
   18      C       9.5153677207    -0.1838571052     1.0849599758
   19      S       9.7584820440    -0.7765169624    -1.4116666153
   20      C      10.8900858937    -0.4044724431     0.8711254438
   21      C      11.1714624010    -0.7214578537    -0.4401434909
   22      H      11.6466989900    -0.3276346808     1.6377918564
   23      H      12.1335046584    -0.9250834408    -0.8819864004
 ----------------------------------------------------------------
 Nuclear Repulsion Energy =  1175.9139010126 hartrees
 There are       64 alpha and       63 beta electrons
 Applying Cartesian multipole field
    Component          Value
    ---------          -----
     (2,0,0)        1.00000E-12
     (0,2,0)        2.00000E-11
     (0,0,2)       -3.00000E-11
 Nucleus-field energy     =     0.0000000252 hartrees
 Requested basis set is 6-31++G(d,p)
 There are 110 shells and 345 basis functions
 A cutoff of  1.0D-12 yielded   4695 shell pairs
 There are     47805 function pairs

 Q-Chem warning in module /project/projectdirs/jcesr/qchem/qc44/cnl_qc441/compile/cori/qc_src/libqints/qchem/aobasis.C, line 68:

 Using reconstructed effective core potential

 Smallest overlap matrix eigenvalue = 8.07E-08
 Linear dependence detected in AO basis
 Number of orthogonalized atomic orbitals = 342
 Maximum deviation from orthogonality = 4.665E-11
 Guess MOs from SCF MO coefficient file
 Reading MOs from coefficient file
 Reading MOs from coefficient file
 An unrestricted hybrid HF-DFT SCF calculation will be
 performed using Pulay DIIS extrapolation
 Exchange:     0.2000 Hartree-Fock + 0.0800 Slater + 0.7200 B88
 Correlation:  0.1900 VWN1RPA + 0.8100 LYP
 Using SG-1 standard quadrature grid
 SCF converges when DIIS error is below 1.0E-08
 Geometry optimization detected.  Setting ReadMinima to 0
 Setting SaveMinima to 0
 Inaccurate integrated density:
   Number of electrons =   127
   Numerical integral  =   126.743667758217
   Relative error      =    -0.2018364109 %
 ---------------------------------------
  Cycle       Energy         DIIS Error
 ---------------------------------------
    1   -1656.0947911045      4.98E-03
    2   -1656.3680307119      1.09E-03
    3   -1656.3280397399      1.88E-03
    4   -1656.3879665866      3.08E-04
    5   -1656.3893913741      1.02E-04
    6   -1656.3895429596      4.52E-05
    7   -1656.3895734596      1.94E-05
    8   -1656.3895799004      5.90E-06
    9   -1656.3895805645      2.34E-06
   10   -1656.3895807440      8.01E-07
   11   -1656.3895808063      4.45E-07
   12   -1656.3895808315      1.99E-07
   13   -1656.3895808422      1.03E-07
   14   -1656.3895808449      4.87E-08
   15   -1656.3895808465      2.79E-08
   16   -1656.3895808465      1.41E-08
   17   -1656.3895808462      7.53E-09 Convergence criterion met
 ---------------------------------------
 <S^2> = 0.7642
 SCF time:  CPU 24.26 s  wall 22.51 s
 SCF   energy in the final basis set = -1656.3895808462
 Total energy in the final basis set = -1656.3895808462
 
 --------------------------------------------------------------
 
                    Orbital Energies (a.u.)
 --------------------------------------------------------------
 
 Alpha MOs
 -- Occupied --
-89.084 -89.077 -89.053 -10.413 -10.410 -10.404 -10.390 -10.373
-10.368 -10.365 -10.361 -10.356 -10.353 -10.339 -10.327  -8.143
 -8.136  -8.112  -6.107  -6.103  -6.100  -6.100  -6.096  -6.093
 -6.076  -6.072  -6.069  -1.072  -1.049  -1.024  -0.947  -0.914
 -0.899  -0.893  -0.876  -0.843  -0.770  -0.745  -0.711  -0.699
 -0.692  -0.683  -0.670  -0.648  -0.608  -0.578  -0.575  -0.573
 -0.559  -0.553  -0.548  -0.534  -0.531  -0.523  -0.520  -0.509
 -0.500  -0.482  -0.447  -0.424  -0.414  -0.390  -0.386  -0.363
 -- Virtual --
 -0.225  -0.169  -0.155  -0.140  -0.125  -0.116  -0.111  -0.105
 -0.102  -0.097  -0.095  -0.090  -0.082  -0.079  -0.074  -0.074
 -0.068  -0.063  -0.059  -0.055  -0.046  -0.042  -0.038  -0.033
 -0.027  -0.020  -0.016  -0.013  -0.005  -0.004   0.003   0.008
  0.010   0.011   0.014   0.020   0.021   0.022   0.027   0.029
  0.032   0.038   0.041   0.043   0.045   0.048   0.050   0.053
  0.055   0.058   0.059   0.061   0.066   0.070   0.077   0.082
  0.086   0.087   0.097   0.097   0.103   0.110   0.111   0.115
  0.120   0.121   0.124   0.130   0.137   0.142   0.149   0.152
  0.154   0.165   0.170   0.172   0.178   0.181   0.185   0.195
  0.199   0.209   0.215   0.222   0.231   0.236   0.241   0.249
  0.254   0.259   0.268   0.283   0.311   0.327   0.332   0.349
  0.373   0.383   0.394   0.402   0.419   0.431   0.455   0.459
  0.473   0.481   0.490   0.496   0.502   0.508   0.511   0.520
  0.524   0.540   0.550   0.554   0.567   0.574   0.577   0.591
  0.600   0.601   0.612   0.620   0.629   0.643   0.653   0.656
  0.666   0.671   0.675   0.677   0.699   0.716   0.726   0.771
  0.788   0.797   0.801   0.811   0.819   0.820   0.834   0.840
  0.843   0.849   0.851   0.857   0.865   0.869   0.887   0.893
  0.895   0.910   0.916   0.937   0.946   0.961   0.964   0.978
  0.994   1.016   1.023   1.037   1.056   1.080   1.086   1.107
  1.131   1.144   1.157   1.179   1.191   1.195   1.203   1.203
  1.221   1.227   1.249   1.254   1.282   1.304   1.317   1.359
  1.385   1.407   1.429   1.476   1.498   1.547   1.568   1.628
  1.664   1.689   1.715   1.734   1.751   1.764   1.773   1.786
  1.793   1.815   1.825   1.834   1.874   1.875   1.895   1.924
  1.925   1.959   1.973   2.018   2.028   2.049   2.059   2.072
  2.089   2.102   2.119   2.128   2.155   2.174   2.220   2.248
  2.269   2.300   2.306   2.309   2.325   2.334   2.346   2.372
  2.376   2.388   2.394   2.423   2.433   2.471   2.476   2.487
  2.514   2.527   2.559   2.575   2.612   2.675   2.688   2.713
  2.748   2.756   2.770   2.793   2.998   3.048   3.061   3.139
  3.161   3.190   3.270   3.296   3.533   3.594   3.622   3.814
  3.835   3.848   4.090   4.148   4.165   4.172   4.181   4.211
  4.240   4.330   4.395   4.499   4.551   4.570
 
 Beta MOs
 -- Occupied --
-89.084 -89.077 -89.053 -10.411 -10.407 -10.403 -10.387 -10.372
-10.367 -10.363 -10.361 -10.355 -10.354 -10.338 -10.327  -8.143
 -8.136  -8.112  -6.108  -6.104  -6.101  -6.100  -6.097  -6.093
 -6.076  -6.072  -6.069  -1.067  -1.044  -1.021  -0.941  -0.912
 -0.898  -0.888  -0.875  -0.837  -0.766  -0.742  -0.708  -0.697
 -0.690  -0.682  -0.668  -0.646  -0.606  -0.574  -0.571  -0.565
 -0.557  -0.551  -0.540  -0.533  -0.530  -0.520  -0.513  -0.506
 -0.499  -0.481  -0.426  -0.421  -0.411  -0.388  -0.370
 -- Virtual --
 -0.310  -0.208  -0.162  -0.143  -0.139  -0.122  -0.115  -0.105
 -0.101  -0.099  -0.094  -0.090  -0.086  -0.081  -0.078  -0.073
 -0.072  -0.067  -0.062  -0.058  -0.055  -0.045  -0.041  -0.038
 -0.033  -0.026  -0.019  -0.015  -0.012  -0.005  -0.003   0.004
  0.009   0.010   0.011   0.015   0.021   0.022   0.023   0.028
  0.030   0.033   0.039   0.042   0.044   0.046   0.049   0.051
  0.054   0.056   0.058   0.060   0.062   0.067   0.070   0.078
  0.083   0.087   0.088   0.098   0.098   0.104   0.111   0.112
  0.116   0.121   0.122   0.126   0.131   0.138   0.142   0.150
  0.153   0.155   0.166   0.170   0.173   0.179   0.182   0.186
  0.196   0.200   0.210   0.217   0.224   0.232   0.238   0.242
  0.251   0.254   0.260   0.271   0.284   0.312   0.328   0.333
  0.350   0.373   0.385   0.394   0.403   0.420   0.432   0.456
  0.461   0.474   0.482   0.492   0.501   0.504   0.511   0.518
  0.523   0.527   0.542   0.552   0.555   0.569   0.577   0.579
  0.593   0.602   0.607   0.613   0.625   0.630   0.645   0.655
  0.659   0.669   0.672   0.676   0.681   0.702   0.719   0.728
  0.772   0.789   0.801   0.803   0.813   0.822   0.823   0.836
  0.841   0.845   0.849   0.851   0.859   0.867   0.870   0.888
  0.894   0.897   0.911   0.917   0.938   0.947   0.962   0.966
  0.979   0.995   1.017   1.026   1.041   1.058   1.083   1.090
  1.110   1.137   1.148   1.160   1.182   1.194   1.199   1.206
  1.210   1.223   1.229   1.252   1.256   1.288   1.308   1.322
  1.361   1.390   1.411   1.432   1.480   1.505   1.557   1.572
  1.634   1.667   1.692   1.719   1.738   1.754   1.765   1.775
  1.788   1.796   1.820   1.829   1.837   1.877   1.879   1.898
  1.928   1.930   1.962   1.978   2.025   2.035   2.053   2.065
  2.078   2.093   2.108   2.124   2.133   2.158   2.179   2.223
  2.250   2.275   2.303   2.310   2.312   2.329   2.336   2.348
  2.374   2.380   2.389   2.397   2.426   2.436   2.473   2.478
  2.490   2.517   2.531   2.563   2.577   2.614   2.678   2.693
  2.715   2.750   2.758   2.772   2.795   2.999   3.049   3.062
  3.139   3.162   3.191   3.271   3.297   3.534   3.595   3.623
  3.814   3.835   3.849   4.095   4.153   4.167   4.175   4.185
  4.213   4.245   4.333   4.400   4.503   4.554   4.573
 --------------------------------------------------------------
 
          Ground-State Mulliken Net Atomic Charges

     Atom                 Charge (a.u.)    Spin (a.u.)
  --------------------------------------------------------
      1 H                     0.248638      -0.013381
      2 H                     0.164926       0.001452
      3 C                     0.073698       0.264199
      4 C                    -0.340313      -0.042018
      5 S                    -0.023320      -0.040040
      6 C                     0.462373       0.146524
      7 H                     0.143824      -0.009595
      8 C                    -0.081805       0.076229
      9 H                     0.123905      -0.007776
     10 C                    -0.023818       0.153110
     11 C                    -0.245079       0.117332
     12 S                     0.132640      -0.052274
     13 C                     0.003835      -0.010480
     14 H                     0.180618      -0.000263
     15 C                    -0.263137       0.249915
     16 C                    -0.127970       0.043834
     17 H                     0.166953      -0.004525
     18 C                     0.209643       0.048336
     19 S                     0.139363      -0.013089
     20 C                    -0.363297      -0.011315
     21 C                     0.033343       0.107459
     22 H                     0.152905       0.000949
     23 H                     0.232076      -0.004583
  --------------------------------------------------------
  Sum of atomic charges =     1.000000
  Sum of spin   charges =     1.000000

 -----------------------------------------------------------------
                    Cartesian Multipole Moments
 -----------------------------------------------------------------
    Charge (ESU x 10^10)
                 4.8032
    Dipole Moment (Debye)
         X      26.5077      Y      -2.1161      Z      -0.1771
       Tot      26.5926
    Quadrupole Moments (Debye-Ang)
        XX     127.0774     XY      -7.8870     YY     -94.1453
        XZ       2.6121     YZ       4.9511     ZZ    -103.3393
    Octopole Moments (Debye-Ang^2)
       XXX     395.8485    XXY     -38.8449    XYY    -607.4792
       YYY     136.1068    XXZ      45.8955    XYZ      27.4252
       YYZ      13.1348    XZZ    -601.4077    YZZ      48.5034
       ZZZ      67.3948
    Hexadecapole Moments (Debye-Ang^3)
      XXXX   -5594.6987   XXXY    -283.3246   XXYY   -5100.9739
      XYYY     905.4848   YYYY    -685.1657   XXXZ     538.0678
      XXYZ     193.9202   XYYZ      96.2728   YYYZ     -79.5225
      XXZZ   -4689.1415   XYZZ     279.3518   YYZZ    -198.0508
      XZZZ     418.1823   YZZZ    -103.9476   ZZZZ    -393.4138
 -----------------------------------------------------------------
 Calculating analytic gradient of the SCF energy
 Gradient of SCF Energy
            1           2           3           4           5           6
    1   0.0029881   0.0013220  -0.0020057  -0.0043186   0.0003055   0.0105052
    2  -0.0013050   0.0017146  -0.0011173   0.0045995  -0.0146353   0.0048592
    3  -0.0004392   0.0004439  -0.0006714   0.0017339  -0.0026866   0.0023116
            7           8           9          10          11          12
    1  -0.0009686  -0.0284970   0.0036920   0.0336855  -0.0240619  -0.0007882
    2   0.0026648   0.0362184  -0.0029424  -0.0434552  -0.0053770   0.0251384
    3  -0.0001703   0.0049222   0.0004632  -0.0064831  -0.0028110   0.0080860
           13          14          15          16          17          18
    1   0.0183846  -0.0012593  -0.0074334   0.0041445   0.0009079  -0.0032010
    2  -0.0034031  -0.0018081  -0.0104118   0.0094647   0.0007469  -0.0089384
    3  -0.0098849   0.0011908   0.0111724  -0.0142676  -0.0024589   0.0014447
           19          20          21          22          23
    1   0.0026846  -0.0023611   0.0005576  -0.0015133  -0.0027692
    2   0.0069649   0.0006042   0.0010334   0.0002617  -0.0008771
    3   0.0113026   0.0005307  -0.0036423  -0.0019325   0.0018456
 Max gradient component =       4.346E-02
 RMS gradient           =       1.101E-02
 Gradient time:  CPU 4.26 s  wall 4.20 s
 Geometry Optimization Parameters
   NAtoms,    NIC,     NZ,  NCons,   NDum,   NFix, NCnnct, MaxDiis
       23     166       0       1       0       0       0       0

 Cartesian Hessian Update
 Hessian Updated using BFGS Update


** CONSTRAINED OPTIMIZATION IN DELOCALIZED INTERNAL COORDINATES **
   Searching for a Minimum

   Optimization Cycle:   2

                       Coordinates (Angstroms)
     ATOM                X               Y               Z
      1  H        -0.1182436762   -0.2871848067   -0.1025898680
      2  H         0.7993197004   -2.6975725809   -0.6542875478
      3  C         0.9162349309   -0.5801226267   -0.1856986645
      4  C         1.4214401881   -1.8334369937   -0.4735350394
      5  S         2.1495715099    0.5896113376    0.0514151434
      6  C         2.8231626807   -1.8371640221   -0.5104376944
      7  H         3.4190940125   -2.7090069541   -0.7393156832
      8  C         3.3951006754   -0.5840932548   -0.2495435582
      9  H         4.6309283326    1.7549730141    0.1996705221
     10  C         4.8260974603   -0.3986004253   -0.1997234567
     11  C         5.2853455755    0.9098939874    0.0667025171
     12  S         6.1622950442   -1.4713399964   -0.3586082196
     13  C         6.6776671506    1.0100842050    0.1489028345
     14  H         7.2207158217    1.9193531636    0.3614995054
     15  C         7.3150123071   -0.2121118352   -0.0522339655
     16  C         8.7554793851   -0.3369051772   -0.0697164365
     17  H         9.0820571933    0.0950595314    2.0347083119
     18  C         9.5153677207   -0.1838571052    1.0849599758
     19  S         9.7584820440   -0.7765169624   -1.4116666153
     20  C        10.8900858937   -0.4044724431    0.8711254438
     21  C        11.1714624010   -0.7214578537   -0.4401434909
     22  H        11.6466989900   -0.3276346808    1.6377918564
     23  H        12.1335046584   -0.9250834408   -0.8819864004
   Point Group: c1    Number of degrees of freedom:    63


   Energy is  -1656.389580846

              Constraints and their Current Values
                                        Value     Constraint
   Dihedral:       13  15  16  18       70.000       70.000
 Hessian Updated using BFGS Update

 62 Hessian modes will be used to form the next step
  Hessian Eigenvalues:
     0.044714    0.045000    0.045000    0.045000    0.045000    0.045000
     0.045001    0.045001    0.045001    0.045002    0.045003    0.045003
     0.045011    0.045012    0.045014    0.045019    0.045028    0.045057
     0.045060    0.159429    0.159945    0.159946    0.159979    0.159993
     0.159994    0.160000    0.160249    0.190240    0.221309    0.221837
     0.230276    0.238061    0.238780    0.246488    0.249669    0.249670
     0.283927    0.324380    0.326557    0.327287    0.338561    0.340065
     0.340399    0.365178    0.365513    0.365522    0.366530    0.366889
     0.367336    0.369908    0.370100    0.399218    0.414703    0.434744
     0.435420    0.437163    0.462650    0.463119    0.471388    0.495013
     0.495504    0.578538

 Minimum Search - Taking Simple RFO Step
 Searching for Lamda that Minimizes Along All modes
 Value Taken    Lamda =  -0.02132115
 Calculated Step too Large.  Step scaled by  0.903279
 Step Taken.  Stepsize is  0.300000

                             Maximum     Tolerance    Cnvgd?
         Gradient           0.030190      0.000300      NO
         Displacement       0.127530      0.001200      NO
         Energy change     -0.030291      0.000001      NO


 New Cartesian Coordinates Obtained by Inverse Iteration

 Displacement from previous Coordinates is:  1.584215
 ----------------------------------------------------------------
             Standard Nuclear Orientation (Angstroms)
    I     Atom           X                Y                Z
 ----------------------------------------------------------------
    1      H      -0.0927620239    -0.4419785588    -0.2078711138
    2      H       0.9522732270    -2.8196860397    -0.7172776713
    3      C       0.9616209012    -0.6867818240    -0.2571631545
    4      C       1.5328627340    -1.9258000887    -0.5235983640
    5      S       2.1200026392     0.5580673105     0.0096033231
    6      C       2.9303508685    -1.8700963063    -0.5162176452
    7      H       3.5740545378    -2.7200242163    -0.7168597481
    8      C       3.4294592549    -0.5766839762    -0.2428548299
    9      H       4.5799697313     1.9439405116     0.2280567798
   10      C       4.7938577325    -0.2238442699    -0.1376678707
   11      C       5.2500366998     1.0961892915     0.1248832753
   12      S       6.1233531623    -1.3382584443    -0.2725110930
   13      C       6.6310802863     1.1797208702     0.2227090130
   14      H       7.1826881418     2.0914777302     0.4167475328
   15      C       7.2724455780    -0.0626527325     0.0445364510
   16      C       8.7047034918    -0.2760248201     0.0074923735
   17      H       9.2041693251     0.1785450234     2.0817723176
   18      C       9.5502295468    -0.1581564129     1.1109745403
   19      S       9.5744838510    -0.8674979331    -1.3861670224
   20      C      10.8866971526    -0.5128232572     0.8171973807
   21      C      11.0509545925    -0.8971047959    -0.4980622344
   22      H      11.6983483479    -0.4835958749     1.5345839178
   23      H      11.9660002217    -1.1945171066    -0.9950166877
 ----------------------------------------------------------------
 Nuclear Repulsion Energy =  1178.3445935006 hartrees
 There are       64 alpha and       63 beta electrons
 Applying Cartesian multipole field
    Component          Value
    ---------          -----
     (2,0,0)        1.00000E-12
     (0,2,0)        2.00000E-11
     (0,0,2)       -3.00000E-11
 Nucleus-field energy     =     0.0000000255 hartrees
 Requested basis set is 6-31++G(d,p)
 There are 110 shells and 345 basis functions
 A cutoff of  1.0D-12 yielded   4695 shell pairs
 There are     47886 function pairs

 Q-Chem warning in module /project/projectdirs/jcesr/qchem/qc44/cnl_qc441/compile/cori/qc_src/libqints/qchem/aobasis.C, line 68:

 Using reconstructed effective core potential

 Smallest overlap matrix eigenvalue = 7.88E-08
 Linear dependence detected in AO basis
 Number of orthogonalized atomic orbitals = 342
 Maximum deviation from orthogonality = 3.395E-11
 Guess MOs from SCF MO coefficient file
 Reading MOs from coefficient file
 Reading MOs from coefficient file
 An unrestricted hybrid HF-DFT SCF calculation will be
 performed using Pulay DIIS extrapolation
 Exchange:     0.2000 Hartree-Fock + 0.0800 Slater + 0.7200 B88
 Correlation:  0.1900 VWN1RPA + 0.8100 LYP
 Using SG-1 standard quadrature grid
 SCF converges when DIIS error is below 1.0E-08
 Geometry optimization detected.  Setting ReadMinima to 0
 Setting SaveMinima to 0
 Inaccurate integrated density:
   Number of electrons =   127
   Numerical integral  =   126.834922310531
   Relative error      =    -0.1299824327 %
 ---------------------------------------
  Cycle       Energy         DIIS Error
 ---------------------------------------
    1   -1656.2205150571      3.78E-03
    2   -1656.3912975934      7.31E-04
    3   -1656.3698012866      1.34E-03
    4   -1656.4008651100      2.00E-04
    5   -1656.4014464449      7.55E-05
    6   -1656.4015303723      3.05E-05
    7   -1656.4015455917      1.22E-05
    8   -1656.4015483577      3.82E-06
    9   -1656.4015487626      1.75E-06
   10   -1656.4015489170      7.01E-07
   11   -1656.4015490002      4.37E-07
   12   -1656.4015490341      2.39E-07
   13   -1656.4015490549      1.03E-07
   14   -1656.4015490596      5.66E-08
   15   -1656.4015490600      2.79E-08
   16   -1656.4015490599      1.52E-08
   17   -1656.4015490602      6.44E-09 Convergence criterion met
 ---------------------------------------
 <S^2> = 0.7655
 SCF time:  CPU 24.12 s  wall 22.34 s
 SCF   energy in the final basis set = -1656.4015490602
 Total energy in the final basis set = -1656.4015490602
 
 --------------------------------------------------------------
 
                    Orbital Energies (a.u.)
 --------------------------------------------------------------
 
 Alpha MOs
 -- Occupied --
-89.081 -89.076 -89.052 -10.412 -10.412 -10.402 -10.391 -10.373
-10.371 -10.368 -10.365 -10.357 -10.356 -10.341 -10.328  -8.140
 -8.135  -8.111  -6.104  -6.100  -6.100  -6.097  -6.096  -6.093
 -6.075  -6.071  -6.068  -1.069  -1.044  -1.020  -0.945  -0.917
 -0.901  -0.887  -0.875  -0.840  -0.770  -0.747  -0.712  -0.697
 -0.692  -0.683  -0.665  -0.643  -0.608  -0.576  -0.573  -0.571
 -0.560  -0.552  -0.546  -0.535  -0.531  -0.522  -0.518  -0.508
 -0.502  -0.482  -0.447  -0.425  -0.415  -0.390  -0.384  -0.358
 -- Virtual --
 -0.230  -0.171  -0.157  -0.142  -0.130  -0.116  -0.113  -0.107
 -0.098  -0.095  -0.093  -0.089  -0.083  -0.079  -0.074  -0.073
 -0.067  -0.063  -0.058  -0.054  -0.046  -0.041  -0.039  -0.029
 -0.026  -0.021  -0.016  -0.011  -0.005  -0.002   0.002   0.007
  0.009   0.011   0.014   0.020   0.022   0.024   0.028   0.030
  0.031   0.038   0.041   0.043   0.046   0.048   0.050   0.052
  0.055   0.057   0.059   0.061   0.069   0.069   0.077   0.081
  0.087   0.087   0.096   0.097   0.102   0.108   0.112   0.114
  0.118   0.122   0.122   0.131   0.136   0.141   0.147   0.150
  0.153   0.163   0.169   0.172   0.178   0.181   0.183   0.192
  0.199   0.204   0.214   0.219   0.231   0.235   0.239   0.248
  0.253   0.258   0.266   0.284   0.311   0.326   0.331   0.354
  0.373   0.381   0.394   0.406   0.421   0.436   0.449   0.452
  0.463   0.477   0.488   0.497   0.501   0.507   0.511   0.517
  0.527   0.546   0.548   0.553   0.568   0.571   0.577   0.587
  0.600   0.602   0.612   0.623   0.625   0.641   0.655   0.659
  0.669   0.676   0.679   0.686   0.700   0.713   0.732   0.771
  0.784   0.790   0.800   0.809   0.815   0.821   0.828   0.835
  0.839   0.847   0.849   0.851   0.865   0.871   0.883   0.892
  0.893   0.910   0.917   0.930   0.942   0.956   0.958   0.975
  0.992   1.009   1.023   1.043   1.055   1.080   1.082   1.108
  1.122   1.135   1.156   1.172   1.190   1.197   1.200   1.204
  1.222   1.231   1.248   1.270   1.298   1.314   1.336   1.361
  1.382   1.410   1.433   1.477   1.510   1.546   1.565   1.622
  1.663   1.695   1.703   1.719   1.753   1.763   1.775   1.782
  1.786   1.804   1.815   1.819   1.868   1.876   1.901   1.911
  1.922   1.957   1.974   2.009   2.021   2.042   2.051   2.069
  2.085   2.095   2.109   2.125   2.142   2.173   2.217   2.245
  2.269   2.288   2.294   2.304   2.319   2.327   2.341   2.366
  2.372   2.380   2.390   2.410   2.435   2.465   2.467   2.484
  2.507   2.526   2.557   2.568   2.600   2.661   2.706   2.724
  2.739   2.756   2.776   2.783   2.983   3.038   3.056   3.129
  3.152   3.170   3.259   3.287   3.525   3.586   3.610   3.814
  3.830   3.849   4.092   4.145   4.163   4.166   4.177   4.203
  4.246   4.330   4.393   4.502   4.552   4.570
 
 Beta MOs
 -- Occupied --
-89.081 -89.076 -89.052 -10.410 -10.409 -10.402 -10.388 -10.373
-10.370 -10.366 -10.365 -10.356 -10.356 -10.340 -10.328  -8.140
 -8.136  -8.111  -6.105  -6.101  -6.100  -6.097  -6.096  -6.093
 -6.075  -6.071  -6.068  -1.064  -1.040  -1.017  -0.939  -0.915
 -0.900  -0.882  -0.873  -0.833  -0.767  -0.743  -0.709  -0.695
 -0.690  -0.682  -0.663  -0.641  -0.606  -0.572  -0.570  -0.564
 -0.558  -0.550  -0.538  -0.533  -0.529  -0.520  -0.510  -0.504
 -0.502  -0.482  -0.426  -0.422  -0.412  -0.388  -0.369
 -- Virtual --
 -0.305  -0.212  -0.164  -0.146  -0.140  -0.127  -0.115  -0.107
 -0.100  -0.097  -0.094  -0.090  -0.083  -0.081  -0.078  -0.073
 -0.073  -0.066  -0.062  -0.058  -0.053  -0.045  -0.040  -0.038
 -0.028  -0.024  -0.020  -0.015  -0.011  -0.005  -0.001   0.003
  0.008   0.009   0.012   0.015   0.021   0.023   0.025   0.029
  0.031   0.032   0.039   0.041   0.044   0.047   0.048   0.051
  0.053   0.056   0.058   0.060   0.062   0.069   0.070   0.078
  0.082   0.088   0.088   0.096   0.098   0.103   0.109   0.113
  0.115   0.120   0.122   0.123   0.132   0.137   0.142   0.148
  0.151   0.154   0.164   0.169   0.172   0.179   0.182   0.185
  0.193   0.201   0.205   0.215   0.221   0.232   0.236   0.239
  0.249   0.253   0.259   0.268   0.286   0.313   0.327   0.332
  0.355   0.373   0.382   0.395   0.407   0.422   0.437   0.450
  0.454   0.465   0.478   0.489   0.501   0.504   0.511   0.517
  0.522   0.529   0.548   0.550   0.555   0.570   0.575   0.579
  0.589   0.602   0.608   0.613   0.625   0.630   0.643   0.658
  0.662   0.672   0.678   0.683   0.687   0.703   0.715   0.734
  0.772   0.787   0.792   0.802   0.811   0.818   0.823   0.830
  0.836   0.841   0.848   0.850   0.852   0.867   0.873   0.884
  0.893   0.894   0.911   0.918   0.932   0.943   0.957   0.959
  0.976   0.993   1.010   1.027   1.047   1.057   1.083   1.084
  1.111   1.129   1.139   1.158   1.174   1.194   1.200   1.202
  1.211   1.225   1.233   1.251   1.273   1.303   1.318   1.340
  1.366   1.386   1.413   1.437   1.482   1.518   1.556   1.569
  1.628   1.667   1.698   1.706   1.723   1.756   1.765   1.777
  1.785   1.789   1.809   1.818   1.822   1.871   1.880   1.904
  1.916   1.925   1.961   1.979   2.016   2.028   2.046   2.058
  2.074   2.090   2.102   2.114   2.129   2.146   2.178   2.220
  2.247   2.274   2.293   2.296   2.309   2.322   2.329   2.342
  2.368   2.378   2.382   2.393   2.413   2.438   2.467   2.469
  2.486   2.509   2.529   2.561   2.569   2.602   2.664   2.710
  2.727   2.742   2.757   2.777   2.785   2.983   3.039   3.057
  3.129   3.153   3.171   3.260   3.287   3.526   3.587   3.611
  3.814   3.830   3.849   4.097   4.150   4.166   4.170   4.180
  4.204   4.251   4.334   4.398   4.505   4.554   4.572
 --------------------------------------------------------------
 
          Ground-State Mulliken Net Atomic Charges

     Atom                 Charge (a.u.)    Spin (a.u.)
  --------------------------------------------------------
      1 H                     0.245037      -0.013742
      2 H                     0.167785       0.001474
      3 C                     0.050398       0.269916
      4 C                    -0.270380      -0.042635
      5 S                    -0.042130      -0.036944
      6 C                     0.466842       0.150428
      7 H                     0.146163      -0.009720
      8 C                    -0.191183       0.066531
      9 H                     0.145703      -0.007179
     10 C                    -0.038200       0.151933
     11 C                    -0.096233       0.107116
     12 S                    -0.036477      -0.053860
     13 C                     0.143933       0.003285
     14 H                     0.180446      -0.000944
     15 C                    -0.322925       0.254868
     16 C                    -0.162753       0.037622
     17 H                     0.170782      -0.004957
     18 C                     0.266199       0.046509
     19 S                     0.105976      -0.010009
     20 C                    -0.366692      -0.012285
     21 C                     0.051793       0.106114
     22 H                     0.152783       0.000968
     23 H                     0.233134      -0.004488
  --------------------------------------------------------
  Sum of atomic charges =     1.000000
  Sum of spin   charges =     1.000000

 -----------------------------------------------------------------
                    Cartesian Multipole Moments
 -----------------------------------------------------------------
    Charge (ESU x 10^10)
                 4.8032
    Dipole Moment (Debye)
         X      26.4229      Y      -2.0997      Z      -0.1791
       Tot      26.5068
    Quadrupole Moments (Debye-Ang)
        XX     123.5431     XY      -8.4060     YY     -92.4488
        XZ       3.3574     YZ       5.5117     ZZ    -103.4159
    Octopole Moments (Debye-Ang^2)
       XXX     347.6057    XXY     -56.5971    XYY    -593.3546
       YYY     132.8583    XXZ      51.0952    XYZ      31.9177
       YYZ      10.9186    XZZ    -598.7641    YZZ      46.7106
       ZZZ      62.4472
    Hexadecapole Moments (Debye-Ang^3)
      XXXX   -6019.6048   XXXY    -559.1600   XXYY   -4940.4783
      XYYY     901.9086   YYYY    -710.6559   XXXZ     556.5711
      XXYZ     235.6571   XYYZ      73.1032   YYYZ     -80.4210
      XXZZ   -4617.1385   XYZZ     270.0114   YYZZ    -202.0878
      XZZZ     360.7878   YZZZ    -107.7328   ZZZZ    -388.7228
 -----------------------------------------------------------------
 Calculating analytic gradient of the SCF energy
 Gradient of SCF Energy
            1           2           3           4           5           6
    1  -0.0001798   0.0001383   0.0021894  -0.0006702   0.0035528   0.0023452
    2   0.0006766  -0.0003443  -0.0013505  -0.0012071   0.0000398  -0.0025570
    3   0.0000312  -0.0000172  -0.0003122  -0.0000456   0.0003157   0.0007345
            7           8           9          10          11          12
    1   0.0003633  -0.0078606  -0.0007453   0.0113330  -0.0044667  -0.0030608
    2  -0.0002816   0.0161378   0.0010723  -0.0184986   0.0034325   0.0027579
    3  -0.0006750   0.0013354   0.0006599  -0.0015878  -0.0001750   0.0028059
           13          14          15          16          17          18
    1   0.0016166  -0.0006829  -0.0060168   0.0030547   0.0000833  -0.0011654
    2   0.0034863   0.0000900  -0.0062183   0.0050240   0.0008930  -0.0078166
    3  -0.0082750   0.0009239   0.0097886  -0.0126352   0.0000097   0.0052111
           19          20          21          22          23
    1   0.0006737  -0.0004289  -0.0004936   0.0003143   0.0001064
    2   0.0033887   0.0003828   0.0017742   0.0002182  -0.0010999
    3   0.0021682   0.0014485  -0.0018579   0.0000793   0.0000689
 Max gradient component =       1.850E-02
 RMS gradient           =       4.597E-03
 Gradient time:  CPU 4.18 s  wall 4.19 s
 Geometry Optimization Parameters
   NAtoms,    NIC,     NZ,  NCons,   NDum,   NFix, NCnnct, MaxDiis
       23     166       0       1       0       0       0       0

 Cartesian Hessian Update
 Hessian Updated using BFGS Update


** CONSTRAINED OPTIMIZATION IN DELOCALIZED INTERNAL COORDINATES **
   Searching for a Minimum

   Optimization Cycle:   3

                       Coordinates (Angstroms)
     ATOM                X               Y               Z
      1  H        -0.0927620239   -0.4419785588   -0.2078711138
      2  H         0.9522732270   -2.8196860397   -0.7172776713
      3  C         0.9616209012   -0.6867818240   -0.2571631545
      4  C         1.5328627340   -1.9258000887   -0.5235983640
      5  S         2.1200026392    0.5580673105    0.0096033231
      6  C         2.9303508685   -1.8700963063   -0.5162176452
      7  H         3.5740545378   -2.7200242163   -0.7168597481
      8  C         3.4294592549   -0.5766839762   -0.2428548299
      9  H         4.5799697313    1.9439405116    0.2280567798
     10  C         4.7938577325   -0.2238442699   -0.1376678707
     11  C         5.2500366998    1.0961892915    0.1248832753
     12  S         6.1233531623   -1.3382584443   -0.2725110930
     13  C         6.6310802863    1.1797208702    0.2227090130
     14  H         7.1826881418    2.0914777302    0.4167475328
     15  C         7.2724455780   -0.0626527325    0.0445364510
     16  C         8.7047034918   -0.2760248201    0.0074923735
     17  H         9.2041693251    0.1785450234    2.0817723176
     18  C         9.5502295468   -0.1581564129    1.1109745403
     19  S         9.5744838510   -0.8674979331   -1.3861670224
     20  C        10.8866971526   -0.5128232572    0.8171973807
     21  C        11.0509545925   -0.8971047959   -0.4980622344
     22  H        11.6983483479   -0.4835958749    1.5345839178
     23  H        11.9660002217   -1.1945171066   -0.9950166877
   Point Group: c1    Number of degrees of freedom:    63


   Energy is  -1656.401549060

              Constraints and their Current Values
                                        Value     Constraint
   Dihedral:       13  15  16  18       70.000       70.000
 Hessian Updated using BFGS Update

 62 Hessian modes will be used to form the next step
  Hessian Eigenvalues:
     0.042580    0.045000    0.045000    0.045000    0.045000    0.045000
     0.045001    0.045001    0.045002    0.045002    0.045003    0.045005
     0.045011    0.045012    0.045013    0.045024    0.045048    0.045057
     0.045090    0.153210    0.159945    0.159956    0.159983    0.159993
     0.159998    0.160027    0.160436    0.169723    0.221311    0.222991
     0.230366    0.238170    0.240372    0.249270    0.249670    0.262965
     0.279841    0.323218    0.326539    0.328062    0.338054    0.340078
     0.341598    0.365512    0.365517    0.365837    0.366889    0.367250
     0.367972    0.370099    0.371014    0.401455    0.424041    0.435420
     0.435472    0.442692    0.463058    0.464576    0.482584    0.495029
     0.497749    0.580241

 Minimum Search - Taking Simple RFO Step
 Searching for Lamda that Minimizes Along All modes
 Value Taken    Lamda =  -0.00381743
 Step Taken.  Stepsize is  0.203356

                             Maximum     Tolerance    Cnvgd?
         Gradient           0.009309      0.000300      NO
         Displacement       0.068622      0.001200      NO
         Energy change     -0.011968      0.000001      NO


 New Cartesian Coordinates Obtained by Inverse Iteration

 Displacement from previous Coordinates is:  0.940579
 ----------------------------------------------------------------
             Standard Nuclear Orientation (Angstroms)
    I     Atom           X                Y                Z
 ----------------------------------------------------------------
    1      H      -0.1083885049    -0.5329226768    -0.2979409909
    2      H       1.0196384044    -2.8718717823    -0.7789491298
    3      C       0.9540888058    -0.7447241140    -0.3174491894
    4      C       1.5723066867    -1.9643186837    -0.5685141377
    5      S       2.0770095279     0.5224199851    -0.0201644980
    6      C       2.9681296002    -1.8779769972    -0.5215996446
    7      H       3.6329175872    -2.7155926731    -0.7014750869
    8      C       3.4367265965    -0.5776289507    -0.2318993298
    9      H       4.5665769777     2.0187338548     0.2575393504
   10      C       4.7712600588    -0.1431890494    -0.0895022172
   11      C       5.2371253833     1.1701488332     0.1761027149
   12      S       6.1201410912    -1.2582932201    -0.2055258795
   13      C       6.6178040863     1.2522563981     0.2871781486
   14      H       7.1701581790     2.1675118423     0.4644792435
   15      C       7.2725782847     0.0142180078     0.1262903883
   16      C       8.6962871162    -0.2263204210     0.0631219295
   17      H       9.3227002555     0.2706900299     2.0883127216
   18      C       9.6023271691    -0.1114362956     1.1130206138
   19      S       9.4619143913    -0.9381789400    -1.3447875059
   20      C      10.9022356800    -0.5521669775     0.7696975858
   21      C      10.9803678454    -1.0056452625    -0.5292921845
   22      H      11.7484005886    -0.5382708804     1.4462609039
   23      H      11.8545741889    -1.3650279469    -1.0576143359
 ----------------------------------------------------------------
 Nuclear Repulsion Energy =  1179.0566622853 hartrees
 There are       64 alpha and       63 beta electrons
 Applying Cartesian multipole field
    Component          Value
    ---------          -----
     (2,0,0)        1.00000E-12
     (0,2,0)        2.00000E-11
     (0,0,2)       -3.00000E-11
 Nucleus-field energy     =     0.0000000259 hartrees
 Requested basis set is 6-31++G(d,p)
 There are 110 shells and 345 basis functions
 A cutoff of  1.0D-12 yielded   4686 shell pairs
 There are     47822 function pairs

 Q-Chem warning in module /project/projectdirs/jcesr/qchem/qc44/cnl_qc441/compile/cori/qc_src/libqints/qchem/aobasis.C, line 68:

 Using reconstructed effective core potential

 Smallest overlap matrix eigenvalue = 9.88E-08
 Linear dependence detected in AO basis
 Number of orthogonalized atomic orbitals = 342
 Maximum deviation from orthogonality = 3.312E-11
 Guess MOs from SCF MO coefficient file
 Reading MOs from coefficient file
 Reading MOs from coefficient file
 An unrestricted hybrid HF-DFT SCF calculation will be
 performed using Pulay DIIS extrapolation
 Exchange:     0.2000 Hartree-Fock + 0.0800 Slater + 0.7200 B88
 Correlation:  0.1900 VWN1RPA + 0.8100 LYP
 Using SG-1 standard quadrature grid
 SCF converges when DIIS error is below 1.0E-08
 Geometry optimization detected.  Setting ReadMinima to 0
 Setting SaveMinima to 0
 ---------------------------------------
  Cycle       Energy         DIIS Error
 ---------------------------------------
    1   -1656.3290581787      2.23E-03
    2   -1656.3988847112      5.15E-04
    3   -1656.3849612190      1.05E-03
    4   -1656.4032958502      1.61E-04
    5   -1656.4037137867      5.06E-05
    6   -1656.4037576784      1.73E-05
    7   -1656.4037625741      7.46E-06
    8   -1656.4037636172      2.78E-06
    9   -1656.4037638365      1.33E-06
   10   -1656.4037639182      5.00E-07
   11   -1656.4037639645      4.04E-07
   12   -1656.4037639858      1.72E-07
   13   -1656.4037639935      9.08E-08
   14   -1656.4037639965      2.59E-08
   15   -1656.4037639958      1.26E-08
   16   -1656.4037639953      5.89E-09 Convergence criterion met
 ---------------------------------------
 <S^2> = 0.7649
 SCF time:  CPU 22.46 s  wall 21.08 s
 SCF   energy in the final basis set = -1656.4037639953
 Total energy in the final basis set = -1656.4037639953
 
 --------------------------------------------------------------
 
                    Orbital Energies (a.u.)
 --------------------------------------------------------------
 
 Alpha MOs
 -- Occupied --
-89.078 -89.074 -89.053 -10.413 -10.413 -10.403 -10.391 -10.376
-10.372 -10.368 -10.366 -10.360 -10.355 -10.343 -10.330  -8.137
 -8.133  -8.112  -6.101  -6.097  -6.097  -6.094  -6.093  -6.090
 -6.076  -6.072  -6.069  -1.067  -1.043  -1.020  -0.945  -0.915
 -0.900  -0.886  -0.876  -0.841  -0.771  -0.748  -0.713  -0.699
 -0.691  -0.683  -0.665  -0.643  -0.609  -0.575  -0.572  -0.572
 -0.560  -0.555  -0.546  -0.537  -0.532  -0.520  -0.517  -0.508
 -0.498  -0.483  -0.448  -0.424  -0.414  -0.392  -0.387  -0.358
 -- Virtual --
 -0.230  -0.173  -0.157  -0.140  -0.130  -0.115  -0.113  -0.108
 -0.098  -0.094  -0.092  -0.086  -0.083  -0.079  -0.075  -0.073
 -0.066  -0.063  -0.058  -0.054  -0.046  -0.042  -0.039  -0.029
 -0.025  -0.021  -0.017  -0.011  -0.005  -0.002   0.002   0.006
  0.008   0.012   0.014   0.020   0.023   0.025   0.028   0.031
  0.032   0.038   0.040   0.043   0.045   0.047   0.049   0.052
  0.056   0.057   0.059   0.062   0.070   0.070   0.076   0.081
  0.086   0.087   0.095   0.096   0.102   0.106   0.110   0.115
  0.119   0.122   0.124   0.131   0.135   0.142   0.145   0.150
  0.155   0.164   0.167   0.171   0.178   0.181   0.185   0.190
  0.201   0.202   0.212   0.220   0.232   0.234   0.239   0.250
  0.253   0.259   0.267   0.286   0.307   0.326   0.333   0.357
  0.375   0.378   0.392   0.403   0.423   0.436   0.445   0.448
  0.459   0.474   0.485   0.498   0.501   0.509   0.512   0.516
  0.527   0.547   0.548   0.549   0.571   0.573   0.576   0.586
  0.598   0.602   0.611   0.625   0.626   0.642   0.653   0.657
  0.668   0.676   0.681   0.686   0.700   0.711   0.734   0.771
  0.784   0.789   0.800   0.808   0.815   0.822   0.827   0.830
  0.839   0.844   0.846   0.851   0.866   0.874   0.881   0.891
  0.893   0.909   0.921   0.928   0.942   0.958   0.959   0.975
  0.988   1.008   1.020   1.044   1.054   1.074   1.083   1.105
  1.117   1.129   1.155   1.173   1.190   1.194   1.200   1.204
  1.220   1.230   1.243   1.276   1.308   1.323   1.341   1.353
  1.390   1.413   1.441   1.479   1.517   1.550   1.560   1.609
  1.661   1.694   1.701   1.714   1.753   1.762   1.769   1.777
  1.783   1.800   1.812   1.816   1.865   1.874   1.904   1.905
  1.919   1.960   1.975   2.004   2.015   2.035   2.050   2.061
  2.081   2.092   2.105   2.126   2.143   2.178   2.218   2.244
  2.269   2.284   2.288   2.307   2.319   2.325   2.339   2.366
  2.376   2.382   2.390   2.404   2.439   2.462   2.467   2.487
  2.506   2.528   2.559   2.567   2.597   2.653   2.705   2.737
  2.739   2.755   2.789   2.793   2.984   3.038   3.059   3.131
  3.151   3.170   3.260   3.285   3.523   3.586   3.609   3.812
  3.829   3.851   4.094   4.145   4.161   4.166   4.179   4.199
  4.249   4.331   4.392   4.503   4.552   4.571
 
 Beta MOs
 -- Occupied --
-89.078 -89.074 -89.053 -10.410 -10.409 -10.402 -10.387 -10.376
-10.370 -10.366 -10.366 -10.358 -10.356 -10.342 -10.330  -8.137
 -8.133  -8.112  -6.101  -6.098  -6.098  -6.094  -6.094  -6.091
 -6.076  -6.072  -6.069  -1.062  -1.039  -1.018  -0.939  -0.913
 -0.898  -0.882  -0.875  -0.835  -0.768  -0.744  -0.710  -0.697
 -0.689  -0.681  -0.663  -0.641  -0.608  -0.572  -0.570  -0.562
 -0.558  -0.553  -0.539  -0.534  -0.530  -0.516  -0.510  -0.504
 -0.497  -0.482  -0.427  -0.421  -0.410  -0.389  -0.372
 -- Virtual --
 -0.305  -0.213  -0.166  -0.147  -0.138  -0.127  -0.114  -0.108
 -0.100  -0.097  -0.093  -0.090  -0.082  -0.078  -0.078  -0.073
 -0.073  -0.065  -0.062  -0.058  -0.053  -0.045  -0.041  -0.038
 -0.028  -0.024  -0.020  -0.016  -0.011  -0.005  -0.001   0.003
  0.007   0.008   0.013   0.014   0.021   0.024   0.026   0.029
  0.032   0.033   0.038   0.041   0.044   0.046   0.048   0.050
  0.053   0.056   0.058   0.061   0.062   0.070   0.071   0.077
  0.082   0.087   0.088   0.096   0.097   0.103   0.107   0.112
  0.116   0.120   0.123   0.124   0.132   0.136   0.143   0.146
  0.151   0.155   0.165   0.168   0.172   0.179   0.182   0.186
  0.191   0.202   0.204   0.214   0.222   0.233   0.235   0.239
  0.251   0.254   0.260   0.269   0.287   0.308   0.328   0.335
  0.358   0.376   0.380   0.393   0.405   0.424   0.437   0.446
  0.449   0.461   0.475   0.486   0.500   0.505   0.514   0.517
  0.521   0.528   0.549   0.550   0.553   0.574   0.575   0.578
  0.588   0.599   0.609   0.611   0.626   0.632   0.643   0.656
  0.660   0.670   0.679   0.685   0.687   0.703   0.713   0.735
  0.772   0.787   0.791   0.802   0.809   0.818   0.824   0.830
  0.831   0.841   0.845   0.847   0.851   0.867   0.875   0.882
  0.892   0.894   0.911   0.923   0.929   0.943   0.959   0.960
  0.976   0.989   1.009   1.023   1.048   1.055   1.077   1.086
  1.108   1.124   1.132   1.157   1.175   1.194   1.197   1.204
  1.211   1.223   1.233   1.246   1.279   1.312   1.328   1.345
  1.358   1.392   1.416   1.446   1.483   1.526   1.560   1.565
  1.615   1.665   1.696   1.703   1.720   1.755   1.763   1.774
  1.779   1.786   1.804   1.814   1.819   1.869   1.878   1.907
  1.910   1.923   1.963   1.980   2.010   2.020   2.040   2.056
  2.066   2.087   2.097   2.111   2.130   2.148   2.182   2.221
  2.245   2.272   2.287   2.294   2.312   2.322   2.327   2.341
  2.368   2.380   2.384   2.392   2.406   2.442   2.464   2.470
  2.489   2.508   2.532   2.563   2.568   2.599   2.656   2.708
  2.739   2.744   2.757   2.791   2.795   2.985   3.039   3.061
  3.132   3.151   3.170   3.262   3.286   3.524   3.587   3.609
  3.812   3.830   3.851   4.098   4.149   4.164   4.169   4.182
  4.201   4.254   4.334   4.397   4.506   4.554   4.574
 --------------------------------------------------------------
 
          Ground-State Mulliken Net Atomic Charges

     Atom                 Charge (a.u.)    Spin (a.u.)
  --------------------------------------------------------
      1 H                     0.245329      -0.013334
      2 H                     0.167591       0.001238
      3 C                     0.060791       0.262163
      4 C                    -0.260412      -0.038530
      5 S                    -0.048050      -0.032413
      6 C                     0.503159       0.143844
      7 H                     0.147356      -0.009319
      8 C                    -0.271204       0.064215
      9 H                     0.153419      -0.006498
     10 C                    -0.056240       0.156043
     11 C                    -0.030925       0.096248
     12 S                    -0.146024      -0.052796
     13 C                     0.195352       0.017235
     14 H                     0.180812      -0.001876
     15 C                    -0.311342       0.243244
     16 C                    -0.137522       0.038341
     17 H                     0.174045      -0.005477
     18 C                     0.259331       0.049759
     19 S                     0.081925      -0.010106
     20 C                    -0.348063      -0.013239
     21 C                     0.052665       0.115397
     22 H                     0.153551       0.000958
     23 H                     0.234455      -0.005098
  --------------------------------------------------------
  Sum of atomic charges =     1.000000
  Sum of spin   charges =     1.000000

 -----------------------------------------------------------------
                    Cartesian Multipole Moments
 -----------------------------------------------------------------
    Charge (ESU x 10^10)
                 4.8032
    Dipole Moment (Debye)
         X      26.7079      Y      -2.1045      Z      -0.1796
       Tot      26.7913
    Quadrupole Moments (Debye-Ang)
        XX     127.2066     XY      -8.7764     YY     -91.8444
        XZ       4.0747     YZ       5.9750     ZZ    -103.4966
    Octopole Moments (Debye-Ang^2)
       XXX     389.6954    XXY     -67.2237    XYY    -584.9992
       YYY     132.1617    XXZ      55.9582    XYZ      35.8712
       YYZ       8.8948    XZZ    -597.6755    YZZ      46.1755
       ZZZ      57.6296
    Hexadecapole Moments (Debye-Ang^3)
      XXXX   -5514.0796   XXXY    -720.4867   XXYY   -4840.9726
      XYYY     897.0502   YYYY    -728.0639   XXXZ     574.3888
      XXYZ     274.2431   XYYZ      52.0068   YYYZ     -83.8924
      XXZZ   -4588.7764   XYZZ     267.3676   YYZZ    -202.5457
      XZZZ     308.2774   YZZZ    -112.7916   ZZZZ    -382.3891
 -----------------------------------------------------------------
 Calculating analytic gradient of the SCF energy
 Gradient of SCF Energy
            1           2           3           4           5           6
    1  -0.0004392  -0.0003038  -0.0015747  -0.0001459   0.0020790  -0.0003093
    2   0.0003439   0.0001454  -0.0010351   0.0001500  -0.0011933  -0.0019498
    3  -0.0000139   0.0000738  -0.0000617   0.0000529  -0.0002706   0.0003749
            7           8           9          10          11          12
    1   0.0003240   0.0024634  -0.0008813  -0.0011423   0.0011905  -0.0023563
    2   0.0001550   0.0036596  -0.0001569  -0.0038286   0.0023319   0.0013033
    3  -0.0003663  -0.0002182   0.0000605   0.0003609   0.0004305   0.0015592
           13          14          15          16          17          18
    1  -0.0011525   0.0004054  -0.0000135   0.0032971  -0.0001115  -0.0025520
    2   0.0015796  -0.0003112  -0.0031207   0.0066709   0.0003845  -0.0076756
    3  -0.0085098   0.0002155   0.0108722  -0.0073896  -0.0000354   0.0028088
           19          20          21          22          23
    1  -0.0003482   0.0004724   0.0008501   0.0002229   0.0000255
    2   0.0022826  -0.0004866   0.0015030  -0.0000490  -0.0007030
    3   0.0008131  -0.0010494   0.0003604  -0.0000251  -0.0000427
 Max gradient component =       1.087E-02
 RMS gradient           =       2.600E-03
 Gradient time:  CPU 4.30 s  wall 4.19 s
 Geometry Optimization Parameters
   NAtoms,    NIC,     NZ,  NCons,   NDum,   NFix, NCnnct, MaxDiis
       23     166       0       1       0       0       0       0

 Cartesian Hessian Update
 Hessian Updated using BFGS Update


** CONSTRAINED OPTIMIZATION IN DELOCALIZED INTERNAL COORDINATES **
   Searching for a Minimum

   Optimization Cycle:   4

                       Coordinates (Angstroms)
     ATOM                X               Y               Z
      1  H        -0.1083885049   -0.5329226768   -0.2979409909
      2  H         1.0196384044   -2.8718717823   -0.7789491298
      3  C         0.9540888058   -0.7447241140   -0.3174491894
      4  C         1.5723066867   -1.9643186837   -0.5685141377
      5  S         2.0770095279    0.5224199851   -0.0201644980
      6  C         2.9681296002   -1.8779769972   -0.5215996446
      7  H         3.6329175872   -2.7155926731   -0.7014750869
      8  C         3.4367265965   -0.5776289507   -0.2318993298
      9  H         4.5665769777    2.0187338548    0.2575393504
     10  C         4.7712600588   -0.1431890494   -0.0895022172
     11  C         5.2371253833    1.1701488332    0.1761027149
     12  S         6.1201410912   -1.2582932201   -0.2055258795
     13  C         6.6178040863    1.2522563981    0.2871781486
     14  H         7.1701581790    2.1675118423    0.4644792435
     15  C         7.2725782847    0.0142180078    0.1262903883
     16  C         8.6962871162   -0.2263204210    0.0631219295
     17  H         9.3227002555    0.2706900299    2.0883127216
     18  C         9.6023271691   -0.1114362956    1.1130206138
     19  S         9.4619143913   -0.9381789400   -1.3447875059
     20  C        10.9022356800   -0.5521669775    0.7696975858
     21  C        10.9803678454   -1.0056452625   -0.5292921845
     22  H        11.7484005886   -0.5382708804    1.4462609039
     23  H        11.8545741889   -1.3650279469   -1.0576143359
   Point Group: c1    Number of degrees of freedom:    63


   Energy is  -1656.403763995

              Constraints and their Current Values
                                        Value     Constraint
   Dihedral:       13  15  16  18       70.000       70.000
 Hessian Updated using BFGS Update

 62 Hessian modes will be used to form the next step
  Hessian Eigenvalues:
     0.031496    0.045000    0.045000    0.045000    0.045000    0.045001
     0.045001    0.045002    0.045002    0.045003    0.045005    0.045007
     0.045011    0.045012    0.045023    0.045029    0.045053    0.045076
     0.045174    0.158647    0.159945    0.159973    0.159980    0.159997
     0.160009    0.160372    0.162493    0.179865    0.221357    0.223178
     0.230205    0.238169    0.241672    0.249670    0.251437    0.265893
     0.286498    0.322692    0.326812    0.327915    0.338108    0.340258
     0.341209    0.365512    0.365519    0.365836    0.366891    0.367246
     0.367946    0.370116    0.370807    0.400983    0.421091    0.435431
     0.435903    0.443518    0.463461    0.464073    0.481245    0.495553
     0.500382    0.583441

 Minimum Search - Taking Simple RFO Step
 Searching for Lamda that Minimizes Along All modes
 Value Taken    Lamda =  -0.00068743
 Step Taken.  Stepsize is  0.133268

                             Maximum     Tolerance    Cnvgd?
         Gradient           0.002612      0.000300      NO
         Displacement       0.059945      0.001200      NO
         Energy change     -0.002215      0.000001      NO


 New Cartesian Coordinates Obtained by Inverse Iteration

 Displacement from previous Coordinates is:  0.428605
 ----------------------------------------------------------------
             Standard Nuclear Orientation (Angstroms)
    I     Atom           X                Y                Z
 ----------------------------------------------------------------
    1      H      -0.1032225694    -0.5519089659    -0.3396307356
    2      H       1.0427521916    -2.8801889214    -0.8200891371
    3      C       0.9604163273    -0.7549025596    -0.3457189015
[...]
      2 H                     0.165736       0.001236
      3 C                     0.065382       0.247786
      4 C                    -0.260141      -0.036452
      5 S                    -0.049310      -0.026770
      6 C                     0.500305       0.137972
      7 H                     0.146394      -0.009173
      8 C                    -0.316212       0.050633
      9 H                     0.149059      -0.005773
     10 C                     0.003557       0.176518
     11 C                    -0.082988       0.072415
     12 S                    -0.185223      -0.051967
     13 C                     0.047843       0.035178
     14 H                     0.181482      -0.003215
     15 C                    -0.490212       0.210050
     16 C                     0.466314       0.042148
     17 H                     0.172990      -0.007267
     18 C                    -0.038504       0.076384
     19 S                     0.100621      -0.015987
     20 C                    -0.204127      -0.020248
     21 C                    -0.008913       0.144841
     22 H                     0.155780       0.001520
     23 H                     0.235984      -0.007121
  --------------------------------------------------------
  Sum of atomic charges =     1.000000
  Sum of spin   charges =     1.000000

 -----------------------------------------------------------------
                    Cartesian Multipole Moments
 -----------------------------------------------------------------
    Charge (ESU x 10^10)
                 4.8032
    Dipole Moment (Debye)
         X      27.4716      Y      -2.1535      Z      -0.1494
       Tot      27.5563
    Quadrupole Moments (Debye-Ang)
        XX     136.6427     XY      -9.9695     YY     -91.2551
        XZ       4.8416     YZ       7.1175     ZZ    -103.7274
    Octopole Moments (Debye-Ang^2)
       XXX     495.3787    XXY     -80.2304    XYY    -574.8673
       YYY     135.4076    XXZ      62.4256    XYZ      44.4822
       YYZ       6.0370    XZZ    -600.0372    YZZ      47.7720
       ZZZ      51.5104
    Hexadecapole Moments (Debye-Ang^3)
      XXXX   -4315.4883   XXXY    -848.6516   XXYY   -4718.1526
      XYYY     914.0908   YYYY    -755.6314   XXXZ     628.3088
      XXYZ     349.2360   XYYZ      28.2171   YYYZ     -94.5418
      XXZZ   -4600.4830   XYZZ     284.2181   YYZZ    -200.4745
      XZZZ     255.4063   YZZZ    -127.8178   ZZZZ    -373.6656
 -----------------------------------------------------------------
 Calculating analytic gradient of the SCF energy
 Gradient of SCF Energy
            1           2           3           4           5           6
    1  -0.0000003  -0.0000016  -0.0000146   0.0000032   0.0000294  -0.0000027
    2   0.0000045   0.0000033  -0.0000202   0.0000131  -0.0000097  -0.0000129
    3   0.0000050  -0.0000059  -0.0000032  -0.0000008   0.0000036  -0.0000334
            7           8           9          10          11          12
    1   0.0000021  -0.0000060  -0.0000138   0.0000187   0.0000156  -0.0000171
    2   0.0000004   0.0000333  -0.0000088  -0.0000262   0.0000165   0.0000312
    3   0.0000089   0.0000487   0.0000157  -0.0000283  -0.0000030   0.0000045
           13          14          15          16          17          18
    1  -0.0008694   0.0000058   0.0007339   0.0011654  -0.0000109  -0.0010554
    2   0.0009218  -0.0000067  -0.0070158   0.0156906  -0.0000304  -0.0095756
    3  -0.0098976   0.0000088   0.0172877  -0.0100559   0.0000100   0.0026593
           19          20          21          22          23
    1   0.0000236   0.0000033  -0.0000190   0.0000043   0.0000055
    2   0.0000008  -0.0000109  -0.0000125   0.0000030   0.0000113
    3   0.0000047   0.0000055  -0.0000125  -0.0000117  -0.0000103
 Max gradient component =       1.729E-02
 RMS gradient           =       3.605E-03
 Gradient time:  CPU 4.19 s  wall 4.20 s
 Geometry Optimization Parameters
   NAtoms,    NIC,     NZ,  NCons,   NDum,   NFix, NCnnct, MaxDiis
       23     166       0       1       0       0       0       0

 Cartesian Hessian Update
 Hessian Updated using BFGS Update


** CONSTRAINED OPTIMIZATION IN DELOCALIZED INTERNAL COORDINATES **
   Searching for a Minimum

   Optimization Cycle:  10

                       Coordinates (Angstroms)
     ATOM                X               Y               Z
      1  H        -0.0996528717   -0.5578240603   -0.3505171741
      2  H         1.0522365233   -2.8700836763   -0.8879850457
      3  C         0.9643673808   -0.7589657618   -0.3573054339
      4  C         1.5927341191   -1.9660627646   -0.6355569445
      5  S         2.0690759967    0.5041082555    0.0065362608
      6  C         2.9871183175   -1.8739271436   -0.5553047933
      7  H         3.6575342381   -2.7055209584   -0.7413832279
      8  C         3.4405509749   -0.5862335903   -0.2138872444
      9  H         4.5516602177    2.0103773946    0.3355074027
     10  C         4.7728970716   -0.1422745478   -0.0499357437
     11  C         5.2236853882    1.1641497709    0.2491258662
     12  S         6.1383873899   -1.2458704578   -0.1763807256
     13  C         6.6011790457    1.2591896560    0.3746870081
     14  H         7.1362999800    2.1830467094    0.5606979455
     15  C         7.2734263436    0.0304185880    0.2059349538
     16  C         8.6915812206   -0.1658902336    0.0674692782
     17  H         9.4349512989    0.4836744699    2.0112955936
     18  C         9.6550093104    0.0044505540    1.0639372131
     19  S         9.3637306860   -1.0836797023   -1.2774044338
     20  C        10.9153427576   -0.5250904217    0.7183692242
     21  C        10.9114050610   -1.1284149009   -0.5234228013
     22  H        11.7921074316   -0.4726581067    1.3522602789
     23  H        11.7512521187   -1.5645049923   -1.0494479867
   Point Group: c1    Number of degrees of freedom:    63


   Energy is  -1656.404737688

              Constraints and their Current Values
                                        Value     Constraint
   Dihedral:       13  15  16  18       70.000       70.000
 Hessian Updated using BFGS Update

 62 Hessian modes will be used to form the next step
  Hessian Eigenvalues:
     0.012121    0.026370    0.043934    0.045000    0.045000    0.045001
     0.045001    0.045002    0.045002    0.045004    0.045006    0.045007
     0.045011    0.045022    0.045029    0.045045    0.045073    0.045082
     0.045180    0.150362    0.159559    0.159950    0.159972    0.160055
     0.160202    0.160492    0.161710    0.168628    0.219871    0.222214
     0.226341    0.237388    0.240761    0.246309    0.249276    0.271107
     0.285282    0.300430    0.323851    0.326811    0.335654    0.339136
     0.341216    0.365515    0.365522    0.365877    0.366920    0.367281
     0.368036    0.370147    0.371157    0.400228    0.425740    0.434541
     0.438075    0.453531    0.462715    0.462912    0.478213    0.491693
     0.498869    0.559851

 Minimum Search - Taking Simple RFO Step
 Searching for Lamda that Minimizes Along All modes
 Value Taken    Lamda =   0.00000000
 Step Taken.  Stepsize is  0.001220

                             Maximum     Tolerance    Cnvgd?
         Gradient           0.000025      0.000300     YES
         Displacement       0.000576      0.001200     YES
         Energy change     -0.000000      0.000001     YES

 Final energy is   -1656.40473768760     


 ******************************
 **  OPTIMIZATION CONVERGED  **
 ******************************

                       Coordinates (Angstroms)
     ATOM                X               Y               Z
      1  H        -0.0996528717   -0.5578240603   -0.3505171741
      2  H         1.0522365233   -2.8700836763   -0.8879850457
      3  C         0.9643673808   -0.7589657618   -0.3573054339
      4  C         1.5927341191   -1.9660627646   -0.6355569445
      5  S         2.0690759967    0.5041082555    0.0065362608
      6  C         2.9871183175   -1.8739271436   -0.5553047933
      7  H         3.6575342381   -2.7055209584   -0.7413832279
      8  C         3.4405509749   -0.5862335903   -0.2138872444
      9  H         4.5516602177    2.0103773946    0.3355074027
     10  C         4.7728970716   -0.1422745478   -0.0499357437
     11  C         5.2236853882    1.1641497709    0.2491258662
     12  S         6.1383873899   -1.2458704578   -0.1763807256
     13  C         6.6011790457    1.2591896560    0.3746870081
     14  H         7.1362999800    2.1830467094    0.5606979455
     15  C         7.2734263436    0.0304185880    0.2059349538
     16  C         8.6915812206   -0.1658902336    0.0674692782
     17  H         9.4349512989    0.4836744699    2.0112955936
     18  C         9.6550093104    0.0044505540    1.0639372131
     19  S         9.3637306860   -1.0836797023   -1.2774044338
     20  C        10.9153427576   -0.5250904217    0.7183692242
     21  C        10.9114050610   -1.1284149009   -0.5234228013
     22  H        11.7921074316   -0.4726581067    1.3522602789
     23  H        11.7512521187   -1.5645049923   -1.0494479867

Z-matrix Print:
$molecule
1 2
S 
C  1 1.750255
C  2 1.410770 1 110.624464
H  3 1.083728 2 121.853237 1 -176.455713 0
C  3 1.386466 2 113.758938 1 2.153957 0
H  5 1.084058 3 123.723049 2 -179.165742 0
C  5 1.413999 3 113.529932 2 -1.210451 0
C  7 1.413904 5 127.955270 3 178.558083 0
C  8 1.407239 7 128.249124 5 177.660610 0
H  9 1.084265 8 122.971289 7 -0.211528 0
C  9 1.399727 8 113.273878 7 -179.901878 0
H  11 1.083103 9 124.431811 8 179.774298 0
C  11 1.389011 9 112.455686 8 -0.059739 0
H  13 1.082886 11 127.385722 9 179.978893 0
C  2 1.438358 1 121.254490 3 -168.126741 0
C  15 1.396481 2 126.503199 1 -123.930692 0
H  16 1.084237 15 122.504486 2 -11.536426 0
C  16 1.410061 15 113.325768 2 167.476903 0
H  18 1.083182 16 124.186345 15 178.767293 0
C  18 1.380603 16 112.457419 15 -1.497434 0
H  20 1.082691 18 127.647732 16 176.463225 0
S  13 1.717008 11 112.996306 9 -0.020570 0
S  20 1.722146 18 112.644193 16 -1.003479 0
$end

 
 --------------------------------------------------------------
 
                    Orbital Energies (a.u.)
 --------------------------------------------------------------
 
 Alpha MOs
 -- Occupied --
-89.077 -89.071 -89.056 -10.411 -10.411 -10.399 -10.386 -10.381
-10.369 -10.366 -10.365 -10.364 -10.352 -10.348 -10.334  -8.135
 -8.130  -8.115  -6.100  -6.096  -6.094  -6.092  -6.091  -6.088
 -6.080  -6.076  -6.072  -1.065  -1.042  -1.023  -0.944  -0.914
 -0.897  -0.887  -0.879  -0.842  -0.771  -0.747  -0.711  -0.703
 -0.690  -0.681  -0.668  -0.643  -0.609  -0.574  -0.571  -0.570
 -0.559  -0.555  -0.547  -0.539  -0.532  -0.519  -0.517  -0.509
 -0.496  -0.486  -0.448  -0.422  -0.411  -0.396  -0.390  -0.355
 -- Virtual --
 -0.228  -0.177  -0.156  -0.139  -0.129  -0.114  -0.111  -0.109
 -0.099  -0.094  -0.093  -0.084  -0.082  -0.079  -0.077  -0.073
 -0.066  -0.063  -0.058  -0.054  -0.047  -0.043  -0.038  -0.029
 -0.024  -0.022  -0.017  -0.011  -0.005  -0.002   0.003   0.005
  0.007   0.011   0.014   0.019   0.023   0.026   0.028   0.033
  0.034   0.038   0.040   0.041   0.043   0.045   0.050   0.053
  0.054   0.057   0.061   0.062   0.068   0.072   0.075   0.080
  0.085   0.088   0.096   0.097   0.101   0.106   0.112   0.115
  0.119   0.121   0.126   0.130   0.136   0.143   0.146   0.151
  0.153   0.159   0.167   0.172   0.173   0.180   0.182   0.188
  0.200   0.203   0.210   0.216   0.225   0.231   0.235   0.245
  0.250   0.255   0.263   0.271   0.286   0.313   0.335   0.346
  0.353   0.376   0.378   0.388   0.399   0.423   0.432   0.437
  0.447   0.459   0.475   0.485   0.499   0.504   0.511   0.511
  0.516   0.528   0.541   0.551   0.554   0.572   0.580   0.585
  0.589   0.596   0.604   0.610   0.626   0.637   0.643   0.648
  0.654   0.665   0.674   0.683   0.690   0.699   0.707   0.733
  0.767   0.786   0.790   0.804   0.813   0.817   0.820   0.821
  0.830   0.836   0.844   0.848   0.851   0.870   0.872   0.881
  0.890   0.906   0.913   0.929   0.934   0.941   0.961   0.964
  0.974   0.981   1.016   1.022   1.048   1.057   1.076   1.092
  1.110   1.117   1.148   1.157   1.164   1.192   1.193   1.196
  1.204   1.210   1.222   1.241   1.267   1.313   1.325   1.341
  1.347   1.393   1.420   1.462   1.483   1.519   1.539   1.554
  1.584   1.666   1.698   1.704   1.719   1.755   1.765   1.773
  1.775   1.787   1.804   1.812   1.825   1.864   1.874   1.896
  1.909   1.921   1.958   1.975   1.998   2.013   2.036   2.042
  2.060   2.076   2.093   2.113   2.129   2.143   2.178   2.222
  2.242   2.269   2.282   2.291   2.310   2.317   2.325   2.340
  2.364   2.378   2.383   2.388   2.408   2.440   2.457   2.470
  2.491   2.511   2.533   2.562   2.568   2.600   2.642   2.707
  2.737   2.745   2.760   2.792   2.793   2.987   3.036   3.063
  3.137   3.147   3.174   3.265   3.280   3.525   3.591   3.602
  3.803   3.833   3.856   4.099   4.150   4.165   4.171   4.186
  4.197   4.251   4.334   4.395   4.505   4.551   4.569
 
 Beta MOs
 -- Occupied --
-89.077 -89.071 -89.056 -10.409 -10.408 -10.398 -10.383 -10.381
-10.368 -10.365 -10.364 -10.362 -10.352 -10.347 -10.335  -8.136
 -8.130  -8.115  -6.100  -6.096  -6.095  -6.093  -6.091  -6.088
 -6.080  -6.076  -6.073  -1.060  -1.038  -1.020  -0.938  -0.912
 -0.896  -0.883  -0.878  -0.835  -0.767  -0.743  -0.708  -0.700
 -0.688  -0.679  -0.666  -0.641  -0.607  -0.570  -0.569  -0.561
 -0.557  -0.553  -0.541  -0.536  -0.531  -0.515  -0.509  -0.507
 -0.495  -0.485  -0.429  -0.420  -0.407  -0.393  -0.375
 -- Virtual --
 -0.302  -0.212  -0.169  -0.147  -0.136  -0.125  -0.113  -0.109
 -0.099  -0.098  -0.092  -0.091  -0.082  -0.078  -0.076  -0.074
 -0.072  -0.065  -0.062  -0.057  -0.053  -0.045  -0.042  -0.037
 -0.029  -0.023  -0.021  -0.016  -0.011  -0.004  -0.001   0.004
  0.006   0.007   0.012   0.014   0.020   0.024   0.027   0.029
  0.034   0.035   0.039   0.041   0.042   0.044   0.046   0.051
  0.054   0.054   0.058   0.062   0.063   0.069   0.073   0.076
  0.081   0.086   0.089   0.096   0.098   0.102   0.107   0.113
  0.116   0.119   0.122   0.127   0.131   0.137   0.144   0.147
  0.151   0.154   0.160   0.167   0.173   0.174   0.182   0.183
  0.189   0.201   0.204   0.211   0.219   0.226   0.231   0.237
  0.246   0.251   0.256   0.264   0.272   0.288   0.315   0.336
  0.347   0.354   0.377   0.378   0.388   0.400   0.424   0.434
  0.438   0.448   0.460   0.476   0.486   0.501   0.508   0.513
  0.516   0.523   0.530   0.542   0.554   0.556   0.575   0.581
  0.586   0.590   0.597   0.610   0.611   0.630   0.638   0.645
  0.652   0.655   0.668   0.676   0.687   0.691   0.703   0.710
  0.734   0.768   0.789   0.792   0.806   0.815   0.818   0.822
  0.824   0.834   0.837   0.845   0.849   0.852   0.871   0.873
  0.881   0.891   0.906   0.915   0.930   0.935   0.942   0.962
  0.965   0.975   0.982   1.017   1.025   1.051   1.059   1.079
  1.094   1.112   1.124   1.152   1.160   1.167   1.195   1.196
  1.198   1.208   1.217   1.225   1.243   1.270   1.317   1.330
  1.344   1.352   1.396   1.423   1.468   1.487   1.527   1.545
  1.563   1.590   1.669   1.700   1.707   1.725   1.757   1.767
  1.776   1.778   1.789   1.807   1.815   1.829   1.867   1.877
  1.899   1.912   1.926   1.961   1.980   2.005   2.017   2.044
  2.047   2.065   2.081   2.098   2.118   2.134   2.147   2.183
  2.225   2.244   2.272   2.286   2.296   2.315   2.322   2.327
  2.341   2.366   2.383   2.385   2.390   2.411   2.443   2.459
  2.472   2.494   2.513   2.536   2.566   2.570   2.602   2.645
  2.710   2.739   2.749   2.762   2.794   2.796   2.988   3.037
  3.064   3.137   3.147   3.174   3.266   3.281   3.526   3.592
  3.603   3.803   3.833   3.857   4.103   4.153   4.168   4.175
  4.189   4.200   4.256   4.338   4.400   4.508   4.554   4.571
 --------------------------------------------------------------
 
          Ground-State Mulliken Net Atomic Charges

     Atom                 Charge (a.u.)    Spin (a.u.)
  --------------------------------------------------------
      1 H                     0.244182      -0.012709
      2 H                     0.165736       0.001236
      3 C                     0.065382       0.247786
      4 C                    -0.260141      -0.036452
      5 S                    -0.049310      -0.026770
      6 C                     0.500305       0.137972
      7 H                     0.146394      -0.009173
      8 C                    -0.316212       0.050633
      9 H                     0.149059      -0.005773
     10 C                     0.003557       0.176518
     11 C                    -0.082988       0.072415
     12 S                    -0.185223      -0.051967
     13 C                     0.047843       0.035178
     14 H                     0.181482      -0.003215
     15 C                    -0.490212       0.210050
     16 C                     0.466314       0.042148
     17 H                     0.172990      -0.007267
     18 C                    -0.038504       0.076384
     19 S                     0.100621      -0.015987
     20 C                    -0.204127      -0.020248
     21 C                    -0.008913       0.144841
     22 H                     0.155780       0.001520
     23 H                     0.235984      -0.007121
  --------------------------------------------------------
  Sum of atomic charges =     1.000000
  Sum of spin   charges =     1.000000

 -----------------------------------------------------------------
                    Cartesian Multipole Moments
 -----------------------------------------------------------------
    Charge (ESU x 10^10)
                 4.8032
    Dipole Moment (Debye)
         X      27.4716      Y      -2.1535      Z      -0.1494
       Tot      27.5563
    Quadrupole Moments (Debye-Ang)
        XX     136.6427     XY      -9.9695     YY     -91.2551
        XZ       4.8416     YZ       7.1175     ZZ    -103.7274
    Octopole Moments (Debye-Ang^2)
       XXX     495.3787    XXY     -80.2304    XYY    -574.8673
       YYY     135.4076    XXZ      62.4256    XYZ      44.4822
       YYZ       6.0370    XZZ    -600.0372    YZZ      47.7720
       ZZZ      51.5104
    Hexadecapole Moments (Debye-Ang^3)
      XXXX   -4315.4883   XXXY    -848.6516   XXYY   -4718.1526
      XYYY     914.0908   YYYY    -755.6314   XXXZ     628.3088
      XXYZ     349.2360   XYYZ      28.2171   YYYZ     -94.5418
      XXZZ   -4600.4830   XYZZ     284.2181   YYZZ    -200.4745
      XZZZ     255.4063   YZZZ    -127.8178   ZZZZ    -373.6656
 -----------------------------------------------------------------
Archival summary:
1\1\nid00506\OPT\ProcedureUnspecified\BasisUnspecified\3128(1+,2)\bwood\TueMay3011:02:532017TueMay3011:02:532017\0\\#,OPT,ProcedureUnspecified,BasisUnspecified,\\1,2\S\C,1,1.75025\C,2,1.41077,1,110.624\H,3,1.08373,2,121.853,1,-176.456,0\C,3,1.38647,2,113.759,1,2.15396,0\H,5,1.08406,3,123.723,2,-179.166,0\C,5,1.414,3,113.53,2,-1.21045,0\C,7,1.4139,5,127.955,3,178.558,0\C,8,1.40724,7,128.249,5,177.661,0\H,9,1.08427,8,122.971,7,-0.211528,0\C,9,1.39973,8,113.274,7,-179.902,0\H,11,1.0831,9,124.432,8,179.774,0\C,11,1.38901,9,112.456,8,-0.0597386,0\H,13,1.08289,11,127.386,9,179.979,0\C,2,1.43836,1,121.254,3,-168.127,0\C,15,1.39648,2,126.503,1,-123.931,0\H,16,1.08424,15,122.504,2,-11.5364,0\C,16,1.41006,15,113.326,2,167.477,0\H,18,1.08318,16,124.186,15,178.767,0\C,18,1.3806,16,112.457,15,-1.49743,0\H,20,1.08269,18,127.648,16,176.463,0\S,13,1.71701,11,112.996,9,-0.0205702,0\S,20,1.72215,18,112.644,16,-1.00348,0\\\@

 Total job time:  243.59s(wall), 257.88s(cpu) 
 Tue May 30 11:02:54 2017

        *************************************************************
        *                                                           *
        *  Thank you very much for using Q-Chem.  Have a nice day.  *
        *                                                           *
        *************************************************************


0 sent ACK to 0 
now end server 0 ... 
