srun -N 1 --ntasks-per-node 16 --nodelist nid01043 /global/project/projectdirs/jcesr/qchem/qc44/cnl_qc441/dist/exe/qcprog.cori.exe .pt_dft_10.0.in.56989.qcin.1 /dev/shm/eg_qchem/qchem56989/
Process 0 of 16 is on nid01043 - thread support 0
Process 1 of 16 is on nid01043 - thread support 0
Process 2 of 16 is on nid01043 - thread support 0
Process 3 of 16 is on nid01043 - thread support 0
Process 4 of 16 is on nid01043 - thread support 0
Process 5 of 16 is on nid01043 - thread support 0
Process 6 of 16 is on nid01043 - thread support 0
Process 15 of 16 is on nid01043 - thread support 0
initial socket setup ...start
initial socket setup ...done 
now start server 0 ... 
nid01043 10.128.4
Q-Chem Developer Version! Running on 10.128.4.*
                  Welcome to Q-Chem
     A Quantum Leap Into The Future Of Chemistry


 Q-Chem 4.4, Q-Chem, Inc., Pleasanton, CA (2016)

 Y. Shao,  Z. Gan,  E. Epifanovsky,  A. T. B. Gilbert,  M. Wormit,  
 J. Kussmann,  A. W. Lange,  A. Behn,  J. Deng,  X. Feng,  D. Ghosh,  
 M. Goldey,  P. R. Horn,  L. D. Jacobson,  I. Kaliman,  F.Rob,  
 R. Z. Khaliullin,  T. Kus,  A. Landau,  J. Liu,  E. I. Proynov,  Y. M. Rhee,  
 R. M. Richard,  M. A. Rohrdanz,  R. P. Steele,  E. J. Sundstrom,  
 H. L. Woodcock III,  P. M. Zimmerman,  D. Zuev,  B. Albrecht,  E. Alguire,  
 B. Austin,  S. A. Baeppler,  G. J. O. Beran,  Y. A. Bernard,  E. Berquist,  
 K. Brandhorst,  K. B. Bravaya,  S. T. Brown,  D. Casanova,  C.-M. Chang,  
 Y. Chen,  S. H. Chien,  K. D. Closser,  M. P. Coons,  D. L. Crittenden,  
 S. Dasgupta,  M. Diedenhofen,  R. A. DiStasio Jr.,  H. Do,  A. D. Dutoi,  
 R. G. Edgar,  P.-T. Fang,  S. Fatehi,  Q. Feng,  L. Fusti-Molnar,  
 A. Ghysels,  A. Golubeva-Zadorozhnaya,  J. Gomes,  A. Gunina,  
 M. W. D. Hanson-Heine,  P. H. P. Harbach,  A. W. Hauser,  E. G. Hohenstein,  
 Z. C. Holden,  K. Hui,  T.-C. Jagau,  H. Ji,  B. Kaduk,  K. Khistyaev,  
 Jaehoon Kim,  Jihan Kim,  R. A. King,  P. Klunzinger,  D. Kosenkov,  
 T. Kowalczyk,  C. M. Krauter,  A. Kunitsa,  K. U. Lao,  A. Laurent,  
 K. V. Lawler,  D. Lefrancois,  S. Lehtola,  S. V. Levchenko,  C. Y. Lin,  
 Y.-S. Lin,  F. Liu,  E. Livshits,  R. C. Lochan,  A. Luenser,  P. Manohar,  
 S. F. Manzer,  S.-P. Mao,  Y. Mao,  N. Mardirossian,  A. V. Marenich,  
 L. A. Martinez-Martinez,  S. A. Maurer,  N. J. Mayhall,  J.-M. Mewes,  
 A. F. Morrison,  K. Nanda,  C. M. Oana,  R. Olivares-Amaya,  D. P. O'Neill,  
 J. A. Parkhill,  T. M. Perrine,  R. Peverati,  P. A. Pieniazek,  F. Plasser,  
 A. Prociuk,  D. R. Rehn,  E. Rosta,  N. J. Russ,  N. Sergueev,  
 S. M. Sharada,  S. Sharma,  D. W. Small,  A. Sodt,  T. Stauch,  T. Stein,  
 D. Stuck,  Y.-C. Su,  A. J. W. Thom,  T. Tsuchimochi,  L. Vogt,  O. Vydrov,  
 T. Wang,  M. A. Watson,  J. Wenzel,  A. White,  C. F. Williams,  
 V. Vanovschi,  S. Yeganeh,  S. R. Yost,  Z.-Q. You,  I. Y. Zhang,  X. Zhang,  
 Y. Zhao,  B. R. Brooks,  G. K. L. Chan,  D. M. Chipman,  C. J. Cramer,  
 W. A. Goddard III,  M. S. Gordon,  W. J. Hehre,  A. Klamt,  
 H. F. Schaefer III,  M. W. Schmidt,  C. D. Sherrill,  D. G. Truhlar,  
 A. Warshel,  X. Xu,  A. Aspuru-Guzik,  R. Baer,  A. T. Bell,  N. A. Besley,  
 J.-D. Chai,  A. Dreuw,  B. D. Dunietz,  T. R. Furlani,  S. R. Gwaltney,  
 C.-P. Hsu,  Y. Jung,  J. Kong,  D. S. Lambrecht,  W. Liang,  C. Ochsenfeld,  
 V. A. Rassolov,  L. V. Slipchenko,  J. E. Subotnik,  T. Van Voorhis,  
 J. M. Herbert,  A. I. Krylov,  P. M. W. Gill,  M. Head-Gordon

 Contributors to earlier versions of Q-Chem not listed above: 
 R. D. Adamson,  J. Baker,  E. F. C. Byrd,  A. K. Chakraborty,  C.-L. Cheng,  
 H. Dachsel,  R. J. Doerksen,  G. Hawkins,  A. Heyden,  S. Hirata,  
 G. Kedziora,  F. J. Keil,  C. Kelley,  P. P. Korambath,  W. Kurlancheek,  
 A. M. Lee,  M. S. Lee,  D. Liotard,  I. Lotan,  P. E. Maslen,  N. Nair,  
 D. Neuhauser,  R. Olson,  B. Peters,  J. Ritchie,  N. E. Schultz,  
 N. Shenvi,  A. C. Simmonett,  K. S. Thanthiriwatte,  Q. Wu,  W. Zhang

 Please cite Q-Chem as follows:
 Y. Shao et al., Mol. Phys. 113, 184-215 (2015)
 DOI: 10.1080/00268976.2014.952696

 Q-Chem 4.4.1 for Intel X86 EM64T Linux

 Parts of Q-Chem use Armadillo 5.200.1 (Boston Tea Smuggler).
 http://arma.sourceforge.net/

 Q-Chem begins on Fri Sep  2 18:35:53 2016  

Host: nid01043
0

     Scratch files written to /dev/shm/eg_qchem/qchem56989.0//
 Parallel job on  16  processors

Checking the input file for inconsistencies... 	...done.

--------------------------------------------------------------
User input:
--------------------------------------------------------------
$molecule
 0  1
 S           1.82267924       -1.19997629        0.28714109
 C           3.20006180       -0.17260711        0.06528466
 C           2.82980603        1.10216298       -0.25610036
 C           1.41909100        1.26345446       -0.34254814
 C           0.71738150        0.10901545       -0.08456145
 H           0.93627498        2.19419272       -0.61095402
 C          -0.71741859       -0.10899254       -0.08455524
 S          -1.39609186       -1.60776208        0.52075255
 C          -1.72126984        0.72506696       -0.51850233
 C          -3.01125995       -1.07018357        0.19805783
 C          -3.02422551        0.17715712       -0.35817024
 H          -3.93285723        0.69486791       -0.63579907
 H           4.19429620       -0.57452886        0.18632814
 H           3.53860725        1.89960515       -0.43610218
 H          -3.84743414       -1.70850980        0.43898725
 H          -1.52994700        1.71274521       -0.91764392
$end


$rem
         jobtype = opt
        exchange = b3lyp
           basis = 6-31++g**
  max_scf_cycles = 75
      mem_static = 100
       mem_total = 1500
$end


$opt
CONSTRAINT
tors 4 5 7 9 10.0
ENDCONSTRAINT
$end

--------------------------------------------------------------
 Atom   8: ( -1.6232017501,  0.1027309943,  1.1464963927)
         ->( -1.6232018442,  0.1027310759,  1.1464964041)
 Atom  10: ( -3.1384786612,  0.0299870936,  0.3095168809)
         ->( -3.1384786599,  0.0299869615,  0.3095167808)
 Atom  11: ( -2.9623439813, -0.0919412394, -1.0393814194)
         ->( -2.9623438998, -0.0919415610, -1.0393814475)
 Atom   9: ( -1.5914781810, -0.1134423316, -1.4186830284)
         ->( -1.5914780973, -0.1134420280, -1.4186830920)
 Atom   7: ( -0.7255744780, -0.0092959113, -0.3551761132)
         ->( -0.7255744201, -0.0092959557, -0.3551760634)
 Atom  16: ( -1.2530987057, -0.1782392062, -2.4447081057)
         ->( -1.2530985806, -0.1782385855, -2.4447081614)
 Atom  14: (  3.7821652218,  0.1540743057, -1.7427635352)
         ->(  3.7821653430,  0.1540737889, -1.7427634728)
 Atom  15: ( -4.0617906610,  0.0815497411,  0.8658718770)
         ->( -4.0617907473,  0.0815494983,  0.8658716617)
 ----------------------------------------------------------------
             Standard Nuclear Orientation (Angstroms)
    I     Atom           X                Y                Z
 ----------------------------------------------------------------
    1      S       1.6232018442    -0.1027310759     1.1464964041
    2      C       3.1384786599    -0.0299869615     0.3095167808
    3      C       2.9623438998     0.0919415610    -1.0393814475
    4      C       1.5914780973     0.1134420280    -1.4186830920
    5      C       0.7255744201     0.0092959557    -0.3551760634
    6      H       1.2530985806     0.1782385855    -2.4447081614
    7      C      -0.7255744201    -0.0092959557    -0.3551760634
    8      S      -1.6232018442     0.1027310759     1.1464964041
    9      C      -1.5914780973    -0.1134420280    -1.4186830920
   10      C      -3.1384786599     0.0299869615     0.3095167808
   11      C      -2.9623438998    -0.0919415610    -1.0393814475
   12      H      -3.7821653430    -0.1540737889    -1.7427634728
   13      H       4.0617907473    -0.0815494983     0.8658716617
   14      H       3.7821653430     0.1540737889    -1.7427634728
   15      H      -4.0617907473     0.0815494983     0.8658716617
   16      H      -1.2530985806    -0.1782385855    -2.4447081614
 ----------------------------------------------------------------
 Molecular Point Group                 C2    NOp =  2
 Largest Abelian Subgroup              C2    NOp =  2
 Nuclear Repulsion Energy =   634.2833622625 hartrees
 There are       43 alpha and       43 beta electrons
 Requested basis set is 6-31++G(d,p)
 There are 76 shells and 234 basis functions

 Total QAlloc Memory Limit   1500 MB
 Mega-Array Size        98 MB
 MEM_STATIC part       100 MB
 A cutoff of  1.0D-11 yielded   2489 shell pairs
 There are     24591 function pairs
 
 -------------------------------------------------------
 OpenMP Integral Computing Module                       
 Release: version 1.0, May 2013, Q-Chem Inc. Pittsburgh 
 -------------------------------------------------------
 Integral Job Info:
 Integral job number is                      11
 Integral operator is                         1
 short-range coefficients                     0
 long-range coefficients              100000000
 Omega coefficients                           0
 if combine SR and LR in K                    0
 Integral screening is                        0
 Integral computing path is                   2
 max size of driver memory is            800000
 size of driver memory is                593474
 size of scratch memory is             15166112
 max col of scratch BK array               1296
 max len of scratch array in speh3          155
 max len of scratch index in speh4           18
 max int batch size is                      520
 min int batch size is                       52
 fixed nKL is                                52
 max L of basis functions is                  2
 order of int derivative is                   0
 number of shells is                         76
 number of basis is                         234
 number of cartesian basis is               234
 number of contracted shell pairs          2489
 number of primitive shell pairs           8065
 maxK2 (contraction) of shell pair           36
 max number of K2 of shell pair               1
 max number of CS2 of shell pair            256
 max number of PS2 of shell pair           1500
 mem total for path MDJ                   51992
 -------------------------------------------------------
 Smallest overlap matrix eigenvalue = 6.73E-07

 Q-Chem warning in module /project/projectdirs/jcesr/qchem/qc44/cnl_qc441/compile/cori/qc_src/stvman/mkSTV.C, line 257:

 Overlap eigenvalue is smaller than square root of threshold

 Linear dependence detected in AO basis
 Number of orthogonalized atomic orbitals = 233
 Maximum deviation from orthogonality = 1.204E-10

 Scale SEOQF with 1.000000e-01/1.000000e-01/1.000000e-01

 Standard Electronic Orientation quadrupole field applied
 Nucleus-field energy     =     0.0000000038 hartrees
 Guess from superposition of atomic densities
 Warning:  Energy on first SCF cycle will be non-variational
 A restricted hybrid HF-DFT SCF calculation will be
 performed using Pulay DIIS extrapolation
 Exchange:     0.2000 Hartree-Fock + 0.0800 Slater + 0.7200 B88
 Correlation:  0.1900 VWN1RPA + 0.8100 LYP
 Using SG-1 standard quadrature grid
 SCF converges when DIIS error is below 1.0E-08
 ---------------------------------------
  Cycle       Energy         DIIS Error
 ---------------------------------------
    1   -1107.2336030020      4.46E-02
    2   -1051.7566075285      4.08E-02
    3   -1098.8882204336      1.38E-01
    4   -1098.6029456237      1.42E-01
    5   -1100.6651387534      1.00E-01
    6   -1102.6255409125      6.29E-02
    7   -1192.8047181979      1.96E-01
    8   -1201.7418021399      2.14E-01
    9   -1564.9018055213      1.14E+00
   10   -1542.1192172550      1.08E+00
   11   -1583.8727620111      1.18E+00
   12   -1192.9560852567      2.45E-01
   13   -1214.1383009555      2.37E-01
   14   -1172.8100674305      1.87E-01
   15   -1112.9135668927      6.30E-02
   16   -1064.0609012936      9.31E-02
   17   -1089.0905306370      3.32E-02
   18   -1104.0977468459      1.11E-02
   19   -1104.6927651051      5.00E-03
   20   -1104.6659325137      4.80E-03
   21   -1104.8249987085      1.45E-03
   22   -1104.8315759717      9.95E-04
   23   -1104.8382709139      1.97E-04
   24   -1104.8384952109      9.01E-05
   25   -1104.8385559500      2.89E-05
   26   -1104.8385551917      3.02E-06
   27   -1104.8385616322      1.53E-06
   28   -1104.8385625629      4.36E-07
   29   -1104.8385634846      8.70E-08
   30   -1104.8385629917      3.21E-08
   31   -1104.8385626544      3.89E-08
   32   -1104.8385630101      4.03E-08
   33   -1104.8385630867      8.95E-09 Convergence criterion met
 ---------------------------------------
 SCF time:  CPU 14.60 s  wall 12.35 s
 SCF   energy in the final basis set = -1104.8385630867
 Total energy in the final basis set = -1104.8385630867
 
 --------------------------------------------------------------
             Orbital Energies (a.u.) and Symmetries
 --------------------------------------------------------------
 
 Alpha MOs, Restricted
 -- Occupied --                  
-88.919 -88.919 -10.238 -10.238 -10.224 -10.224 -10.204 -10.204
  1 B     1 A     2 A     2 B     3 B     3 A     4 B     4 A                  
-10.203 -10.203  -7.979  -7.979  -5.943  -5.943  -5.939  -5.939
  5 B     5 A     6 B     6 A     7 B     7 A     8 B     8 A                  
 -5.936  -5.936  -0.902  -0.879  -0.773  -0.751  -0.737  -0.706
  9 A     9 B    10 A    10 B    11 A    12 A    11 B    12 B                  
 -0.605  -0.581  -0.554  -0.534  -0.529  -0.477  -0.422  -0.419
 13 A    14 A    13 B    14 B    15 A    15 B    16 A    17 A                  
 -0.409  -0.404  -0.402  -0.376  -0.374  -0.361  -0.342  -0.284
 16 B    17 B    18 A    18 B    19 A    20 A    19 B    20 B                  
 -0.266  -0.257  -0.212
 21 B    21 A    22 A                                                          
 -- Virtual --                   
 -0.059  -0.015  -0.003   0.000   0.006   0.014   0.020   0.027
 22 B    23 A    24 A    23 B    25 A    26 A    24 B    25 B                  
  0.027   0.036   0.041   0.044   0.052   0.061   0.066   0.071
 27 A    28 A    26 B    29 A    27 B    30 A    28 B    29 B                  
  0.080   0.084   0.088   0.094   0.102   0.103   0.107   0.114
 31 A    30 B    31 B    32 A    33 A    32 B    34 A    35 A                  
  0.116   0.122   0.128   0.129   0.137   0.138   0.144   0.147
 33 B    36 A    34 B    37 A    38 A    35 B    39 A    36 B                  
  0.149   0.157   0.158   0.160   0.167   0.178   0.184   0.189
 40 A    37 B    41 A    38 B    39 B    40 B    42 A    43 A                  
  0.190   0.194   0.196   0.206   0.210   0.217   0.230   0.240
 41 B    42 B    44 A    43 B    45 A    46 A    44 B    47 A                  
  0.261   0.262   0.265   0.273   0.286   0.298   0.302   0.311
 48 A    45 B    46 B    49 A    47 B    48 B    50 A    49 B                  
  0.313   0.316   0.336   0.346   0.366   0.381   0.386   0.427
 51 A    52 A    50 B    53 A    51 B    54 A    52 B    53 B                  
  0.448   0.467   0.490   0.537   0.553   0.567   0.567   0.579
 55 A    56 A    54 B    57 A    55 B    56 B    58 A    57 B                  
  0.593   0.624   0.648   0.654   0.656   0.670   0.676   0.678
 59 A    60 A    58 B    61 A    59 B    62 A    63 A    60 B                  
  0.702   0.713   0.722   0.724   0.733   0.752   0.767   0.793
 64 A    61 B    65 A    62 B    63 B    66 A    64 B    67 A                  
  0.809   0.816   0.830   0.842   0.886   0.926   0.928   0.943
 65 B    66 B    68 A    67 B    69 A    68 B    70 A    71 A                  
  0.956   0.958   0.972   0.980   0.985   1.003   1.009   1.011
 72 A    69 B    70 B    71 B    73 A    72 B    73 B    74 A                  
  1.026   1.035   1.081   1.085   1.111   1.119   1.137   1.170
 75 A    76 A    77 A    74 B    78 A    75 B    76 B    79 A                  
  1.189   1.191   1.206   1.250   1.261   1.338   1.342   1.347
 80 A    77 B    78 B    81 A    79 B    82 A    80 B    81 B                  
  1.356   1.372   1.374   1.447   1.503   1.533   1.556   1.602
 83 A    82 B    84 A    83 B    85 A    84 B    86 A    85 B                  
  1.642   1.694   1.712   1.782   1.859   1.874   1.896   1.921
 86 B    87 A    87 B    88 A    89 A    90 A    88 B    89 B                  
  1.927   1.978   1.996   2.018   2.026   2.075   2.099   2.125
 91 A    92 A    90 B    91 B    93 A    94 A    92 B    95 A                  
  2.127   2.171   2.186   2.251   2.252   2.294   2.295   2.362
 93 B    96 A    94 B    97 A    95 B    98 A    96 B    97 B                  
  2.368   2.417   2.455   2.479   2.489   2.492   2.512   2.536
 99 A    98 B   100 A    99 B   101 A   102 A   100 B   101 B                  
  2.552   2.570   2.579   2.600   2.691   2.695   2.728   2.763
103 A   104 A   105 A   102 B   103 B   104 B   106 A   107 A                  
  2.802   2.858   2.960   2.990   3.146   3.225   3.274   3.277
105 B   108 A   106 B   107 B   109 A   108 B   110 A   109 B                  
  3.399   3.440   3.715   3.766   3.942   4.026   4.227   4.300
111 A   110 B   112 A   111 B   113 A   112 B   114 A   115 A                  
  4.312   4.337   4.401   4.555   4.649   4.741
113 B   114 B   116 A   115 B   117 A   116 B                                  
 
 Beta MOs, Restricted
 -- Occupied --                  
-88.919 -88.919 -10.238 -10.238 -10.224 -10.224 -10.204 -10.204
  1 B     1 A     2 A     2 B     3 B     3 A     4 B     4 A                  
-10.203 -10.203  -7.979  -7.979  -5.943  -5.943  -5.939  -5.939
  5 B     5 A     6 B     6 A     7 B     7 A     8 B     8 A                  
 -5.936  -5.936  -0.902  -0.879  -0.773  -0.751  -0.737  -0.706
  9 A     9 B    10 A    10 B    11 A    12 A    11 B    12 B                  
 -0.605  -0.581  -0.554  -0.534  -0.529  -0.477  -0.422  -0.419
 13 A    14 A    13 B    14 B    15 A    15 B    16 A    17 A                  
 -0.409  -0.404  -0.402  -0.376  -0.374  -0.361  -0.342  -0.284
 16 B    17 B    18 A    18 B    19 A    20 A    19 B    20 B                  
 -0.266  -0.257  -0.212
 21 B    21 A    22 A                                                          
 -- Virtual --                   
 -0.059  -0.015  -0.003   0.000   0.006   0.014   0.020   0.027
 22 B    23 A    24 A    23 B    25 A    26 A    24 B    25 B                  
  0.027   0.036   0.041   0.044   0.052   0.061   0.066   0.071
 27 A    28 A    26 B    29 A    27 B    30 A    28 B    29 B                  
  0.080   0.084   0.088   0.094   0.102   0.103   0.107   0.114
 31 A    30 B    31 B    32 A    33 A    32 B    34 A    35 A                  
  0.116   0.122   0.128   0.129   0.137   0.138   0.144   0.147
 33 B    36 A    34 B    37 A    38 A    35 B    39 A    36 B                  
  0.149   0.157   0.158   0.160   0.167   0.178   0.184   0.189
 40 A    37 B    41 A    38 B    39 B    40 B    42 A    43 A                  
  0.190   0.194   0.196   0.206   0.210   0.217   0.230   0.240
 41 B    42 B    44 A    43 B    45 A    46 A    44 B    47 A                  
  0.261   0.262   0.265   0.273   0.286   0.298   0.302   0.311
 48 A    45 B    46 B    49 A    47 B    48 B    50 A    49 B                  
  0.313   0.316   0.336   0.346   0.366   0.381   0.386   0.427
 51 A    52 A    50 B    53 A    51 B    54 A    52 B    53 B                  
  0.448   0.467   0.490   0.537   0.553   0.567   0.567   0.579
 55 A    56 A    54 B    57 A    55 B    56 B    58 A    57 B                  
  0.593   0.624   0.648   0.654   0.656   0.670   0.676   0.678
 59 A    60 A    58 B    61 A    59 B    62 A    63 A    60 B                  
  0.702   0.713   0.722   0.724   0.733   0.752   0.767   0.793
 64 A    61 B    65 A    62 B    63 B    66 A    64 B    67 A                  
  0.809   0.816   0.830   0.842   0.886   0.926   0.928   0.943
 65 B    66 B    68 A    67 B    69 A    68 B    70 A    71 A                  
  0.956   0.958   0.972   0.980   0.985   1.003   1.009   1.011
 72 A    69 B    70 B    71 B    73 A    72 B    73 B    74 A                  
  1.026   1.035   1.081   1.085   1.111   1.119   1.137   1.170
 75 A    76 A    77 A    74 B    78 A    75 B    76 B    79 A                  
  1.189   1.191   1.206   1.250   1.261   1.338   1.342   1.347
 80 A    77 B    78 B    81 A    79 B    82 A    80 B    81 B                  
  1.356   1.372   1.374   1.447   1.503   1.533   1.556   1.602
 83 A    82 B    84 A    83 B    85 A    84 B    86 A    85 B                  
  1.642   1.694   1.712   1.782   1.859   1.874   1.896   1.921
 86 B    87 A    87 B    88 A    89 A    90 A    88 B    89 B                  
  1.927   1.978   1.996   2.018   2.026   2.075   2.099   2.125
 91 A    92 A    90 B    91 B    93 A    94 A    92 B    95 A                  
  2.127   2.171   2.186   2.251   2.252   2.294   2.295   2.362
 93 B    96 A    94 B    97 A    95 B    98 A    96 B    97 B                  
  2.368   2.417   2.455   2.479   2.489   2.492   2.512   2.536
 99 A    98 B   100 A    99 B   101 A   102 A   100 B   101 B                  
  2.552   2.570   2.579   2.600   2.691   2.695   2.728   2.763
103 A   104 A   105 A   102 B   103 B   104 B   106 A   107 A                  
  2.802   2.858   2.960   2.990   3.146   3.225   3.274   3.277
105 B   108 A   106 B   107 B   109 A   108 B   110 A   109 B                  
  3.399   3.440   3.715   3.766   3.942   4.026   4.227   4.300
111 A   110 B   112 A   111 B   113 A   112 B   114 A   115 A                  
  4.312   4.337   4.401   4.555   4.649   4.741
113 B   114 B   116 A   115 B   117 A   116 B                                  
 --------------------------------------------------------------
 
          Ground-State Mulliken Net Atomic Charges

     Atom                 Charge (a.u.)
  ----------------------------------------
      1 S                    -0.172777
      2 C                     0.026958
      3 C                    -0.406744
      4 C                     0.378433
      5 C                    -0.254412
      6 H                     0.108225
      7 C                    -0.254412
      8 S                    -0.172777
      9 C                     0.378433
     10 C                     0.026958
     11 C                    -0.406745
     12 H                     0.118969
     13 H                     0.201349
     14 H                     0.118969
     15 H                     0.201349
     16 H                     0.108225
  ----------------------------------------
  Sum of atomic charges =     0.000000

 -----------------------------------------------------------------
                    Cartesian Multipole Moments
 -----------------------------------------------------------------
    Charge (ESU x 10^10)
                 0.0000
    Dipole Moment (Debye)
         X      -0.0000      Y      -0.0000      Z      -1.0287
       Tot       1.0287
    Quadrupole Moments (Debye-Ang)
        XX     -60.9289     XY      -0.0020     YY     -78.7659
        XZ      -0.0000     YZ       0.0000     ZZ     -67.5700
    Octopole Moments (Debye-Ang^2)
       XXX      -0.0000    XXY      -0.0000    XYY       0.0000
       YYY      -0.0000    XXZ       5.2385    XYZ      -2.4735
       YYZ       3.7090    XZZ       0.0000    YZZ      -0.0000
       ZZZ      -8.2373
    Hexadecapole Moments (Debye-Ang^3)
      XXXX   -1864.5565   XXXY      -3.2295   XXYY    -419.1020
      XYYY      -1.9021   YYYY    -106.9109   XXXZ      -0.0000
      XXYZ      -0.0000   XYYZ      -0.0000   YYYZ       0.0000
      XXZZ    -401.1453   XYZZ       1.9912   YYZZ    -124.3055
      XZZZ      -0.0000   YZZZ       0.0000   ZZZZ    -548.4582
 -----------------------------------------------------------------
 Calculating analytic gradient of the SCF energy
 Gradient of SCF Energy
            1           2           3           4           5           6
    1  -0.0019657  -0.0008244  -0.0002865  -0.0000153   0.0017251   0.0000455
    2   0.0014151  -0.0009550   0.0010549   0.0014463  -0.0007376  -0.0013215
    3  -0.0006016  -0.0034661   0.0029053   0.0036349  -0.0039897   0.0011850
            7           8           9          10          11          12
    1  -0.0017251   0.0019657   0.0000153   0.0008244   0.0002865   0.0010841
    2   0.0007376  -0.0014151  -0.0014463   0.0009550  -0.0010549   0.0001478
    3  -0.0039897  -0.0006016   0.0036349  -0.0034661   0.0029053   0.0010258
           13          14          15          16
    1  -0.0013262  -0.0010841   0.0013262  -0.0000455
    2  -0.0004418  -0.0001478   0.0004418   0.0013215
    3  -0.0006937   0.0010258  -0.0006937   0.0011850
 Max gradient component =       3.990E-03
 RMS gradient           =       1.733E-03
 Gradient time:  CPU 1.92 s  wall 1.96 s
 Geometry Optimization Parameters
   NAtoms,    NIC,     NZ,  NCons,   NDum,   NFix, NCnnct, MaxDiis
       16     111       0       1       0       0       0       0


** CONSTRAINED OPTIMIZATION IN DELOCALIZED INTERNAL COORDINATES **
   Searching for a Minimum

   Optimization Cycle:   1

                       Coordinates (Angstroms)
     ATOM                X               Y               Z
      1  S         1.6232018442   -0.1027310759    1.1464964041
      2  C         3.1384786599   -0.0299869615    0.3095167808
      3  C         2.9623438998    0.0919415610   -1.0393814475
      4  C         1.5914780973    0.1134420280   -1.4186830920
      5  C         0.7255744201    0.0092959557   -0.3551760634
      6  H         1.2530985806    0.1782385855   -2.4447081614
      7  C        -0.7255744201   -0.0092959557   -0.3551760634
      8  S        -1.6232018442    0.1027310759    1.1464964041
      9  C        -1.5914780973   -0.1134420280   -1.4186830920
     10  C        -3.1384786599    0.0299869615    0.3095167808
     11  C        -2.9623438998   -0.0919415610   -1.0393814475
     12  H        -3.7821653430   -0.1540737889   -1.7427634728
     13  H         4.0617907473   -0.0815494983    0.8658716617
     14  H         3.7821653430    0.1540737889   -1.7427634728
     15  H        -4.0617907473    0.0815494983    0.8658716617
     16  H        -1.2530985806   -0.1782385855   -2.4447081614
   Point Group: c2    Number of degrees of freedom:    22


   Energy is  -1104.838563087

              Constraints and their Current Values
                                        Value     Constraint
   Dihedral:        4   5   7   9       10.000       10.000

 Attempting to Generate Delocalized Internal Coordinates

 21 Hessian modes will be used to form the next step
  Hessian Eigenvalues:
     0.045000    0.045000    0.045000    0.045002    0.045004    0.045013
     0.159937    0.159990    0.160000    0.221280    0.237833    0.249997
     0.296078    0.314672    0.357149    0.357543    0.360899    0.380793
     0.408411    0.470750    0.505998

 Minimum Search - Taking Simple RFO Step
 Searching for Lamda that Minimizes Along All modes
 Value Taken    Lamda =  -0.00098988
 Step Taken.  Stepsize is  0.083489

                             Maximum     Tolerance    Cnvgd?
         Gradient           0.008661      0.000300      NO
         Displacement       0.058295      0.001200      NO
         Energy change     *********      0.000001      NO


 New Cartesian Coordinates Obtained by Inverse Iteration

 Displacement from previous Coordinates is:  0.269214
 ----------------------------------------------------------------
             Standard Nuclear Orientation (Angstroms)
    I     Atom           X                Y                Z
 ----------------------------------------------------------------
    1      S       1.6630356886    -0.1183574068     1.1625482741
    2      C       3.1638137087    -0.0290454605     0.2973805809
    3      C       2.9584904686     0.0840604195    -1.0524457100
    4      C       1.5774185920     0.1066678168    -1.4037173652
    5      C       0.7281965541     0.0054714794    -0.3199993813
    6      H       1.2205524459     0.1837388833    -2.4245152228
    7      C      -0.7281965541    -0.0054714794    -0.3199993813
    8      S      -1.6630356886     0.1183574068     1.1625482741
    9      C      -1.5774185920    -0.1066678168    -1.4037173652
   10      C      -3.1638137087     0.0290454605     0.2973805809
   11      C      -2.9584904686    -0.0840604195    -1.0524457100
   12      H      -3.7646271646    -0.1514393526    -1.7743204899
   13      H       4.1004211081    -0.0707251991     0.8362419238
   14      H       3.7646271646     0.1514393526    -1.7743204899
   15      H      -4.1004211081     0.0707251991     0.8362419238
   16      H      -1.2205524459    -0.1837388833    -2.4245152228
 ----------------------------------------------------------------
 Molecular Point Group                 C2    NOp =  2
 Largest Abelian Subgroup              C2    NOp =  2
 Nuclear Repulsion Energy =   631.4561115764 hartrees
 There are       43 alpha and       43 beta electrons
 Applying Cartesian multipole field
    Component          Value
    ---------          -----
     (2,0,0)        1.00000E-11
     (0,2,0)        2.00000E-11
     (0,0,2)       -3.00000E-11
 Nucleus-field energy     =     0.0000000040 hartrees
 Requested basis set is 6-31++G(d,p)
 There are 76 shells and 234 basis functions
 A cutoff of  1.0D-11 yielded   2491 shell pairs
 There are     24615 function pairs
 Smallest overlap matrix eigenvalue = 7.28E-07

 Q-Chem warning in module /project/projectdirs/jcesr/qchem/qc44/cnl_qc441/compile/cori/qc_src/stvman/mkSTV.C, line 257:

 Overlap eigenvalue is smaller than square root of threshold

 Linear dependence detected in AO basis
 Number of orthogonalized atomic orbitals = 233
 Maximum deviation from orthogonality = 4.063E-11
 Guess MOs from SCF MO coefficient file
 Reading MOs from coefficient file
 Reading MOs from coefficient file
 A restricted hybrid HF-DFT SCF calculation will be
 performed using Pulay DIIS extrapolation
 Exchange:     0.2000 Hartree-Fock + 0.0800 Slater + 0.7200 B88
 Correlation:  0.1900 VWN1RPA + 0.8100 LYP
 Using SG-1 standard quadrature grid
 SCF converges when DIIS error is below 1.0E-08
 Geometry optimization detected.  Setting ReadMinima to 0
 Setting SaveMinima to 0
 ---------------------------------------
  Cycle       Energy         DIIS Error
 ---------------------------------------
    1   -1104.7857496299      1.18E-03
    2   -1104.8379711363      3.64E-04
    3   -1104.8348120748      7.37E-04
    4   -1104.8390558204      5.42E-05
    5   -1104.8390744317      1.88E-05
    6   -1104.8390766196      7.58E-06
    7   -1104.8390770793      2.12E-06
    8   -1104.8390771084      6.58E-07
    9   -1104.8390771107      1.19E-07
   10   -1104.8390771124      3.68E-08
   11   -1104.8390771125      1.29E-08
   12   -1104.8390771129      1.83E-09 Convergence criterion met
 ---------------------------------------
 SCF time:  CPU 6.35 s  wall 5.60 s
 SCF   energy in the final basis set = -1104.8390771129
 Total energy in the final basis set = -1104.8390771129
 
 --------------------------------------------------------------
             Orbital Energies (a.u.) and Symmetries
 --------------------------------------------------------------
 
 Alpha MOs, Restricted
 -- Occupied --                  
-88.920 -88.920 -10.240 -10.240 -10.225 -10.225 -10.205 -10.205
  1 B     1 A     2 A     2 B     3 B     3 A     4 B     4 A                  
-10.204 -10.204  -7.979  -7.979  -5.944  -5.944  -5.940  -5.940
  5 B     5 A     6 B     6 A     7 B     7 A     8 B     8 A                  
 -5.937  -5.937  -0.900  -0.878  -0.772  -0.750  -0.737  -0.706
  9 A     9 B    10 A    10 B    11 A    12 A    11 B    12 B                  
 -0.604  -0.580  -0.554  -0.533  -0.528  -0.477  -0.422  -0.419
 13 A    14 A    13 B    14 B    15 A    15 B    16 A    17 A                  
 -0.407  -0.403  -0.402  -0.377  -0.374  -0.360  -0.343  -0.284
 16 B    17 B    18 A    18 B    19 A    20 A    19 B    20 B                  
 -0.265  -0.257  -0.212
 21 B    21 A    22 A                                                          
 -- Virtual --                   
 -0.059  -0.014  -0.003  -0.000   0.005   0.014   0.019   0.026
 22 B    23 A    24 A    23 B    25 A    26 A    24 B    25 B                  
  0.027   0.036   0.040   0.045   0.051   0.061   0.066   0.070
 27 A    28 A    26 B    29 A    27 B    30 A    28 B    29 B                  
  0.079   0.084   0.086   0.093   0.101   0.102   0.107   0.113
 31 A    30 B    31 B    32 A    33 A    32 B    34 A    35 A                  
  0.115   0.123   0.127   0.128   0.137   0.137   0.144   0.146
 33 B    36 A    34 B    37 A    35 B    38 A    39 A    36 B                  
  0.148   0.156   0.157   0.160   0.166   0.178   0.184   0.189
 40 A    37 B    41 A    38 B    39 B    40 B    42 A    43 A                  
  0.190   0.193   0.196   0.206   0.209   0.215   0.229   0.239
 41 B    42 B    44 A    43 B    45 A    46 A    44 B    47 A                  
  0.260   0.260   0.266   0.273   0.285   0.296   0.302   0.309
 45 B    48 A    46 B    49 A    47 B    48 B    50 A    49 B                  
  0.313   0.314   0.337   0.345   0.364   0.380   0.384   0.425
 51 A    52 A    50 B    53 A    51 B    54 A    52 B    53 B                  
  0.443   0.465   0.492   0.535   0.548   0.562   0.566   0.576
 55 A    56 A    54 B    57 A    55 B    56 B    58 A    57 B                  
  0.594   0.624   0.646   0.653   0.656   0.667   0.673   0.676
 59 A    60 A    58 B    61 A    59 B    62 A    63 A    60 B                  
  0.702   0.714   0.722   0.722   0.732   0.753   0.764   0.791
 64 A    61 B    65 A    62 B    63 B    66 A    64 B    67 A                  
  0.806   0.814   0.831   0.840   0.884   0.923   0.928   0.944
 65 B    66 B    68 A    67 B    69 A    68 B    70 A    71 A                  
  0.956   0.957   0.971   0.981   0.985   1.008   1.011   1.012
 72 A    69 B    70 B    71 B    73 A    74 A    72 B    73 B                  
  1.024   1.031   1.079   1.083   1.107   1.115   1.136   1.169
 75 A    76 A    77 A    74 B    78 A    75 B    76 B    79 A                  
  1.187   1.187   1.205   1.246   1.261   1.339   1.341   1.348
 80 A    77 B    78 B    81 A    79 B    80 B    82 A    81 B                  
  1.355   1.369   1.371   1.442   1.497   1.529   1.550   1.599
 83 A    84 A    82 B    83 B    85 A    84 B    86 A    85 B                  
  1.638   1.693   1.710   1.780   1.856   1.872   1.893   1.916
 86 B    87 A    87 B    88 A    89 A    90 A    88 B    89 B                  
  1.922   1.978   1.993   2.009   2.019   2.071   2.091   2.125
 91 A    92 A    90 B    91 B    93 A    94 A    92 B    95 A                  
  2.125   2.167   2.181   2.244   2.246   2.291   2.292   2.360
 93 B    96 A    94 B    95 B    97 A    98 A    96 B    97 B                  
  2.366   2.415   2.454   2.475   2.481   2.494   2.508   2.532
 99 A    98 B   100 A    99 B   101 A   102 A   100 B   101 B                  
  2.545   2.564   2.574   2.596   2.685   2.688   2.721   2.755
103 A   104 A   105 A   102 B   103 B   104 B   106 A   107 A                  
  2.801   2.854   2.951   2.977   3.139   3.215   3.270   3.272
105 B   108 A   106 B   107 B   109 A   108 B   110 A   109 B                  
  3.393   3.434   3.706   3.756   3.941   4.021   4.227   4.297
111 A   110 B   112 A   111 B   113 A   112 B   114 A   115 A                  
  4.308   4.334   4.399   4.547   4.644   4.733
113 B   114 B   116 A   115 B   117 A   116 B                                  
 
 Beta MOs, Restricted
 -- Occupied --                  
-88.920 -88.920 -10.240 -10.240 -10.225 -10.225 -10.205 -10.205
  1 B     1 A     2 A     2 B     3 B     3 A     4 B     4 A                  
-10.204 -10.204  -7.979  -7.979  -5.944  -5.944  -5.940  -5.940
  5 B     5 A     6 B     6 A     7 B     7 A     8 B     8 A                  
 -5.937  -5.937  -0.900  -0.878  -0.772  -0.750  -0.737  -0.706
  9 A     9 B    10 A    10 B    11 A    12 A    11 B    12 B                  
 -0.604  -0.580  -0.554  -0.533  -0.528  -0.477  -0.422  -0.419
 13 A    14 A    13 B    14 B    15 A    15 B    16 A    17 A                  
 -0.407  -0.403  -0.402  -0.377  -0.374  -0.360  -0.343  -0.284
 16 B    17 B    18 A    18 B    19 A    20 A    19 B    20 B                  
 -0.265  -0.257  -0.212
 21 B    21 A    22 A                                                          
 -- Virtual --                   
 -0.059  -0.014  -0.003  -0.000   0.005   0.014   0.019   0.026
 22 B    23 A    24 A    23 B    25 A    26 A    24 B    25 B                  
  0.027   0.036   0.040   0.045   0.051   0.061   0.066   0.070
 27 A    28 A    26 B    29 A    27 B    30 A    28 B    29 B                  
  0.079   0.084   0.086   0.093   0.101   0.102   0.107   0.113
 31 A    30 B    31 B    32 A    33 A    32 B    34 A    35 A                  
  0.115   0.123   0.127   0.128   0.137   0.137   0.144   0.146
 33 B    36 A    34 B    37 A    35 B    38 A    39 A    36 B                  
  0.148   0.156   0.157   0.160   0.166   0.178   0.184   0.189
 40 A    37 B    41 A    38 B    39 B    40 B    42 A    43 A                  
  0.190   0.193   0.196   0.206   0.209   0.215   0.229   0.239
 41 B    42 B    44 A    43 B    45 A    46 A    44 B    47 A                  
  0.260   0.260   0.266   0.273   0.285   0.296   0.302   0.309
 45 B    48 A    46 B    49 A    47 B    48 B    50 A    49 B                  
  0.313   0.314   0.337   0.345   0.364   0.380   0.384   0.425
 51 A    52 A    50 B    53 A    51 B    54 A    52 B    53 B                  
  0.443   0.465   0.492   0.535   0.548   0.562   0.566   0.576
 55 A    56 A    54 B    57 A    55 B    56 B    58 A    57 B                  
  0.594   0.624   0.646   0.653   0.656   0.667   0.673   0.676
 59 A    60 A    58 B    61 A    59 B    62 A    63 A    60 B                  
  0.702   0.714   0.722   0.722   0.732   0.753   0.764   0.791
 64 A    61 B    65 A    62 B    63 B    66 A    64 B    67 A                  
  0.806   0.814   0.831   0.840   0.884   0.923   0.928   0.944
 65 B    66 B    68 A    67 B    69 A    68 B    70 A    71 A                  
  0.956   0.957   0.971   0.981   0.985   1.008   1.011   1.012
 72 A    69 B    70 B    71 B    73 A    74 A    72 B    73 B                  
  1.024   1.031   1.079   1.083   1.107   1.115   1.136   1.169
 75 A    76 A    77 A    74 B    78 A    75 B    76 B    79 A                  
  1.187   1.187   1.205   1.246   1.261   1.339   1.341   1.348
 80 A    77 B    78 B    81 A    79 B    80 B    82 A    81 B                  
  1.355   1.369   1.371   1.442   1.497   1.529   1.550   1.599
 83 A    84 A    82 B    83 B    85 A    84 B    86 A    85 B                  
  1.638   1.693   1.710   1.780   1.856   1.872   1.893   1.916
 86 B    87 A    87 B    88 A    89 A    90 A    88 B    89 B                  
  1.922   1.978   1.993   2.009   2.019   2.071   2.091   2.125
 91 A    92 A    90 B    91 B    93 A    94 A    92 B    95 A                  
  2.125   2.167   2.181   2.244   2.246   2.291   2.292   2.360
 93 B    96 A    94 B    95 B    97 A    98 A    96 B    97 B                  
  2.366   2.415   2.454   2.475   2.481   2.494   2.508   2.532
 99 A    98 B   100 A    99 B   101 A   102 A   100 B   101 B                  
  2.545   2.564   2.574   2.596   2.685   2.688   2.721   2.755
103 A   104 A   105 A   102 B   103 B   104 B   106 A   107 A                  
  2.801   2.854   2.951   2.977   3.139   3.215   3.270   3.272
105 B   108 A   106 B   107 B   109 A   108 B   110 A   109 B                  
  3.393   3.434   3.706   3.756   3.941   4.021   4.227   4.297
111 A   110 B   112 A   111 B   113 A   112 B   114 A   115 A                  
  4.308   4.334   4.399   4.547   4.644   4.733
113 B   114 B   116 A   115 B   117 A   116 B                                  
 --------------------------------------------------------------
 
          Ground-State Mulliken Net Atomic Charges

     Atom                 Charge (a.u.)
  ----------------------------------------
      1 S                    -0.145850
      2 C                     0.013598
      3 C                    -0.396448
      4 C                     0.342914
      5 C                    -0.240890
      6 H                     0.105992
      7 C                    -0.240890
      8 S                    -0.145850
      9 C                     0.342914
     10 C                     0.013598
     11 C                    -0.396448
     12 H                     0.120174
     13 H                     0.200510
     14 H                     0.120174
     15 H                     0.200510
     16 H                     0.105992
  ----------------------------------------
  Sum of atomic charges =     0.000000

 -----------------------------------------------------------------
                    Cartesian Multipole Moments
 -----------------------------------------------------------------
    Charge (ESU x 10^10)
                 0.0000
    Dipole Moment (Debye)
         X      -0.0000      Y      -0.0000      Z      -1.0495
       Tot       1.0495
    Quadrupole Moments (Debye-Ang)
        XX     -60.8106     XY       0.0916     YY     -78.8771
        XZ       0.0000     YZ       0.0000     ZZ     -67.6982
    Octopole Moments (Debye-Ang^2)
       XXX      -0.0000    XXY      -0.0000    XYY      -0.0000
       YYY      -0.0000    XXZ       4.6301    XYZ      -2.4798
       YYZ       3.1201    XZZ      -0.0000    YZZ      -0.0000
       ZZZ     -10.3102
    Hexadecapole Moments (Debye-Ang^3)
      XXXX   -1883.7955   XXXY       1.6793   XXYY    -424.7280
      XYYY       1.7552   YYYY    -107.5816   XXXZ       0.0000
      XXYZ       0.0000   XYYZ      -0.0000   YYYZ       0.0000
      XXZZ    -406.6321   XYZZ       3.2752   YYZZ    -124.8887
      XZZZ       0.0000   YZZZ       0.0000   ZZZZ    -552.4625
 -----------------------------------------------------------------
 Calculating analytic gradient of the SCF energy
 Gradient of SCF Energy
            1           2           3           4           5           6
    1   0.0003049   0.0004466   0.0006752  -0.0002643   0.0003193  -0.0002331
    2   0.0000430   0.0000341   0.0001228   0.0010253  -0.0005309  -0.0008818
    3   0.0004058   0.0000114   0.0004046   0.0007777  -0.0013750  -0.0001854
            7           8           9          10          11          12
    1  -0.0003193  -0.0003049   0.0002643  -0.0004466  -0.0006752  -0.0000897
    2   0.0005309  -0.0000430  -0.0010253  -0.0000341  -0.0001228   0.0000195
    3  -0.0013750   0.0004058   0.0007777   0.0000114   0.0004046  -0.0000253
           13          14          15          16
    1   0.0001580   0.0000897  -0.0001580   0.0002331
    2  -0.0001657  -0.0000195   0.0001657   0.0008818
    3  -0.0000138  -0.0000253  -0.0000138  -0.0001854
 Max gradient component =       1.375E-03
 RMS gradient           =       5.010E-04
 Gradient time:  CPU 1.96 s  wall 1.95 s
 Geometry Optimization Parameters
   NAtoms,    NIC,     NZ,  NCons,   NDum,   NFix, NCnnct, MaxDiis
       16     111       0       1       0       0       0       0

 Cartesian Hessian Update
 Hessian Updated using BFGS Update


** CONSTRAINED OPTIMIZATION IN DELOCALIZED INTERNAL COORDINATES **
   Searching for a Minimum

   Optimization Cycle:   2

                       Coordinates (Angstroms)
     ATOM                X               Y               Z
      1  S         1.6630356886   -0.1183574068    1.1625482741
      2  C         3.1638137087   -0.0290454605    0.2973805809
      3  C         2.9584904686    0.0840604195   -1.0524457100
      4  C         1.5774185920    0.1066678168   -1.4037173652
      5  C         0.7281965541    0.0054714794   -0.3199993813
      6  H         1.2205524459    0.1837388833   -2.4245152228
      7  C        -0.7281965541   -0.0054714794   -0.3199993813
      8  S        -1.6630356886    0.1183574068    1.1625482741
      9  C        -1.5774185920   -0.1066678168   -1.4037173652
     10  C        -3.1638137087    0.0290454605    0.2973805809
     11  C        -2.9584904686   -0.0840604195   -1.0524457100
     12  H        -3.7646271646   -0.1514393526   -1.7743204899
     13  H         4.1004211081   -0.0707251991    0.8362419238
     14  H         3.7646271646    0.1514393526   -1.7743204899
     15  H        -4.1004211081    0.0707251991    0.8362419238
     16  H        -1.2205524459   -0.1837388833   -2.4245152228
   Point Group: c2    Number of degrees of freedom:    22


   Energy is  -1104.839077113

              Constraints and their Current Values
                                        Value     Constraint
   Dihedral:        4   5   7   9       10.000       10.000
 Hessian Updated using BFGS Update

 21 Hessian modes will be used to form the next step
  Hessian Eigenvalues:
     0.039240    0.045000    0.045000    0.045002    0.045007    0.046389
     0.159173    0.159984    0.160069    0.220591    0.223122    0.250812
     0.304014    0.315268    0.357300    0.358172    0.361485    0.390182
     0.434442    0.470733    0.508901

 Minimum Search - Taking Simple RFO Step
 Searching for Lamda that Minimizes Along All modes
 Value Taken    Lamda =  -0.00007781
 Step Taken.  Stepsize is  0.035143

                             Maximum     Tolerance    Cnvgd?
         Gradient           0.002174      0.000300      NO
         Displacement       0.024047      0.001200      NO
         Energy change     -0.000514      0.000001      NO


 New Cartesian Coordinates Obtained by Inverse Iteration

 Displacement from previous Coordinates is:  0.068996
 ----------------------------------------------------------------
             Standard Nuclear Orientation (Angstroms)
    I     Atom           X                Y                Z
 ----------------------------------------------------------------
    1      S       1.6660127607    -0.1237442751     1.1660646394
    2      C       3.1623129158    -0.0321602720     0.2938920496
    3      C       2.9523737597     0.0825465813    -1.0555561295
    4      C       1.5710360466     0.1071042158    -1.4008947341
    5      C       0.7272886265     0.0054808053    -0.3120395491
    6      H       1.2108444525     0.1955316917    -2.4194285338
    7      C      -0.7272886265    -0.0054808053    -0.3120395491
    8      S      -1.6660127607     0.1237442751     1.1660646394
    9      C      -1.5710360466    -0.1071042158    -1.4008947341
   10      C      -3.1623129158     0.0321602720     0.2938920496
   11      C      -2.9523737597    -0.0825465813    -1.0555561295
   12      H      -3.7556269284    -0.1537986374    -1.7803195568
   13      H       4.1008287064    -0.0720331714     0.8294544239
   14      H       3.7556269284     0.1537986374    -1.7803195568
   15      H      -4.1008287064     0.0720331714     0.8294544239
   16      H      -1.2108444525    -0.1955316917    -2.4194285338
 ----------------------------------------------------------------
 Molecular Point Group                 C2    NOp =  2
 Largest Abelian Subgroup              C2    NOp =  2
 Nuclear Repulsion Energy =   631.6061674280 hartrees
 There are       43 alpha and       43 beta electrons
 Applying Cartesian multipole field
    Component          Value
    ---------          -----
     (2,0,0)        1.00000E-11
     (0,2,0)        2.00000E-11
     (0,0,2)       -3.00000E-11
 Nucleus-field energy     =     0.0000000039 hartrees
 Requested basis set is 6-31++G(d,p)
 There are 76 shells and 234 basis functions
 A cutoff of  1.0D-11 yielded   2495 shell pairs
 There are     24651 function pairs
 Smallest overlap matrix eigenvalue = 7.14E-07

 Q-Chem warning in module /project/projectdirs/jcesr/qchem/qc44/cnl_qc441/compile/cori/qc_src/stvman/mkSTV.C, line 257:

 Overlap eigenvalue is smaller than square root of threshold

 Linear dependence detected in AO basis
 Number of orthogonalized atomic orbitals = 233
 Maximum deviation from orthogonality = 1.278E-10
 Guess MOs from SCF MO coefficient file
 Reading MOs from coefficient file
 Reading MOs from coefficient file
 A restricted hybrid HF-DFT SCF calculation will be
 performed using Pulay DIIS extrapolation
 Exchange:     0.2000 Hartree-Fock + 0.0800 Slater + 0.7200 B88
 Correlation:  0.1900 VWN1RPA + 0.8100 LYP
 Using SG-1 standard quadrature grid
 SCF converges when DIIS error is below 1.0E-08
 Geometry optimization detected.  Setting ReadMinima to 0
 Setting SaveMinima to 0
 ---------------------------------------
  Cycle       Energy         DIIS Error
 ---------------------------------------
    1   -1104.8358063430      3.07E-04
    2   -1104.8390898106      6.75E-05
    3   -1104.8389747673      1.40E-04
    4   -1104.8391256734      1.20E-05
    5   -1104.8391265945      4.85E-06
    6   -1104.8391267512      1.69E-06
    7   -1104.8391267723      5.04E-07
    8   -1104.8391267754      1.58E-07
    9   -1104.8391267759      2.93E-08
   10   -1104.8391267754      9.70E-09 Convergence criterion met
 ---------------------------------------
 SCF time:  CPU 5.38 s  wall 4.70 s
 SCF   energy in the final basis set = -1104.8391267754
 Total energy in the final basis set = -1104.8391267754
 
 --------------------------------------------------------------
             Orbital Energies (a.u.) and Symmetries
 --------------------------------------------------------------
 
 Alpha MOs, Restricted
 -- Occupied --                  
-88.920 -88.920 -10.240 -10.239 -10.225 -10.225 -10.205 -10.205
  1 B     1 A     2 A     2 B     3 B     3 A     4 B     4 A                  
-10.203 -10.203  -7.980  -7.980  -5.944  -5.944  -5.940  -5.940
  5 B     5 A     6 B     6 A     7 B     7 A     8 B     8 A                  
 -5.937  -5.937  -0.900  -0.878  -0.772  -0.750  -0.737  -0.705
  9 A     9 B    10 A    10 B    11 A    12 A    11 B    12 B                  
 -0.604  -0.580  -0.553  -0.533  -0.528  -0.477  -0.422  -0.419
 13 A    14 A    13 B    14 B    15 A    15 B    16 A    17 A                  
 -0.407  -0.403  -0.402  -0.377  -0.374  -0.360  -0.343  -0.284
 16 B    17 B    18 A    18 B    19 A    20 A    19 B    20 B                  
 -0.266  -0.258  -0.211
 21 B    21 A    22 A                                                          
 -- Virtual --                   
 -0.059  -0.014  -0.003  -0.000   0.005   0.014   0.019   0.026
 22 B    23 A    24 A    23 B    25 A    26 A    24 B    25 B                  
  0.026   0.036   0.040   0.045   0.051   0.061   0.066   0.070
 27 A    28 A    26 B    29 A    27 B    30 A    28 B    29 B                  
  0.079   0.084   0.086   0.093   0.101   0.102   0.107   0.113
 31 A    30 B    31 B    32 A    33 A    32 B    34 A    35 A                  
  0.115   0.123   0.127   0.128   0.137   0.138   0.144   0.146
 33 B    36 A    34 B    37 A    38 A    35 B    39 A    36 B                  
  0.148   0.156   0.157   0.160   0.166   0.178   0.184   0.189
 40 A    37 B    41 A    38 B    39 B    40 B    42 A    43 A                  
  0.190   0.193   0.197   0.206   0.210   0.215   0.229   0.239
 41 B    42 B    44 A    43 B    45 A    46 A    44 B    47 A                  
  0.259   0.260   0.266   0.273   0.285   0.295   0.302   0.310
 48 A    45 B    46 B    49 A    47 B    48 B    50 A    49 B                  
  0.313   0.314   0.337   0.345   0.364   0.380   0.384   0.426
 51 A    52 A    50 B    53 A    51 B    54 A    52 B    53 B                  
  0.443   0.465   0.492   0.534   0.547   0.562   0.566   0.575
 55 A    56 A    54 B    57 A    55 B    56 B    58 A    57 B                  
  0.595   0.625   0.646   0.653   0.656   0.667   0.672   0.674
 59 A    60 A    58 B    61 A    59 B    62 A    63 A    60 B                  
  0.703   0.715   0.721   0.722   0.733   0.754   0.764   0.791
 64 A    61 B    62 B    65 A    63 B    66 A    64 B    67 A                  
  0.806   0.814   0.831   0.841   0.884   0.923   0.929   0.945
 65 B    66 B    68 A    67 B    69 A    68 B    70 A    71 A                  
  0.955   0.956   0.971   0.981   0.985   1.008   1.012   1.013
 72 A    69 B    70 B    71 B    73 A    74 A    72 B    73 B                  
  1.024   1.031   1.078   1.084   1.106   1.115   1.137   1.169
 75 A    76 A    77 A    74 B    78 A    75 B    76 B    79 A                  
  1.188   1.188   1.206   1.246   1.260   1.337   1.342   1.351
 80 A    77 B    78 B    81 A    79 B    80 B    82 A    81 B                  
  1.355   1.369   1.370   1.443   1.497   1.529   1.550   1.597
 83 A    84 A    82 B    83 B    85 A    84 B    86 A    85 B                  
  1.640   1.693   1.711   1.782   1.856   1.873   1.894   1.915
 86 B    87 A    87 B    88 A    89 A    90 A    88 B    89 B                  
  1.923   1.979   1.994   2.010   2.019   2.073   2.090   2.125
 91 A    92 A    90 B    91 B    93 A    94 A    92 B    93 B                  
  2.127   2.168   2.182   2.245   2.246   2.293   2.294   2.360
 95 A    96 A    94 B    95 B    97 A    98 A    96 B    97 B                  
  2.366   2.415   2.454   2.476   2.479   2.497   2.508   2.533
 99 A    98 B   100 A    99 B   101 A   102 A   100 B   101 B                  
  2.544   2.565   2.574   2.597   2.685   2.688   2.722   2.755
103 A   104 A   105 A   102 B   103 B   104 B   106 A   107 A                  
  2.803   2.855   2.950   2.977   3.140   3.216   3.270   3.272
105 B   108 A   106 B   107 B   109 A   108 B   110 A   109 B                  
  3.394   3.434   3.707   3.757   3.941   4.021   4.228   4.298
111 A   110 B   112 A   111 B   113 A   112 B   114 A   115 A                  
  4.307   4.334   4.399   4.547   4.645   4.733
113 B   114 B   116 A   115 B   117 A   116 B                                  
 
 Beta MOs, Restricted
 -- Occupied --                  
-88.920 -88.920 -10.240 -10.239 -10.225 -10.225 -10.205 -10.205
  1 B     1 A     2 A     2 B     3 B     3 A     4 B     4 A                  
-10.203 -10.203  -7.980  -7.980  -5.944  -5.944  -5.940  -5.940
  5 B     5 A     6 B     6 A     7 B     7 A     8 B     8 A                  
 -5.937  -5.937  -0.900  -0.878  -0.772  -0.750  -0.737  -0.705
  9 A     9 B    10 A    10 B    11 A    12 A    11 B    12 B                  
 -0.604  -0.580  -0.553  -0.533  -0.528  -0.477  -0.422  -0.419
 13 A    14 A    13 B    14 B    15 A    15 B    16 A    17 A                  
 -0.407  -0.403  -0.402  -0.377  -0.374  -0.360  -0.343  -0.284
 16 B    17 B    18 A    18 B    19 A    20 A    19 B    20 B                  
 -0.266  -0.258  -0.211
 21 B    21 A    22 A                                                          
 -- Virtual --                   
 -0.059  -0.014  -0.003  -0.000   0.005   0.014   0.019   0.026
 22 B    23 A    24 A    23 B    25 A    26 A    24 B    25 B                  
  0.026   0.036   0.040   0.045   0.051   0.061   0.066   0.070
 27 A    28 A    26 B    29 A    27 B    30 A    28 B    29 B                  
  0.079   0.084   0.086   0.093   0.101   0.102   0.107   0.113
 31 A    30 B    31 B    32 A    33 A    32 B    34 A    35 A                  
  0.115   0.123   0.127   0.128   0.137   0.138   0.144   0.146
 33 B    36 A    34 B    37 A    38 A    35 B    39 A    36 B                  
  0.148   0.156   0.157   0.160   0.166   0.178   0.184   0.189
 40 A    37 B    41 A    38 B    39 B    40 B    42 A    43 A                  
  0.190   0.193   0.197   0.206   0.210   0.215   0.229   0.239
 41 B    42 B    44 A    43 B    45 A    46 A    44 B    47 A                  
  0.259   0.260   0.266   0.273   0.285   0.295   0.302   0.310
 48 A    45 B    46 B    49 A    47 B    48 B    50 A    49 B                  
  0.313   0.314   0.337   0.345   0.364   0.380   0.384   0.426
 51 A    52 A    50 B    53 A    51 B    54 A    52 B    53 B                  
  0.443   0.465   0.492   0.534   0.547   0.562   0.566   0.575
 55 A    56 A    54 B    57 A    55 B    56 B    58 A    57 B                  
  0.595   0.625   0.646   0.653   0.656   0.667   0.672   0.674
 59 A    60 A    58 B    61 A    59 B    62 A    63 A    60 B                  
  0.703   0.715   0.721   0.722   0.733   0.754   0.764   0.791
 64 A    61 B    62 B    65 A    63 B    66 A    64 B    67 A                  
  0.806   0.814   0.831   0.841   0.884   0.923   0.929   0.945
 65 B    66 B    68 A    67 B    69 A    68 B    70 A    71 A                  
  0.955   0.956   0.971   0.981   0.985   1.008   1.012   1.013
 72 A    69 B    70 B    71 B    73 A    74 A    72 B    73 B                  
  1.024   1.031   1.078   1.084   1.106   1.115   1.137   1.169
 75 A    76 A    77 A    74 B    78 A    75 B    76 B    79 A                  
  1.188   1.188   1.206   1.246   1.260   1.337   1.342   1.351
 80 A    77 B    78 B    81 A    79 B    80 B    82 A    81 B                  
  1.355   1.369   1.370   1.443   1.497   1.529   1.550   1.597
 83 A    84 A    82 B    83 B    85 A    84 B    86 A    85 B                  
  1.640   1.693   1.711   1.782   1.856   1.873   1.894   1.915
 86 B    87 A    87 B    88 A    89 A    90 A    88 B    89 B                  
  1.923   1.979   1.994   2.010   2.019   2.073   2.090   2.125
 91 A    92 A    90 B    91 B    93 A    94 A    92 B    93 B                  
  2.127   2.168   2.182   2.245   2.246   2.293   2.294   2.360
 95 A    96 A    94 B    95 B    97 A    98 A    96 B    97 B                  
  2.366   2.415   2.454   2.476   2.479   2.497   2.508   2.533
 99 A    98 B   100 A    99 B   101 A   102 A   100 B   101 B                  
  2.544   2.565   2.574   2.597   2.685   2.688   2.722   2.755
103 A   104 A   105 A   102 B   103 B   104 B   106 A   107 A                  
  2.803   2.855   2.950   2.977   3.140   3.216   3.270   3.272
105 B   108 A   106 B   107 B   109 A   108 B   110 A   109 B                  
  3.394   3.434   3.707   3.757   3.941   4.021   4.228   4.298
111 A   110 B   112 A   111 B   113 A   112 B   114 A   115 A                  
  4.307   4.334   4.399   4.547   4.645   4.733
113 B   114 B   116 A   115 B   117 A   116 B                                  
 --------------------------------------------------------------
 
          Ground-State Mulliken Net Atomic Charges

     Atom                 Charge (a.u.)
  ----------------------------------------
      1 S                    -0.141455
      2 C                     0.012709
      3 C                    -0.397164
      4 C                     0.345433
      5 C                    -0.245564
      6 H                     0.105971
      7 C                    -0.245564
      8 S                    -0.141455
      9 C                     0.345433
     10 C                     0.012709
     11 C                    -0.397164
     12 H                     0.119989
     13 H                     0.200081
     14 H                     0.119989
     15 H                     0.200081
     16 H                     0.105971
  ----------------------------------------
  Sum of atomic charges =     0.000000

 -----------------------------------------------------------------
                    Cartesian Multipole Moments
 -----------------------------------------------------------------
    Charge (ESU x 10^10)
                -0.0000
    Dipole Moment (Debye)
         X      -0.0000      Y      -0.0000      Z      -1.0448
       Tot       1.0448
    Quadrupole Moments (Debye-Ang)
        XX     -60.9081     XY       0.1384     YY     -78.8573
        XZ       0.0000     YZ       0.0000     ZZ     -67.6795
    Octopole Moments (Debye-Ang^2)
       XXX      -0.0000    XXY       0.0000    XYY      -0.0000
       YYY      -0.0000    XXZ       4.4342    XYZ      -2.5839
       YYZ       2.9781    XZZ       0.0000    YZZ      -0.0000
       ZZZ     -10.6664
    Hexadecapole Moments (Debye-Ang^3)
      XXXX   -1882.5790   XXXY       3.2913   XXYY    -424.1239
      XYYY       3.0493   YYYY    -107.8113   XXXZ       0.0000
      XXYZ       0.0000   XYYZ      -0.0000   YYYZ       0.0000
      XXZZ    -406.3578   XYZZ       3.8755   YYZZ    -124.9198
      XZZZ      -0.0000   YZZZ       0.0000   ZZZZ    -553.0613
 -----------------------------------------------------------------
 Calculating analytic gradient of the SCF energy
 Gradient of SCF Energy
            1           2           3           4           5           6
    1   0.0001236  -0.0002000   0.0001065  -0.0000546   0.0000197  -0.0000252
    2  -0.0000496   0.0001343  -0.0000792   0.0005203  -0.0002992  -0.0005477
    3   0.0007303   0.0000574  -0.0002061   0.0000677  -0.0003410  -0.0002079
            7           8           9          10          11          12
    1  -0.0000197  -0.0001236   0.0000546   0.0002000  -0.0001065  -0.0000336
    2   0.0002992   0.0000496  -0.0005203  -0.0001343   0.0000792  -0.0000626
    3  -0.0003410   0.0007303   0.0000677   0.0000574  -0.0002061  -0.0001263
           13          14          15          16
    1   0.0000702   0.0000336  -0.0000702   0.0000252
    2  -0.0000733   0.0000626   0.0000733   0.0005477
    3   0.0000259  -0.0001263   0.0000259  -0.0002079
 Max gradient component =       7.303E-04
 RMS gradient           =       2.527E-04
 Gradient time:  CPU 1.98 s  wall 1.91 s
 Geometry Optimization Parameters
   NAtoms,    NIC,     NZ,  NCons,   NDum,   NFix, NCnnct, MaxDiis
       16     111       0       1       0       0       0       0

 Cartesian Hessian Update
 Hessian Updated using BFGS Update


** CONSTRAINED OPTIMIZATION IN DELOCALIZED INTERNAL COORDINATES **
   Searching for a Minimum

   Optimization Cycle:   3

                       Coordinates (Angstroms)
     ATOM                X               Y               Z
      1  S         1.6660127607   -0.1237442751    1.1660646394
      2  C         3.1623129158   -0.0321602720    0.2938920496
      3  C         2.9523737597    0.0825465813   -1.0555561295
      4  C         1.5710360466    0.1071042158   -1.4008947341
      5  C         0.7272886265    0.0054808053   -0.3120395491
      6  H         1.2108444525    0.1955316917   -2.4194285338
      7  C        -0.7272886265   -0.0054808053   -0.3120395491
      8  S        -1.6660127607    0.1237442751    1.1660646394
      9  C        -1.5710360466   -0.1071042158   -1.4008947341
     10  C        -3.1623129158    0.0321602720    0.2938920496
     11  C        -2.9523737597   -0.0825465813   -1.0555561295
     12  H        -3.7556269284   -0.1537986374   -1.7803195568
     13  H         4.1008287064   -0.0720331714    0.8294544239
     14  H         3.7556269284    0.1537986374   -1.7803195568
     15  H        -4.1008287064    0.0720331714    0.8294544239
     16  H        -1.2108444525   -0.1955316917   -2.4194285338
   Point Group: c2    Number of degrees of freedom:    22


   Energy is  -1104.839126775

              Constraints and their Current Values
                                        Value     Constraint
   Dihedral:        4   5   7   9       10.000       10.000
 Hessian Updated using BFGS Update

 21 Hessian modes will be used to form the next step
  Hessian Eigenvalues:
     0.021193    0.045000    0.045001    0.045006    0.045239    0.046448
     0.159558    0.160024    0.161228    0.220953    0.239836    0.286991
     0.296654    0.316201    0.357167    0.358501    0.361675    0.391368
     0.459220    0.478595    0.515105

 Minimum Search - Taking Simple RFO Step
 Searching for Lamda that Minimizes Along All modes
 Value Taken    Lamda =  -0.00003689
 Step Taken.  Stepsize is  0.039082

                             Maximum     Tolerance    Cnvgd?
         Gradient           0.000765      0.000300      NO
         Displacement       0.024285      0.001200      NO
         Energy change     -0.000050      0.000001      NO


 New Cartesian Coordinates Obtained by Inverse Iteration

 Displacement from previous Coordinates is:  0.056735
 ----------------------------------------------------------------
             Standard Nuclear Orientation (Angstroms)
    I     Atom           X                Y                Z
 ----------------------------------------------------------------
    1      S       1.6675753444    -0.1292316609     1.1651822226
    2      C       3.1628697426    -0.0368359121     0.2921220195
    3      C       2.9506467357     0.0828202380    -1.0564237336
    4      C       1.5691214032     0.1102148582    -1.3995567017
    5      C       0.7269479821     0.0068651762    -0.3092177942
    6      H       1.2078749629     0.2123592579    -2.4160762918
    7      C      -0.7269479821    -0.0068651762    -0.3092177942
    8      S      -1.6675753444     0.1292316609     1.1651822226
    9      C      -1.5691214032    -0.1102148582    -1.3995567017
   10      C      -3.1628697426     0.0368359121     0.2921220195
   11      C      -2.9506467357    -0.0828202380    -1.0564237336
   12      H      -3.7530472842    -0.1580112443    -1.7815014618
   13      H       4.1018348261    -0.0770518730     0.8266443506
   14      H       3.7530472842     0.1580112443    -1.7815014618
   15      H      -4.1018348261     0.0770518730     0.8266443506
   16      H      -1.2078749629    -0.2123592579    -2.4160762918
 ----------------------------------------------------------------
 Molecular Point Group                 C2    NOp =  2
 Largest Abelian Subgroup              C2    NOp =  2
 Nuclear Repulsion Energy =   631.7315404935 hartrees
 There are       43 alpha and       43 beta electrons
 Applying Cartesian multipole field
    Component          Value
    ---------          -----
     (2,0,0)        1.00000E-11
     (0,2,0)        2.00000E-11
     (0,0,2)       -3.00000E-11
 Nucleus-field energy     =     0.0000000039 hartrees
 Requested basis set is 6-31++G(d,p)
 There are 76 shells and 234 basis functions
 A cutoff of  1.0D-11 yielded   2495 shell pairs
 There are     24651 function pairs
 Smallest overlap matrix eigenvalue = 7.01E-07

 Q-Chem warning in module /project/projectdirs/jcesr/qchem/qc44/cnl_qc441/compile/cori/qc_src/stvman/mkSTV.C, line 257:

 Overlap eigenvalue is smaller than square root of threshold

 Linear dependence detected in AO basis
 Number of orthogonalized atomic orbitals = 233
 Maximum deviation from orthogonality = 7.297E-11
 Guess MOs from SCF MO coefficient file
 Reading MOs from coefficient file
 Reading MOs from coefficient file
 A restricted hybrid HF-DFT SCF calculation will be
 performed using Pulay DIIS extrapolation
 Exchange:     0.2000 Hartree-Fock + 0.0800 Slater + 0.7200 B88
 Correlation:  0.1900 VWN1RPA + 0.8100 LYP
 Using SG-1 standard quadrature grid
 SCF converges when DIIS error is below 1.0E-08
 Geometry optimization detected.  Setting ReadMinima to 0
 Setting SaveMinima to 0
 ---------------------------------------
  Cycle       Energy         DIIS Error
 ---------------------------------------
    1   -1104.8402647337      2.11E-04
    2   -1104.8391419482      3.16E-05
    3   -1104.8391199001      6.25E-05
    4   -1104.8391503502      7.71E-06
    5   -1104.8391507480      3.08E-06
    6   -1104.8391508015      1.55E-06
    7   -1104.8391508202      3.28E-07
    8   -1104.8391508210      1.19E-07
    9   -1104.8391508217      1.86E-08
   10   -1104.8391508222      6.72E-09 Convergence criterion met
 ---------------------------------------
 SCF time:  CPU 5.33 s  wall 4.67 s
 SCF   energy in the final basis set = -1104.8391508222
 Total energy in the final basis set = -1104.8391508222
 
 --------------------------------------------------------------
             Orbital Energies (a.u.) and Symmetries
 --------------------------------------------------------------
 
 Alpha MOs, Restricted
 -- Occupied --                  
-88.920 -88.920 -10.240 -10.239 -10.225 -10.225 -10.205 -10.205
  1 B     1 A     2 A     2 B     3 B     3 A     4 B     4 A                  
-10.203 -10.203  -7.980  -7.980  -5.944  -5.944  -5.940  -5.940
  5 B     5 A     6 B     6 A     7 B     7 A     8 B     8 A                  
 -5.937  -5.937  -0.901  -0.878  -0.772  -0.750  -0.737  -0.705
  9 A     9 B    10 A    10 B    11 A    12 A    11 B    12 B                  
 -0.604  -0.580  -0.553  -0.533  -0.528  -0.477  -0.422  -0.419
 13 A    14 A    13 B    14 B    15 A    15 B    16 A    17 A                  
 -0.408  -0.403  -0.402  -0.377  -0.374  -0.360  -0.343  -0.284
 16 B    17 B    18 A    18 B    19 A    20 A    19 B    20 B                  
 -0.266  -0.258  -0.211
 21 B    21 A    22 A                                                          
 -- Virtual --                   
 -0.059  -0.014  -0.003   0.000   0.005   0.014   0.019   0.026
 22 B    23 A    24 A    23 B    25 A    26 A    24 B    25 B                  
  0.026   0.036   0.040   0.045   0.051   0.061   0.066   0.070
 27 A    28 A    26 B    29 A    27 B    30 A    28 B    29 B                  
  0.078   0.084   0.086   0.093   0.101   0.102   0.107   0.113
 31 A    30 B    31 B    32 A    33 A    32 B    34 A    35 A                  
  0.115   0.123   0.127   0.128   0.138   0.138   0.144   0.145
 33 B    36 A    34 B    37 A    38 A    35 B    39 A    36 B                  
  0.148   0.155   0.157   0.160   0.166   0.178   0.184   0.189
 40 A    37 B    41 A    38 B    39 B    40 B    42 A    43 A                  
  0.190   0.193   0.197   0.206   0.210   0.216   0.229   0.240
 41 B    42 B    44 A    43 B    45 A    46 A    44 B    47 A                  
  0.259   0.260   0.266   0.273   0.284   0.295   0.302   0.310
 45 B    48 A    46 B    49 A    47 B    48 B    50 A    49 B                  
  0.313   0.314   0.336   0.345   0.363   0.380   0.384   0.426
 51 A    52 A    50 B    53 A    51 B    54 A    52 B    53 B                  
  0.443   0.465   0.492   0.534   0.547   0.562   0.567   0.574
 55 A    56 A    54 B    57 A    55 B    56 B    58 A    57 B                  
  0.595   0.626   0.647   0.653   0.657   0.668   0.672   0.672
 59 A    60 A    58 B    61 A    59 B    62 A    63 A    60 B                  
  0.703   0.717   0.721   0.722   0.733   0.754   0.764   0.792
 64 A    61 B    62 B    65 A    63 B    66 A    64 B    67 A                  
  0.805   0.815   0.831   0.841   0.884   0.923   0.929   0.946
 65 B    66 B    68 A    67 B    69 A    68 B    70 A    71 A                  
  0.954   0.956   0.970   0.981   0.986   1.009   1.012   1.013
 72 A    69 B    70 B    71 B    73 A    74 A    72 B    73 B                  
  1.025   1.032   1.078   1.085   1.107   1.115   1.136   1.169
 75 A    76 A    77 A    74 B    78 A    75 B    76 B    79 A                  
  1.188   1.188   1.207   1.246   1.259   1.335   1.341   1.352
 80 A    77 B    78 B    81 A    79 B    80 B    82 A    81 B                  
  1.355   1.369   1.370   1.443   1.496   1.529   1.550   1.595
 83 A    82 B    84 A    83 B    85 A    84 B    86 A    85 B                  
  1.643   1.694   1.711   1.783   1.856   1.874   1.894   1.915
 86 B    87 A    87 B    88 A    89 A    90 A    88 B    89 B                  
  1.923   1.979   1.993   2.011   2.019   2.073   2.089   2.126
 91 A    92 A    90 B    91 B    93 A    94 A    92 B    93 B                  
  2.128   2.169   2.182   2.245   2.245   2.294   2.295   2.360
 95 A    96 A    94 B    95 B    97 A    98 A    96 B    97 B                  
  2.366   2.416   2.455   2.476   2.477   2.499   2.509   2.533
 99 A    98 B   100 A    99 B   101 A   102 A   100 B   101 B                  
  2.544   2.565   2.575   2.597   2.685   2.689   2.722   2.755
103 A   104 A   105 A   102 B   103 B   104 B   106 A   107 A                  
  2.804   2.855   2.950   2.976   3.140   3.216   3.270   3.273
105 B   108 A   106 B   107 B   109 A   108 B   110 A   109 B                  
  3.395   3.434   3.707   3.758   3.942   4.021   4.229   4.298
111 A   110 B   112 A   111 B   113 A   112 B   114 A   115 A                  
  4.307   4.334   4.399   4.547   4.645   4.733
113 B   114 B   116 A   115 B   117 A   116 B                                  
 
 Beta MOs, Restricted
 -- Occupied --                  
-88.920 -88.920 -10.240 -10.239 -10.225 -10.225 -10.205 -10.205
  1 B     1 A     2 A     2 B     3 B     3 A     4 B     4 A                  
-10.203 -10.203  -7.980  -7.980  -5.944  -5.944  -5.940  -5.940
  5 B     5 A     6 B     6 A     7 B     7 A     8 B     8 A                  
 -5.937  -5.937  -0.901  -0.878  -0.772  -0.750  -0.737  -0.705
  9 A     9 B    10 A    10 B    11 A    12 A    11 B    12 B                  
 -0.604  -0.580  -0.553  -0.533  -0.528  -0.477  -0.422  -0.419
 13 A    14 A    13 B    14 B    15 A    15 B    16 A    17 A                  
 -0.408  -0.403  -0.402  -0.377  -0.374  -0.360  -0.343  -0.284
 16 B    17 B    18 A    18 B    19 A    20 A    19 B    20 B                  
 -0.266  -0.258  -0.211
 21 B    21 A    22 A                                                          
 -- Virtual --                   
 -0.059  -0.014  -0.003   0.000   0.005   0.014   0.019   0.026
 22 B    23 A    24 A    23 B    25 A    26 A    24 B    25 B                  
  0.026   0.036   0.040   0.045   0.051   0.061   0.066   0.070
 27 A    28 A    26 B    29 A    27 B    30 A    28 B    29 B                  
  0.078   0.084   0.086   0.093   0.101   0.102   0.107   0.113
 31 A    30 B    31 B    32 A    33 A    32 B    34 A    35 A                  
  0.115   0.123   0.127   0.128   0.138   0.138   0.144   0.145
 33 B    36 A    34 B    37 A    38 A    35 B    39 A    36 B                  
  0.148   0.155   0.157   0.160   0.166   0.178   0.184   0.189
 40 A    37 B    41 A    38 B    39 B    40 B    42 A    43 A                  
  0.190   0.193   0.197   0.206   0.210   0.216   0.229   0.240
 41 B    42 B    44 A    43 B    45 A    46 A    44 B    47 A                  
  0.259   0.260   0.266   0.273   0.284   0.295   0.302   0.310
 45 B    48 A    46 B    49 A    47 B    48 B    50 A    49 B                  
  0.313   0.314   0.336   0.345   0.363   0.380   0.384   0.426
 51 A    52 A    50 B    53 A    51 B    54 A    52 B    53 B                  
  0.443   0.465   0.492   0.534   0.547   0.562   0.567   0.574
 55 A    56 A    54 B    57 A    55 B    56 B    58 A    57 B                  
  0.595   0.626   0.647   0.653   0.657   0.668   0.672   0.672
 59 A    60 A    58 B    61 A    59 B    62 A    63 A    60 B                  
  0.703   0.717   0.721   0.722   0.733   0.754   0.764   0.792
 64 A    61 B    62 B    65 A    63 B    66 A    64 B    67 A                  
  0.805   0.815   0.831   0.841   0.884   0.923   0.929   0.946
 65 B    66 B    68 A    67 B    69 A    68 B    70 A    71 A                  
  0.954   0.956   0.970   0.981   0.986   1.009   1.012   1.013
 72 A    69 B    70 B    71 B    73 A    74 A    72 B    73 B                  
  1.025   1.032   1.078   1.085   1.107   1.115   1.136   1.169
 75 A    76 A    77 A    74 B    78 A    75 B    76 B    79 A                  
  1.188   1.188   1.207   1.246   1.259   1.335   1.341   1.352
 80 A    77 B    78 B    81 A    79 B    80 B    82 A    81 B                  
  1.355   1.369   1.370   1.443   1.496   1.529   1.550   1.595
 83 A    82 B    84 A    83 B    85 A    84 B    86 A    85 B                  
  1.643   1.694   1.711   1.783   1.856   1.874   1.894   1.915
 86 B    87 A    87 B    88 A    89 A    90 A    88 B    89 B                  
  1.923   1.979   1.993   2.011   2.019   2.073   2.089   2.126
 91 A    92 A    90 B    91 B    93 A    94 A    92 B    93 B                  
  2.128   2.169   2.182   2.245   2.245   2.294   2.295   2.360
 95 A    96 A    94 B    95 B    97 A    98 A    96 B    97 B                  
  2.366   2.416   2.455   2.476   2.477   2.499   2.509   2.533
 99 A    98 B   100 A    99 B   101 A   102 A   100 B   101 B                  
  2.544   2.565   2.575   2.597   2.685   2.689   2.722   2.755
103 A   104 A   105 A   102 B   103 B   104 B   106 A   107 A                  
  2.804   2.855   2.950   2.976   3.140   3.216   3.270   3.273
105 B   108 A   106 B   107 B   109 A   108 B   110 A   109 B                  
  3.395   3.434   3.707   3.758   3.942   4.021   4.229   4.298
111 A   110 B   112 A   111 B   113 A   112 B   114 A   115 A                  
  4.307   4.334   4.399   4.547   4.645   4.733
113 B   114 B   116 A   115 B   117 A   116 B                                  
 --------------------------------------------------------------
 
          Ground-State Mulliken Net Atomic Charges

     Atom                 Charge (a.u.)
  ----------------------------------------
      1 S                    -0.140756
      2 C                     0.017650
      3 C                    -0.402464
      4 C                     0.354874
      5 C                    -0.255863
      6 H                     0.106842
      7 C                    -0.255863
      8 S                    -0.140756
      9 C                     0.354874
     10 C                     0.017650
     11 C                    -0.402464
     12 H                     0.119632
     13 H                     0.200085
     14 H                     0.119632
     15 H                     0.200085
     16 H                     0.106842
  ----------------------------------------
  Sum of atomic charges =    -0.000000

 -----------------------------------------------------------------
                    Cartesian Multipole Moments
 -----------------------------------------------------------------
    Charge (ESU x 10^10)
                -0.0000
    Dipole Moment (Debye)
         X      -0.0000      Y       0.0000      Z      -1.0411
       Tot       1.0411
    Quadrupole Moments (Debye-Ang)
        XX     -60.9093     XY       0.1724     YY     -78.8317
        XZ      -0.0000     YZ      -0.0000     ZZ     -67.7093
    Octopole Moments (Debye-Ang^2)
       XXX      -0.0000    XXY       0.0000    XYY       0.0000
       YYY       0.0000    XXZ       4.4673    XYZ      -2.7352
       YYZ       2.9608    XZZ      -0.0000    YZZ       0.0000
       ZZZ     -10.5996
    Hexadecapole Moments (Debye-Ang^3)
      XXXX   -1882.2035   XXXY       4.3144   XXYY    -424.0283
      XYYY       4.1176   YYYY    -108.1480   XXXZ       0.0000
      XXYZ       0.0000   XYYZ       0.0000   YYYZ      -0.0000
      XXZZ    -406.4287   XYZZ       4.4507   YYZZ    -124.7354
      XZZZ       0.0000   YZZZ      -0.0000   ZZZZ    -552.6509
 -----------------------------------------------------------------
 Calculating analytic gradient of the SCF energy
 Gradient of SCF Energy
            1           2           3           4           5           6
    1   0.0000527  -0.0000758  -0.0000846  -0.0000312  -0.0003036   0.0000932
    2   0.0001276   0.0000851  -0.0001688  -0.0001126   0.0001108  -0.0001873
    3  -0.0000805   0.0000179  -0.0001032  -0.0002073   0.0003528   0.0000057
            7           8           9          10          11          12
    1   0.0003036  -0.0000527   0.0000312   0.0000758   0.0000846   0.0000147
    2  -0.0001108  -0.0001276   0.0001126  -0.0000851   0.0001688  -0.0001033
    3   0.0003528  -0.0000805  -0.0002073   0.0000179  -0.0001032   0.0000048
           13          14          15          16
    1   0.0000079  -0.0000147  -0.0000079  -0.0000932
    2  -0.0000178   0.0001033   0.0000178   0.0001873
    3   0.0000096   0.0000048   0.0000096   0.0000057
 Max gradient component =       3.528E-04
 RMS gradient           =       1.332E-04
 Gradient time:  CPU 1.99 s  wall 1.93 s
 Geometry Optimization Parameters
   NAtoms,    NIC,     NZ,  NCons,   NDum,   NFix, NCnnct, MaxDiis
       16     111       0       1       0       0       0       0

 Cartesian Hessian Update
 Hessian Updated using BFGS Update


** CONSTRAINED OPTIMIZATION IN DELOCALIZED INTERNAL COORDINATES **
   Searching for a Minimum

   Optimization Cycle:   4

                       Coordinates (Angstroms)
[...]
  3.395   3.434   3.708   3.756   3.942   4.020   4.229   4.298
111 A   110 B   112 A   111 B   113 A   112 B   114 A   115 A                  
  4.307   4.332   4.400   4.546   4.645   4.733
113 B   114 B   116 A   115 B   117 A   116 B                                  
 --------------------------------------------------------------
 
          Ground-State Mulliken Net Atomic Charges

     Atom                 Charge (a.u.)
  ----------------------------------------
      1 S                    -0.141214
      2 C                     0.025652
      3 C                    -0.401587
      4 C                     0.363023
      5 C                    -0.273938
      6 H                     0.108923
      7 C                    -0.273938
      8 S                    -0.141214
      9 C                     0.363023
     10 C                     0.025652
     11 C                    -0.401587
     12 H                     0.119234
     13 H                     0.199908
     14 H                     0.119234
     15 H                     0.199908
     16 H                     0.108923
  ----------------------------------------
  Sum of atomic charges =    -0.000000

 -----------------------------------------------------------------
                    Cartesian Multipole Moments
 -----------------------------------------------------------------
    Charge (ESU x 10^10)
                 0.0000
    Dipole Moment (Debye)
         X      -0.0000      Y      -0.0000      Z      -1.0414
       Tot       1.0414
    Quadrupole Moments (Debye-Ang)
        XX     -60.8929     XY       0.1383     YY     -78.8043
        XZ       0.0000     YZ      -0.0000     ZZ     -67.7380
    Octopole Moments (Debye-Ang^2)
       XXX      -0.0000    XXY      -0.0000    XYY       0.0000
       YYY       0.0000    XXZ       4.5371    XYZ      -3.0710
       YYZ       2.9997    XZZ      -0.0000    YZZ       0.0000
       ZZZ     -10.2939
    Hexadecapole Moments (Debye-Ang^3)
      XXXX   -1881.9105   XXXY       4.6557   XXYY    -423.9898
      XYYY       5.7218   YYYY    -109.4649   XXXZ       0.0000
      XXYZ      -0.0000   XYYZ      -0.0000   YYYZ      -0.0000
      XXZZ    -406.4173   XYZZ       5.1587   YYZZ    -124.5119
      XZZZ       0.0000   YZZZ      -0.0000   ZZZZ    -551.8318
 -----------------------------------------------------------------
 Calculating analytic gradient of the SCF energy
 Gradient of SCF Energy
            1           2           3           4           5           6
    1  -0.0000023   0.0000073   0.0000230   0.0000057  -0.0000039  -0.0000138
    2   0.0000008   0.0000331   0.0000606  -0.0008372   0.0016220   0.0000456
    3   0.0000421  -0.0000110   0.0000235  -0.0000407  -0.0000082   0.0000028
            7           8           9          10          11          12
    1   0.0000039   0.0000023  -0.0000057  -0.0000073  -0.0000230  -0.0000017
    2  -0.0016220  -0.0000008   0.0008372  -0.0000331  -0.0000606   0.0000436
    3  -0.0000082   0.0000421  -0.0000407  -0.0000110   0.0000235  -0.0000047
           13          14          15          16
    1   0.0000032   0.0000017  -0.0000032   0.0000138
    2  -0.0000209  -0.0000436   0.0000209  -0.0000456
    3  -0.0000038  -0.0000047  -0.0000038   0.0000028
 Max gradient component =       1.622E-03
 RMS gradient           =       3.734E-04
 Gradient time:  CPU 2.00 s  wall 1.93 s
 Geometry Optimization Parameters
   NAtoms,    NIC,     NZ,  NCons,   NDum,   NFix, NCnnct, MaxDiis
       16     111       0       1       0       0       0       0

 Cartesian Hessian Update
 Hessian Updated using BFGS Update


** CONSTRAINED OPTIMIZATION IN DELOCALIZED INTERNAL COORDINATES **
   Searching for a Minimum

   Optimization Cycle:   8

                       Coordinates (Angstroms)
     ATOM                X               Y               Z
      1  S         1.6661853263   -0.1459807345    1.1624752596
      2  C         3.1625161260   -0.0466405282    0.2917241056
      3  C         2.9518184989    0.0897483275   -1.0553967450
      4  C         1.5703825756    0.1242365491   -1.3995426460
      5  C         0.7271064201    0.0134324421   -0.3112927283
      6  H         1.2091999145    0.2443790389   -2.4142528961
      7  C        -0.7271064201   -0.0134324421   -0.3112927283
      8  S        -1.6661853263    0.1459807345    1.1624752596
      9  C        -1.5703825756   -0.1242365491   -1.3995426460
     10  C        -3.1625161260    0.0466405282    0.2917241056
     11  C        -2.9518184989   -0.0897483275   -1.0553967450
     12  H        -3.7551228121   -0.1692186199   -1.7790302579
     13  H         4.1010302728   -0.0936206625    0.8264885175
     14  H         3.7551228121    0.1692186199   -1.7790302579
     15  H        -4.1010302728    0.0936206625    0.8264885175
     16  H        -1.2091999145   -0.2443790389   -2.4142528961
   Point Group: c2    Number of degrees of freedom:    22


   Energy is  -1104.839169899

              Constraints and their Current Values
                                        Value     Constraint
   Dihedral:        4   5   7   9       10.000       10.000
 Hessian Updated using BFGS Update

 21 Hessian modes will be used to form the next step
  Hessian Eigenvalues:
     0.007427    0.017315    0.044368    0.045001    0.045018    0.047798
     0.159624    0.160135    0.160551    0.222203    0.236566    0.283991
     0.304512    0.321986    0.357348    0.360016    0.362320    0.393034
     0.455833    0.477853    0.511719

 Minimum Search - Taking Simple RFO Step
 Searching for Lamda that Minimizes Along All modes
 Value Taken    Lamda =   0.00000000
 Step Taken.  Stepsize is  0.003843

                             Maximum     Tolerance    Cnvgd?
         Gradient           0.000061      0.000300     YES
         Displacement       0.003125      0.001200      NO
         Energy change     -0.000001      0.000001     YES

 Final energy is   -1104.83916989864     


 ******************************
 **  OPTIMIZATION CONVERGED  **
 ******************************

                       Coordinates (Angstroms)
     ATOM                X               Y               Z
      1  S         1.6661853263   -0.1459807345    1.1624752596
      2  C         3.1625161260   -0.0466405282    0.2917241056
      3  C         2.9518184989    0.0897483275   -1.0553967450
      4  C         1.5703825756    0.1242365491   -1.3995426460
      5  C         0.7271064201    0.0134324421   -0.3112927283
      6  H         1.2091999145    0.2443790389   -2.4142528961
      7  C        -0.7271064201   -0.0134324421   -0.3112927283
      8  S        -1.6661853263    0.1459807345    1.1624752596
      9  C        -1.5703825756   -0.1242365491   -1.3995426460
     10  C        -3.1625161260    0.0466405282    0.2917241056
     11  C        -2.9518184989   -0.0897483275   -1.0553967450
     12  H        -3.7551228121   -0.1692186199   -1.7790302579
     13  H         4.1010302728   -0.0936206625    0.8264885175
     14  H         3.7551228121    0.1692186199   -1.7790302579
     15  H        -4.1010302728    0.0936206625    0.8264885175
     16  H        -1.2091999145   -0.2443790389   -2.4142528961

Z-matrix Print:
$molecule
0 1
S 
C  1 1.734094
H  2 1.081198 1 119.878845
C  2 1.370303 1 111.510105 3 179.920547 0
H  4 1.084094 2 123.337520 1 179.995542 0
C  4 1.424076 2 112.901051 1 -0.379663 0
H  6 1.083755 4 123.520995 2 -178.898186 0
C  6 1.381188 4 113.572694 2 0.015930 0
C  8 1.454461 6 127.728587 4 178.692825 0
C  9 1.381188 8 127.728587 6 -9.999978 0
H  10 1.083755 9 122.896947 8 -2.385344 0
C  10 1.424076 9 113.572694 8 178.692825 0
H  12 1.084094 10 123.760292 9 179.638885 0
C  12 1.370303 10 112.901051 9 0.015930 0
H  14 1.081198 12 128.610993 10 179.532173 0
S  14 1.734094 12 111.510105 10 -0.379663 0
$end

 
 --------------------------------------------------------------
             Orbital Energies (a.u.) and Symmetries
 --------------------------------------------------------------
 
 Alpha MOs, Restricted
 -- Occupied --                  
-88.920 -88.920 -10.240 -10.239 -10.225 -10.225 -10.205 -10.205
  1 B     1 A     2 A     2 B     3 B     3 A     4 B     4 A                  
-10.203 -10.203  -7.980  -7.979  -5.944  -5.944  -5.940  -5.940
  5 B     5 A     6 B     6 A     7 B     7 A     8 B     8 A                  
 -5.937  -5.937  -0.901  -0.878  -0.772  -0.750  -0.737  -0.705
  9 A     9 B    10 A    10 B    11 A    12 A    11 B    12 B                  
 -0.604  -0.580  -0.553  -0.533  -0.528  -0.477  -0.422  -0.419
 13 A    14 A    13 B    14 B    15 A    15 B    16 A    17 A                  
 -0.408  -0.403  -0.402  -0.377  -0.374  -0.360  -0.343  -0.283
 16 B    17 B    18 A    18 B    19 A    20 A    19 B    20 B                  
 -0.265  -0.258  -0.211
 21 B    21 A    22 A                                                          
 -- Virtual --                   
 -0.059  -0.014  -0.003  -0.000   0.005   0.014   0.019   0.026
 22 B    23 A    24 A    23 B    25 A    26 A    24 B    25 B                  
  0.026   0.036   0.040   0.045   0.050   0.061   0.066   0.070
 27 A    28 A    26 B    29 A    27 B    30 A    28 B    29 B                  
  0.078   0.084   0.087   0.094   0.102   0.102   0.107   0.113
 31 A    30 B    31 B    32 A    33 A    32 B    34 A    35 A                  
  0.115   0.123   0.127   0.129   0.138   0.138   0.144   0.145
 33 B    36 A    34 B    37 A    38 A    35 B    39 A    36 B                  
  0.148   0.155   0.158   0.160   0.166   0.178   0.184   0.189
 40 A    37 B    41 A    38 B    39 B    40 B    42 A    43 A                  
  0.190   0.192   0.196   0.207   0.210   0.216   0.228   0.240
 41 B    42 B    44 A    43 B    45 A    46 A    44 B    47 A                  
  0.257   0.260   0.267   0.272   0.280   0.292   0.302   0.310
 45 B    48 A    46 B    49 A    47 B    48 B    50 A    49 B                  
  0.312   0.314   0.334   0.346   0.362   0.381   0.383   0.426
 51 A    52 A    50 B    53 A    51 B    54 A    52 B    53 B                  
  0.443   0.465   0.492   0.534   0.546   0.561   0.567   0.572
 55 A    56 A    54 B    57 A    55 B    56 B    58 A    57 B                  
  0.595   0.626   0.646   0.653   0.657   0.667   0.668   0.673
 59 A    60 A    58 B    61 A    59 B    60 B    62 A    63 A                  
  0.703   0.720   0.720   0.722   0.733   0.754   0.763   0.792
 64 A    61 B    62 B    65 A    63 B    66 A    64 B    67 A                  
  0.803   0.816   0.831   0.843   0.884   0.922   0.930   0.947
 65 B    66 B    68 A    67 B    69 A    68 B    70 A    71 A                  
  0.954   0.955   0.970   0.979   0.986   1.008   1.009   1.011
 72 A    69 B    70 B    71 B    73 A    72 B    74 A    73 B                  
  1.026   1.032   1.079   1.083   1.107   1.113   1.135   1.169
 75 A    76 A    77 A    74 B    78 A    75 B    76 B    79 A                  
  1.187   1.188   1.206   1.247   1.256   1.334   1.340   1.353
 77 B    80 A    78 B    81 A    79 B    80 B    82 A    81 B                  
  1.355   1.368   1.372   1.441   1.496   1.529   1.551   1.590
 83 A    82 B    84 A    83 B    85 A    84 B    86 A    85 B                  
  1.647   1.693   1.711   1.782   1.856   1.873   1.893   1.915
 86 B    87 A    87 B    88 A    89 A    90 A    88 B    89 B                  
  1.923   1.977   1.992   2.011   2.019   2.072   2.088   2.127
 91 A    92 A    90 B    91 B    93 A    94 A    92 B    93 B                  
  2.128   2.171   2.182   2.245   2.245   2.292   2.295   2.360
 95 A    96 A    94 B    97 A    95 B    96 B    98 A    97 B                  
  2.366   2.416   2.455   2.476   2.476   2.499   2.508   2.532
 99 A    98 B   100 A    99 B   101 A   102 A   100 B   101 B                  
  2.544   2.565   2.575   2.597   2.684   2.690   2.722   2.756
103 A   104 A   105 A   102 B   103 B   104 B   106 A   107 A                  
  2.802   2.855   2.950   2.976   3.140   3.216   3.270   3.272
105 B   108 A   106 B   107 B   109 A   108 B   110 A   109 B                  
  3.395   3.434   3.708   3.756   3.942   4.020   4.229   4.298
111 A   110 B   112 A   111 B   113 A   112 B   114 A   115 A                  
  4.307   4.332   4.400   4.546   4.645   4.733
113 B   114 B   116 A   115 B   117 A   116 B                                  
 
 Beta MOs, Restricted
 -- Occupied --                  
-88.920 -88.920 -10.240 -10.239 -10.225 -10.225 -10.205 -10.205
  1 B     1 A     2 A     2 B     3 B     3 A     4 B     4 A                  
-10.203 -10.203  -7.980  -7.979  -5.944  -5.944  -5.940  -5.940
  5 B     5 A     6 B     6 A     7 B     7 A     8 B     8 A                  
 -5.937  -5.937  -0.901  -0.878  -0.772  -0.750  -0.737  -0.705
  9 A     9 B    10 A    10 B    11 A    12 A    11 B    12 B                  
 -0.604  -0.580  -0.553  -0.533  -0.528  -0.477  -0.422  -0.419
 13 A    14 A    13 B    14 B    15 A    15 B    16 A    17 A                  
 -0.408  -0.403  -0.402  -0.377  -0.374  -0.360  -0.343  -0.283
 16 B    17 B    18 A    18 B    19 A    20 A    19 B    20 B                  
 -0.265  -0.258  -0.211
 21 B    21 A    22 A                                                          
 -- Virtual --                   
 -0.059  -0.014  -0.003  -0.000   0.005   0.014   0.019   0.026
 22 B    23 A    24 A    23 B    25 A    26 A    24 B    25 B                  
  0.026   0.036   0.040   0.045   0.050   0.061   0.066   0.070
 27 A    28 A    26 B    29 A    27 B    30 A    28 B    29 B                  
  0.078   0.084   0.087   0.094   0.102   0.102   0.107   0.113
 31 A    30 B    31 B    32 A    33 A    32 B    34 A    35 A                  
  0.115   0.123   0.127   0.129   0.138   0.138   0.144   0.145
 33 B    36 A    34 B    37 A    38 A    35 B    39 A    36 B                  
  0.148   0.155   0.158   0.160   0.166   0.178   0.184   0.189
 40 A    37 B    41 A    38 B    39 B    40 B    42 A    43 A                  
  0.190   0.192   0.196   0.207   0.210   0.216   0.228   0.240
 41 B    42 B    44 A    43 B    45 A    46 A    44 B    47 A                  
  0.257   0.260   0.267   0.272   0.280   0.292   0.302   0.310
 45 B    48 A    46 B    49 A    47 B    48 B    50 A    49 B                  
  0.312   0.314   0.334   0.346   0.362   0.381   0.383   0.426
 51 A    52 A    50 B    53 A    51 B    54 A    52 B    53 B                  
  0.443   0.465   0.492   0.534   0.546   0.561   0.567   0.572
 55 A    56 A    54 B    57 A    55 B    56 B    58 A    57 B                  
  0.595   0.626   0.646   0.653   0.657   0.667   0.668   0.673
 59 A    60 A    58 B    61 A    59 B    60 B    62 A    63 A                  
  0.703   0.720   0.720   0.722   0.733   0.754   0.763   0.792
 64 A    61 B    62 B    65 A    63 B    66 A    64 B    67 A                  
  0.803   0.816   0.831   0.843   0.884   0.922   0.930   0.947
 65 B    66 B    68 A    67 B    69 A    68 B    70 A    71 A                  
  0.954   0.955   0.970   0.979   0.986   1.008   1.009   1.011
 72 A    69 B    70 B    71 B    73 A    72 B    74 A    73 B                  
  1.026   1.032   1.079   1.083   1.107   1.113   1.135   1.169
 75 A    76 A    77 A    74 B    78 A    75 B    76 B    79 A                  
  1.187   1.188   1.206   1.247   1.256   1.334   1.340   1.353
 77 B    80 A    78 B    81 A    79 B    80 B    82 A    81 B                  
  1.355   1.368   1.372   1.441   1.496   1.529   1.551   1.590
 83 A    82 B    84 A    83 B    85 A    84 B    86 A    85 B                  
  1.647   1.693   1.711   1.782   1.856   1.873   1.893   1.915
 86 B    87 A    87 B    88 A    89 A    90 A    88 B    89 B                  
  1.923   1.977   1.992   2.011   2.019   2.072   2.088   2.127
 91 A    92 A    90 B    91 B    93 A    94 A    92 B    93 B                  
  2.128   2.171   2.182   2.245   2.245   2.292   2.295   2.360
 95 A    96 A    94 B    97 A    95 B    96 B    98 A    97 B                  
  2.366   2.416   2.455   2.476   2.476   2.499   2.508   2.532
 99 A    98 B   100 A    99 B   101 A   102 A   100 B   101 B                  
  2.544   2.565   2.575   2.597   2.684   2.690   2.722   2.756
103 A   104 A   105 A   102 B   103 B   104 B   106 A   107 A                  
  2.802   2.855   2.950   2.976   3.140   3.216   3.270   3.272
105 B   108 A   106 B   107 B   109 A   108 B   110 A   109 B                  
  3.395   3.434   3.708   3.756   3.942   4.020   4.229   4.298
111 A   110 B   112 A   111 B   113 A   112 B   114 A   115 A                  
  4.307   4.332   4.400   4.546   4.645   4.733
113 B   114 B   116 A   115 B   117 A   116 B                                  
 --------------------------------------------------------------
 
          Ground-State Mulliken Net Atomic Charges

     Atom                 Charge (a.u.)
  ----------------------------------------
      1 S                    -0.141214
      2 C                     0.025652
      3 C                    -0.401587
      4 C                     0.363023
      5 C                    -0.273938
      6 H                     0.108923
      7 C                    -0.273938
      8 S                    -0.141214
      9 C                     0.363023
     10 C                     0.025652
     11 C                    -0.401587
     12 H                     0.119234
     13 H                     0.199908
     14 H                     0.119234
     15 H                     0.199908
     16 H                     0.108923
  ----------------------------------------
  Sum of atomic charges =    -0.000000

 -----------------------------------------------------------------
                    Cartesian Multipole Moments
 -----------------------------------------------------------------
    Charge (ESU x 10^10)
                 0.0000
    Dipole Moment (Debye)
         X      -0.0000      Y      -0.0000      Z      -1.0414
       Tot       1.0414
    Quadrupole Moments (Debye-Ang)
        XX     -60.8929     XY       0.1383     YY     -78.8043
        XZ       0.0000     YZ      -0.0000     ZZ     -67.7380
    Octopole Moments (Debye-Ang^2)
       XXX      -0.0000    XXY      -0.0000    XYY       0.0000
       YYY       0.0000    XXZ       4.5371    XYZ      -3.0710
       YYZ       2.9997    XZZ      -0.0000    YZZ       0.0000
       ZZZ     -10.2939
    Hexadecapole Moments (Debye-Ang^3)
      XXXX   -1881.9105   XXXY       4.6557   XXYY    -423.9898
      XYYY       5.7218   YYYY    -109.4649   XXXZ       0.0000
      XXYZ      -0.0000   XYYZ      -0.0000   YYYZ      -0.0000
      XXZZ    -406.4173   XYZZ       5.1587   YYZZ    -124.5119
      XZZZ       0.0000   YZZZ      -0.0000   ZZZZ    -551.8318
 -----------------------------------------------------------------
Archival summary:
1\1\nid01043\OPT\ProcedureUnspecified\BasisUnspecified\286\FriSep218:36:552016FriSep218:36:552016\0\\#,OPT,ProcedureUnspecified,BasisUnspecified,\\0,1\S\C,1,1.73409\H,2,1.0812,1,119.879\C,2,1.3703,1,111.51,3,179.921,0\H,4,1.08409,2,123.338,1,179.996,0\C,4,1.42408,2,112.901,1,-0.379663,0\H,6,1.08375,4,123.521,2,-178.898,0\C,6,1.38119,4,113.573,2,0.0159299,0\C,8,1.45446,6,127.729,4,178.693,0\C,9,1.38119,8,127.729,6,-9.99998,0\H,10,1.08375,9,122.897,8,-2.38534,0\C,10,1.42408,9,113.573,8,178.693,0\H,12,1.08409,10,123.76,9,179.639,0\C,12,1.3703,10,112.901,9,0.0159299,0\H,14,1.0812,12,128.611,10,179.532,0\S,14,1.73409,12,111.51,10,-0.379663,0\\\@

 Total job time:  62.12s(wall), 69.18s(cpu) 
 Fri Sep  2 18:36:55 2016

        *************************************************************
        *                                                           *
        *  Thank you very much for using Q-Chem.  Have a nice day.  *
        *                                                           *
        *************************************************************


0 sent ACK to 0 
now end server 0 ... 
