srun -N 1 --ntasks-per-node 16 --nodelist nid01043 /global/project/projectdirs/jcesr/qchem/qc44/cnl_qc441/dist/exe/qcprog.cori.exe .pt_dft_20.0.in.46622.qcin.1 /dev/shm/eg_qchem/qchem46622/
Process 1 of 16 is on nid01043 - thread support 0
Process 2 of 16 is on nid01043 - thread support 0
Process 3 of 16 is on nid01043 - thread support 0
Process 4 of 16 is on nid01043 - thread support 0
Process 5 of 16 is on nid01043 - thread support 0
Process 6 of 16 is on nid01043 - thread support 0
Process 0 of 16 is on nid01043 - thread support 0
Process 15 of 16 is on nid01043 - thread support 0
initial socket setup ...start
initial socket setup ...done 
now start server 0 ... 
nid01043 10.128.4
Q-Chem Developer Version! Running on 10.128.4.*
                  Welcome to Q-Chem
     A Quantum Leap Into The Future Of Chemistry


 Q-Chem 4.4, Q-Chem, Inc., Pleasanton, CA (2016)

 Y. Shao,  Z. Gan,  E. Epifanovsky,  A. T. B. Gilbert,  M. Wormit,  
 J. Kussmann,  A. W. Lange,  A. Behn,  J. Deng,  X. Feng,  D. Ghosh,  
 M. Goldey,  P. R. Horn,  L. D. Jacobson,  I. Kaliman,  F.Rob,  
 R. Z. Khaliullin,  T. Kus,  A. Landau,  J. Liu,  E. I. Proynov,  Y. M. Rhee,  
 R. M. Richard,  M. A. Rohrdanz,  R. P. Steele,  E. J. Sundstrom,  
 H. L. Woodcock III,  P. M. Zimmerman,  D. Zuev,  B. Albrecht,  E. Alguire,  
 B. Austin,  S. A. Baeppler,  G. J. O. Beran,  Y. A. Bernard,  E. Berquist,  
 K. Brandhorst,  K. B. Bravaya,  S. T. Brown,  D. Casanova,  C.-M. Chang,  
 Y. Chen,  S. H. Chien,  K. D. Closser,  M. P. Coons,  D. L. Crittenden,  
 S. Dasgupta,  M. Diedenhofen,  R. A. DiStasio Jr.,  H. Do,  A. D. Dutoi,  
 R. G. Edgar,  P.-T. Fang,  S. Fatehi,  Q. Feng,  L. Fusti-Molnar,  
 A. Ghysels,  A. Golubeva-Zadorozhnaya,  J. Gomes,  A. Gunina,  
 M. W. D. Hanson-Heine,  P. H. P. Harbach,  A. W. Hauser,  E. G. Hohenstein,  
 Z. C. Holden,  K. Hui,  T.-C. Jagau,  H. Ji,  B. Kaduk,  K. Khistyaev,  
 Jaehoon Kim,  Jihan Kim,  R. A. King,  P. Klunzinger,  D. Kosenkov,  
 T. Kowalczyk,  C. M. Krauter,  A. Kunitsa,  K. U. Lao,  A. Laurent,  
 K. V. Lawler,  D. Lefrancois,  S. Lehtola,  S. V. Levchenko,  C. Y. Lin,  
 Y.-S. Lin,  F. Liu,  E. Livshits,  R. C. Lochan,  A. Luenser,  P. Manohar,  
 S. F. Manzer,  S.-P. Mao,  Y. Mao,  N. Mardirossian,  A. V. Marenich,  
 L. A. Martinez-Martinez,  S. A. Maurer,  N. J. Mayhall,  J.-M. Mewes,  
 A. F. Morrison,  K. Nanda,  C. M. Oana,  R. Olivares-Amaya,  D. P. O'Neill,  
 J. A. Parkhill,  T. M. Perrine,  R. Peverati,  P. A. Pieniazek,  F. Plasser,  
 A. Prociuk,  D. R. Rehn,  E. Rosta,  N. J. Russ,  N. Sergueev,  
 S. M. Sharada,  S. Sharma,  D. W. Small,  A. Sodt,  T. Stauch,  T. Stein,  
 D. Stuck,  Y.-C. Su,  A. J. W. Thom,  T. Tsuchimochi,  L. Vogt,  O. Vydrov,  
 T. Wang,  M. A. Watson,  J. Wenzel,  A. White,  C. F. Williams,  
 V. Vanovschi,  S. Yeganeh,  S. R. Yost,  Z.-Q. You,  I. Y. Zhang,  X. Zhang,  
 Y. Zhao,  B. R. Brooks,  G. K. L. Chan,  D. M. Chipman,  C. J. Cramer,  
 W. A. Goddard III,  M. S. Gordon,  W. J. Hehre,  A. Klamt,  
 H. F. Schaefer III,  M. W. Schmidt,  C. D. Sherrill,  D. G. Truhlar,  
 A. Warshel,  X. Xu,  A. Aspuru-Guzik,  R. Baer,  A. T. Bell,  N. A. Besley,  
 J.-D. Chai,  A. Dreuw,  B. D. Dunietz,  T. R. Furlani,  S. R. Gwaltney,  
 C.-P. Hsu,  Y. Jung,  J. Kong,  D. S. Lambrecht,  W. Liang,  C. Ochsenfeld,  
 V. A. Rassolov,  L. V. Slipchenko,  J. E. Subotnik,  T. Van Voorhis,  
 J. M. Herbert,  A. I. Krylov,  P. M. W. Gill,  M. Head-Gordon

 Contributors to earlier versions of Q-Chem not listed above: 
 R. D. Adamson,  J. Baker,  E. F. C. Byrd,  A. K. Chakraborty,  C.-L. Cheng,  
 H. Dachsel,  R. J. Doerksen,  G. Hawkins,  A. Heyden,  S. Hirata,  
 G. Kedziora,  F. J. Keil,  C. Kelley,  P. P. Korambath,  W. Kurlancheek,  
 A. M. Lee,  M. S. Lee,  D. Liotard,  I. Lotan,  P. E. Maslen,  N. Nair,  
 D. Neuhauser,  R. Olson,  B. Peters,  J. Ritchie,  N. E. Schultz,  
 N. Shenvi,  A. C. Simmonett,  K. S. Thanthiriwatte,  Q. Wu,  W. Zhang

 Please cite Q-Chem as follows:
 Y. Shao et al., Mol. Phys. 113, 184-215 (2015)
 DOI: 10.1080/00268976.2014.952696

 Q-Chem 4.4.1 for Intel X86 EM64T Linux

 Parts of Q-Chem use Armadillo 5.200.1 (Boston Tea Smuggler).
 http://arma.sourceforge.net/

 Q-Chem begins on Fri Sep  2 18:11:01 2016  

Host: nid01043
0

     Scratch files written to /dev/shm/eg_qchem/qchem46622.0//
 Parallel job on  16  processors

Checking the input file for inconsistencies... 	...done.

--------------------------------------------------------------
User input:
--------------------------------------------------------------
$molecule
 0  1
 S           1.82267924       -1.19997629        0.28714109
 C           3.20006180       -0.17260711        0.06528466
 C           2.82980603        1.10216298       -0.25610036
 C           1.41909100        1.26345446       -0.34254814
 C           0.71738150        0.10901545       -0.08456145
 H           0.93627498        2.19419272       -0.61095402
 C          -0.71741859       -0.10899254       -0.08455524
 S          -1.41502935       -1.48312012        0.75115864
 C          -1.70772481        0.63591690       -0.68128481
 C          -3.02001360       -1.01256929        0.29894414
 C          -3.01565193        0.12072786       -0.46331244
 H          -3.91556241        0.58103747       -0.84930472
 H           4.19429620       -0.57452886        0.18632814
 H           3.53860725        1.89960515       -0.43610218
 H          -3.86362561       -1.60194178        0.62398796
 H          -1.50382809        1.54083678       -1.23893424
$end


$rem
         jobtype = opt
        exchange = b3lyp
           basis = 6-31++g**
  max_scf_cycles = 75
      mem_static = 100
       mem_total = 1500
$end


$opt
CONSTRAINT
tors 4 5 7 9 20.0
ENDCONSTRAINT
$end

--------------------------------------------------------------
 Atom   8: ( -1.6273985268,  0.2147877269,  1.1341676188)
         ->( -1.6273986232,  0.2147878096,  1.1341676169)
 Atom  10: ( -3.1400062755,  0.0522339561,  0.3050207375)
         ->( -3.1400062790,  0.0522338115,  0.3050206447)
 Atom  11: ( -2.9596870465, -0.1847577230, -1.0279220474)
         ->( -2.9596869579, -0.1847580405, -1.0279220597)
 Atom   9: ( -1.5878732040, -0.2236954362, -1.4023759008)
         ->( -1.5878731188, -0.2236951353, -1.4023759951)
 Atom   7: ( -0.7254234740, -0.0174791523, -0.3510253548)
         ->( -0.7254234155, -0.0174791835, -0.3510253054)
 Atom  16: ( -1.2466366813, -0.3738066411, -2.4184718658)
         ->( -1.2466365592, -0.3738060135, -2.4184719890)
 Atom  14: (  3.7772833666,  0.3172232886, -1.7241281424)
         ->(  3.7772835031,  0.3172227666, -1.7241281201)
 Atom  15: ( -4.0650033350,  0.1416135300,  0.8537341162)
         ->( -4.0650034246,  0.1416132550,  0.8537339168)
 ----------------------------------------------------------------
             Standard Nuclear Orientation (Angstroms)
    I     Atom           X                Y                Z
 ----------------------------------------------------------------
    1      S       1.6273986232    -0.2147878096     1.1341676169
    2      C       3.1400062790    -0.0522338115     0.3050206447
    3      C       2.9596869579     0.1847580405    -1.0279220597
    4      C       1.5878731188     0.2236951353    -1.4023759951
    5      C       0.7254234155     0.0174791835    -0.3510253054
    6      H       1.2466365592     0.3738060135    -2.4184719890
    7      C      -0.7254234155    -0.0174791835    -0.3510253054
    8      S      -1.6273986232     0.2147878096     1.1341676169
    9      C      -1.5878731188    -0.2236951353    -1.4023759951
   10      C      -3.1400062790     0.0522338115     0.3050206447
   11      C      -2.9596869579    -0.1847580405    -1.0279220597
   12      H      -3.7772835031    -0.3172227666    -1.7241281201
   13      H       4.0650034246    -0.1416132550     0.8537339168
   14      H       3.7772835031     0.3172227666    -1.7241281201
   15      H      -4.0650034246     0.1416132550     0.8537339168
   16      H      -1.2466365592    -0.3738060135    -2.4184719890
 ----------------------------------------------------------------
 Molecular Point Group                 C2    NOp =  2
 Largest Abelian Subgroup              C2    NOp =  2
 Nuclear Repulsion Energy =   633.9568839600 hartrees
 There are       43 alpha and       43 beta electrons
 Requested basis set is 6-31++G(d,p)
 There are 76 shells and 234 basis functions

 Total QAlloc Memory Limit   1500 MB
 Mega-Array Size        98 MB
 MEM_STATIC part       100 MB
 A cutoff of  1.0D-11 yielded   2491 shell pairs
 There are     24603 function pairs
 
 -------------------------------------------------------
 OpenMP Integral Computing Module                       
 Release: version 1.0, May 2013, Q-Chem Inc. Pittsburgh 
 -------------------------------------------------------
 Integral Job Info:
 Integral job number is                      11
 Integral operator is                         1
 short-range coefficients                     0
 long-range coefficients              100000000
 Omega coefficients                           0
 if combine SR and LR in K                    0
 Integral screening is                        0
 Integral computing path is                   2
 max size of driver memory is            800000
 size of driver memory is                593474
 size of scratch memory is             15166112
 max col of scratch BK array               1296
 max len of scratch array in speh3          155
 max len of scratch index in speh4           18
 max int batch size is                      520
 min int batch size is                       52
 fixed nKL is                                52
 max L of basis functions is                  2
 order of int derivative is                   0
 number of shells is                         76
 number of basis is                         234
 number of cartesian basis is               234
 number of contracted shell pairs          2491
 number of primitive shell pairs           8065
 maxK2 (contraction) of shell pair           36
 max number of K2 of shell pair               1
 max number of CS2 of shell pair            256
 max number of PS2 of shell pair           1500
 mem total for path MDJ                   51992
 -------------------------------------------------------
 Smallest overlap matrix eigenvalue = 8.60E-07

 Q-Chem warning in module /project/projectdirs/jcesr/qchem/qc44/cnl_qc441/compile/cori/qc_src/stvman/mkSTV.C, line 257:

 Overlap eigenvalue is smaller than square root of threshold

 Linear dependence detected in AO basis
 Number of orthogonalized atomic orbitals = 233
 Maximum deviation from orthogonality = 9.008E-11

 Scale SEOQF with 1.000000e-01/1.000000e-01/1.000000e-01

 Standard Electronic Orientation quadrupole field applied
 Nucleus-field energy     =     0.0000000042 hartrees
 Guess from superposition of atomic densities
 Warning:  Energy on first SCF cycle will be non-variational
 A restricted hybrid HF-DFT SCF calculation will be
 performed using Pulay DIIS extrapolation
 Exchange:     0.2000 Hartree-Fock + 0.0800 Slater + 0.7200 B88
 Correlation:  0.1900 VWN1RPA + 0.8100 LYP
 Using SG-1 standard quadrature grid
 SCF converges when DIIS error is below 1.0E-08
 ---------------------------------------
  Cycle       Energy         DIIS Error
 ---------------------------------------
    1   -1107.2338899307      4.46E-02
    2   -1044.0633679063      7.02E-02
    3   -1013.3892675529      2.01E-01
    4   -1105.7784412241      5.70E-02
    5   -1179.6265955032      1.17E-01
    6   -1145.6837222682      9.10E-02
    7   -1190.3703358064      2.12E-01
    8   -1185.6030936708      1.76E-01
    9   -1180.6206602569      1.34E-01
   10   -1135.8834362164      8.72E-02
   11   -1109.5614987230      2.02E-02
   12   -1107.1666767604      1.63E-02
   13   -1104.2062133011      9.10E-03
   14   -1104.5927344147      5.19E-03
   15   -1104.7040247345      3.77E-03
   16   -1104.7900387183      2.37E-03
   17   -1104.8363075937      5.42E-04
   18   -1104.8385412445      1.87E-04
   19   -1104.8387512932      7.30E-05
   20   -1104.8387891938      1.29E-05
   21   -1104.8387859180      5.06E-06
   22   -1104.8387823481      1.78E-06
   23   -1104.8387822414      4.41E-07
   24   -1104.8387817659      6.10E-08
   25   -1104.8387819541      4.44E-08
   26   -1104.8387825669      3.79E-08
   27   -1104.8387825906      2.43E-08
   28   -1104.8387827620      1.86E-08
   29   -1104.8387827421      1.74E-08
   30   -1104.8387820476      7.87E-08
   31   -1104.8387819931      8.47E-08
   32   -1104.8387820673      8.31E-08
   33   -1104.8387818774      1.04E-07
   34   -1104.8387818834      9.75E-08
   35   -1104.8387820959      8.05E-08
   36   -1104.8387821344      7.58E-08
   37   -1104.8387821026      9.53E-08
   38   -1104.8387823796      7.19E-08
   39   -1104.8387824687      5.33E-08
   40   -1104.8387824292      5.61E-08
   41   -1104.8387824607      3.85E-08
   42   -1104.8387824863      3.96E-08
   43   -1104.8387824001      5.06E-08
   44   -1104.8387825744      3.45E-08
   45   -1104.8387821988      4.97E-08
   46   -1104.8387819647      6.29E-08
   47   -1104.8387819778      6.10E-08
   48   -1104.8387820474      3.45E-08
   49   -1104.8387822125      1.76E-08
   50   -1104.8387823377      8.80E-09 Convergence criterion met
 ---------------------------------------
 SCF time:  CPU 20.21 s  wall 17.01 s
 SCF   energy in the final basis set = -1104.8387823377
 Total energy in the final basis set = -1104.8387823377
 
 --------------------------------------------------------------
             Orbital Energies (a.u.) and Symmetries
 --------------------------------------------------------------
 
 Alpha MOs, Restricted
 -- Occupied --                  
-88.919 -88.919 -10.238 -10.238 -10.224 -10.224 -10.204 -10.204
  1 B     1 A     2 A     2 B     3 B     3 A     4 A     4 B                  
-10.203 -10.202  -7.979  -7.979  -5.943  -5.943  -5.939  -5.939
  5 B     5 A     6 B     6 A     7 B     7 A     8 B     8 A                  
 -5.936  -5.936  -0.902  -0.879  -0.773  -0.750  -0.737  -0.706
  9 A     9 B    10 A    10 B    11 A    12 A    11 B    12 B                  
 -0.604  -0.580  -0.554  -0.534  -0.528  -0.477  -0.421  -0.419
 13 A    14 A    13 B    14 B    15 A    15 B    16 A    17 A                  
 -0.409  -0.404  -0.401  -0.375  -0.375  -0.360  -0.343  -0.282
 16 B    17 B    18 A    18 B    19 A    20 A    19 B    20 B                  
 -0.265  -0.258  -0.213
 21 B    21 A    22 A                                                          
 -- Virtual --                   
 -0.057  -0.014  -0.004   0.000   0.006   0.014   0.019   0.027
 22 B    23 A    24 A    23 B    25 A    26 A    24 B    27 A                  
  0.028   0.037   0.039   0.045   0.049   0.060   0.063   0.070
 25 B    28 A    26 B    29 A    27 B    30 A    28 B    29 B                  
  0.076   0.085   0.087   0.095   0.103   0.104   0.107   0.113
 31 A    30 B    31 B    32 A    32 B    33 A    34 A    35 A                  
  0.116   0.123   0.127   0.130   0.136   0.139   0.142   0.145
 33 B    36 A    34 B    37 A    35 B    38 A    36 B    39 A                  
  0.146   0.155   0.161   0.163   0.168   0.178   0.183   0.186
 40 A    37 B    41 A    38 B    39 B    40 B    42 A    41 B                  
  0.187   0.194   0.194   0.208   0.213   0.221   0.222   0.243
 43 A    44 A    42 B    43 B    45 A    46 A    44 B    45 B                  
  0.246   0.261   0.264   0.268   0.272   0.283   0.305   0.309
 47 A    46 B    48 A    47 B    49 A    48 B    50 A    49 B                  
  0.313   0.319   0.326   0.349   0.362   0.376   0.383   0.420
 51 A    52 A    50 B    53 A    51 B    52 B    54 A    53 B                  
  0.449   0.467   0.495   0.534   0.540   0.557   0.568   0.571
 55 A    56 A    54 B    57 A    55 B    56 B    58 A    57 B                  
  0.597   0.621   0.635   0.654   0.659   0.672   0.673   0.682
 59 A    60 A    58 B    61 A    59 B    60 B    62 A    63 A                  
  0.703   0.718   0.722   0.723   0.734   0.752   0.755   0.794
 64 A    61 B    65 A    62 B    63 B    66 A    64 B    67 A                  
  0.804   0.818   0.830   0.848   0.887   0.921   0.933   0.946
 65 B    66 B    68 A    67 B    69 A    68 B    70 A    71 A                  
  0.956   0.958   0.965   0.973   0.988   0.990   1.004   1.013
 69 B    72 A    70 B    71 B    73 A    72 B    73 B    74 A                  
  1.037   1.038   1.080   1.083   1.105   1.111   1.130   1.167
 75 A    76 A    74 B    77 A    75 B    78 A    76 B    77 B                  
  1.172   1.187   1.189   1.253   1.254   1.339   1.342   1.348
 79 A    78 B    80 A    81 A    79 B    82 A    80 B    81 B                  
  1.356   1.371   1.378   1.439   1.501   1.513   1.555   1.599
 83 A    82 B    84 A    83 B    85 A    84 B    86 A    85 B                  
  1.653   1.694   1.716   1.783   1.864   1.876   1.891   1.917
 86 B    87 A    87 B    88 A    89 A    90 A    88 B    89 B                  
  1.928   1.968   1.994   2.014   2.028   2.072   2.090   2.131
 91 A    92 A    90 B    91 B    93 A    94 A    92 B    95 A                  
  2.135   2.178   2.183   2.245   2.250   2.288   2.294   2.365
 93 B    96 A    94 B    95 B    97 A    96 B    98 A    97 B                  
  2.368   2.421   2.455   2.474   2.483   2.499   2.510   2.524
 99 A    98 B   100 A    99 B   101 A   102 A   100 B   101 B                  
  2.549   2.577   2.580   2.598   2.686   2.696   2.726   2.768
103 A   104 A   105 A   102 B   103 B   104 B   106 A   107 A                  
  2.794   2.860   2.945   2.983   3.147   3.221   3.274   3.277
105 B   108 A   106 B   107 B   109 A   108 B   110 A   109 B                  
  3.400   3.437   3.717   3.763   3.943   4.017   4.234   4.303
111 A   110 B   112 A   111 B   113 A   112 B   114 A   115 A                  
  4.305   4.329   4.404   4.548   4.650   4.737
113 B   114 B   116 A   115 B   117 A   116 B                                  
 
 Beta MOs, Restricted
 -- Occupied --                  
-88.919 -88.919 -10.238 -10.238 -10.224 -10.224 -10.204 -10.204
  1 B     1 A     2 A     2 B     3 B     3 A     4 A     4 B                  
-10.203 -10.202  -7.979  -7.979  -5.943  -5.943  -5.939  -5.939
  5 B     5 A     6 B     6 A     7 B     7 A     8 B     8 A                  
 -5.936  -5.936  -0.902  -0.879  -0.773  -0.750  -0.737  -0.706
  9 A     9 B    10 A    10 B    11 A    12 A    11 B    12 B                  
 -0.604  -0.580  -0.554  -0.534  -0.528  -0.477  -0.421  -0.419
 13 A    14 A    13 B    14 B    15 A    15 B    16 A    17 A                  
 -0.409  -0.404  -0.401  -0.375  -0.375  -0.360  -0.343  -0.282
 16 B    17 B    18 A    18 B    19 A    20 A    19 B    20 B                  
 -0.265  -0.258  -0.213
 21 B    21 A    22 A                                                          
 -- Virtual --                   
 -0.057  -0.014  -0.004   0.000   0.006   0.014   0.019   0.027
 22 B    23 A    24 A    23 B    25 A    26 A    24 B    27 A                  
  0.028   0.037   0.039   0.045   0.049   0.060   0.063   0.070
 25 B    28 A    26 B    29 A    27 B    30 A    28 B    29 B                  
  0.076   0.085   0.087   0.095   0.103   0.104   0.107   0.113
 31 A    30 B    31 B    32 A    32 B    33 A    34 A    35 A                  
  0.116   0.123   0.127   0.130   0.136   0.139   0.142   0.145
 33 B    36 A    34 B    37 A    35 B    38 A    36 B    39 A                  
  0.146   0.155   0.161   0.163   0.168   0.178   0.183   0.186
 40 A    37 B    41 A    38 B    39 B    40 B    42 A    41 B                  
  0.187   0.194   0.194   0.208   0.213   0.221   0.222   0.243
 43 A    44 A    42 B    43 B    45 A    46 A    44 B    45 B                  
  0.246   0.261   0.264   0.268   0.272   0.283   0.305   0.309
 47 A    46 B    48 A    47 B    49 A    48 B    50 A    49 B                  
  0.313   0.319   0.326   0.349   0.362   0.376   0.383   0.420
 51 A    52 A    50 B    53 A    51 B    52 B    54 A    53 B                  
  0.449   0.467   0.495   0.534   0.540   0.557   0.568   0.571
 55 A    56 A    54 B    57 A    55 B    56 B    58 A    57 B                  
  0.597   0.621   0.635   0.654   0.659   0.672   0.673   0.682
 59 A    60 A    58 B    61 A    59 B    60 B    62 A    63 A                  
  0.703   0.718   0.722   0.723   0.734   0.752   0.755   0.794
 64 A    61 B    65 A    62 B    63 B    66 A    64 B    67 A                  
  0.804   0.818   0.830   0.848   0.887   0.921   0.933   0.946
 65 B    66 B    68 A    67 B    69 A    68 B    70 A    71 A                  
  0.956   0.958   0.965   0.973   0.988   0.990   1.004   1.013
 69 B    72 A    70 B    71 B    73 A    72 B    73 B    74 A                  
  1.037   1.038   1.080   1.083   1.105   1.111   1.130   1.167
 75 A    76 A    74 B    77 A    75 B    78 A    76 B    77 B                  
  1.172   1.187   1.189   1.253   1.254   1.339   1.342   1.348
 79 A    78 B    80 A    81 A    79 B    82 A    80 B    81 B                  
  1.356   1.371   1.378   1.439   1.501   1.513   1.555   1.599
 83 A    82 B    84 A    83 B    85 A    84 B    86 A    85 B                  
  1.653   1.694   1.716   1.783   1.864   1.876   1.891   1.917
 86 B    87 A    87 B    88 A    89 A    90 A    88 B    89 B                  
  1.928   1.968   1.994   2.014   2.028   2.072   2.090   2.131
 91 A    92 A    90 B    91 B    93 A    94 A    92 B    95 A                  
  2.135   2.178   2.183   2.245   2.250   2.288   2.294   2.365
 93 B    96 A    94 B    95 B    97 A    96 B    98 A    97 B                  
  2.368   2.421   2.455   2.474   2.483   2.499   2.510   2.524
 99 A    98 B   100 A    99 B   101 A   102 A   100 B   101 B                  
  2.549   2.577   2.580   2.598   2.686   2.696   2.726   2.768
103 A   104 A   105 A   102 B   103 B   104 B   106 A   107 A                  
  2.794   2.860   2.945   2.983   3.147   3.221   3.274   3.277
105 B   108 A   106 B   107 B   109 A   108 B   110 A   109 B                  
  3.400   3.437   3.717   3.763   3.943   4.017   4.234   4.303
111 A   110 B   112 A   111 B   113 A   112 B   114 A   115 A                  
  4.305   4.329   4.404   4.548   4.650   4.737
113 B   114 B   116 A   115 B   117 A   116 B                                  
 --------------------------------------------------------------
 
          Ground-State Mulliken Net Atomic Charges

     Atom                 Charge (a.u.)
  ----------------------------------------
      1 S                    -0.136916
      2 C                     0.009838
      3 C                    -0.341338
      4 C                     0.343932
      5 C                    -0.309526
      6 H                     0.116532
      7 C                    -0.309526
      8 S                    -0.136916
      9 C                     0.343932
     10 C                     0.009839
     11 C                    -0.341338
     12 H                     0.120360
     13 H                     0.197118
     14 H                     0.120360
     15 H                     0.197118
     16 H                     0.116532
  ----------------------------------------
  Sum of atomic charges =    -0.000000

 -----------------------------------------------------------------
                    Cartesian Multipole Moments
 -----------------------------------------------------------------
    Charge (ESU x 10^10)
                -0.0000
    Dipole Moment (Debye)
         X      -0.0000      Y       0.0000      Z      -1.0221
       Tot       1.0221
    Quadrupole Moments (Debye-Ang)
        XX     -60.8966     XY       0.1956     YY     -78.5423
        XZ       0.0000     YZ       0.0000     ZZ     -67.7960
    Octopole Moments (Debye-Ang^2)
       XXX      -0.0000    XXY       0.0000    XYY      -0.0000
       YYY       0.0000    XXZ       5.2602    XYZ      -4.9579
       YYZ       3.2743    XZZ      -0.0000    YZZ       0.0000
       ZZZ      -7.8241
    Hexadecapole Moments (Debye-Ang^3)
      XXXX   -1864.3516   XXXY      -3.0094   XXYY    -418.6278
      XYYY      -3.7049   YYYY    -119.1170   XXXZ      -0.0000
      XXYZ       0.0000   XYYZ      -0.0000   YYYZ       0.0000
      XXZZ    -401.8477   XYZZ       4.3941   YYZZ    -122.5108
      XZZZ      -0.0000   YZZZ       0.0000   ZZZZ    -540.5342
 -----------------------------------------------------------------
 Calculating analytic gradient of the SCF energy
 Gradient of SCF Energy
            1           2           3           4           5           6
    1  -0.0016330  -0.0006023  -0.0005496   0.0002776   0.0012010   0.0002975
    2   0.0018148  -0.0009701   0.0013087   0.0015779  -0.0007280  -0.0018713
    3  -0.0006333  -0.0036975   0.0029831   0.0038557  -0.0037199   0.0009624
            7           8           9          10          11          12
    1  -0.0012010   0.0016330  -0.0002776   0.0006023   0.0005496   0.0010848
    2   0.0007280  -0.0018148  -0.0015779   0.0009701  -0.0013087   0.0002547
    3  -0.0037199  -0.0006333   0.0038557  -0.0036975   0.0029831   0.0010101
           13          14          15          16
    1  -0.0013801  -0.0010848   0.0013801  -0.0002975
    2  -0.0005279  -0.0002547   0.0005279   0.0018713
    3  -0.0007605   0.0010101  -0.0007605   0.0009624
 Max gradient component =       3.856E-03
 RMS gradient           =       1.768E-03
 Gradient time:  CPU 1.95 s  wall 1.93 s
 Geometry Optimization Parameters
   NAtoms,    NIC,     NZ,  NCons,   NDum,   NFix, NCnnct, MaxDiis
       16     111       0       1       0       0       0       0


** CONSTRAINED OPTIMIZATION IN DELOCALIZED INTERNAL COORDINATES **
   Searching for a Minimum

   Optimization Cycle:   1

                       Coordinates (Angstroms)
     ATOM                X               Y               Z
      1  S         1.6273986232   -0.2147878096    1.1341676169
      2  C         3.1400062790   -0.0522338115    0.3050206447
      3  C         2.9596869579    0.1847580405   -1.0279220597
      4  C         1.5878731188    0.2236951353   -1.4023759951
      5  C         0.7254234155    0.0174791835   -0.3510253054
      6  H         1.2466365592    0.3738060135   -2.4184719890
      7  C        -0.7254234155   -0.0174791835   -0.3510253054
      8  S        -1.6273986232    0.2147878096    1.1341676169
      9  C        -1.5878731188   -0.2236951353   -1.4023759951
     10  C        -3.1400062790    0.0522338115    0.3050206447
     11  C        -2.9596869579   -0.1847580405   -1.0279220597
     12  H        -3.7772835031   -0.3172227666   -1.7241281201
     13  H         4.0650034246   -0.1416132550    0.8537339168
     14  H         3.7772835031    0.3172227666   -1.7241281201
     15  H        -4.0650034246    0.1416132550    0.8537339168
     16  H        -1.2466365592   -0.3738060135   -2.4184719890
   Point Group: c2    Number of degrees of freedom:    22


   Energy is  -1104.838782338

              Constraints and their Current Values
                                        Value     Constraint
   Dihedral:        4   5   7   9       20.000       20.000

 Attempting to Generate Delocalized Internal Coordinates

 21 Hessian modes will be used to form the next step
  Hessian Eigenvalues:
     0.045000    0.045000    0.045000    0.045002    0.045004    0.045013
     0.159937    0.159990    0.160000    0.221280    0.237833    0.249997
     0.296078    0.314672    0.357149    0.357543    0.360899    0.380793
     0.408411    0.470750    0.505998

 Minimum Search - Taking Simple RFO Step
 Searching for Lamda that Minimizes Along All modes
 Value Taken    Lamda =  -0.00098358
 Step Taken.  Stepsize is  0.095947

                             Maximum     Tolerance    Cnvgd?
         Gradient           0.007576      0.000300      NO
         Displacement       0.076473      0.001200      NO
         Energy change     *********      0.000001      NO


 New Cartesian Coordinates Obtained by Inverse Iteration

 Displacement from previous Coordinates is:  0.235974
 ----------------------------------------------------------------
             Standard Nuclear Orientation (Angstroms)
    I     Atom           X                Y                Z
 ----------------------------------------------------------------
    1      S       1.6613025681    -0.2345258966     1.1465728778
    2      C       3.1616537672    -0.0522923107     0.2955130823
    3      C       2.9569694254     0.1745304373    -1.0402131077
    4      C       1.5758160145     0.2168703453    -1.3907112026
    5      C       0.7279181018     0.0130424082    -0.3210749438
    6      H       1.2172939525     0.3840881911    -2.4001418561
    7      C      -0.7279181018    -0.0130424082    -0.3210749438
    8      S      -1.6613025681     0.2345258966     1.1465728778
    9      C      -1.5758160145    -0.2168703453    -1.3907112026
   10      C      -3.1616537672     0.0522923107     0.2955130823
   11      C      -2.9569694254    -0.1745304373    -1.0402131077
   12      H      -3.7633183587    -0.3134724068    -1.7515561723
   13      H       4.0981976634    -0.1302180796     0.8306100315
   14      H       3.7633183587     0.3134724068    -1.7515561723
   15      H      -4.0981976634     0.1302180796     0.8306100315
   16      H      -1.2172939525    -0.3840881911    -2.4001418561
 ----------------------------------------------------------------
 Molecular Point Group                 C2    NOp =  2
 Largest Abelian Subgroup              C2    NOp =  2
 Nuclear Repulsion Energy =   631.3794669998 hartrees
 There are       43 alpha and       43 beta electrons
 Applying Cartesian multipole field
    Component          Value
    ---------          -----
     (2,0,0)        1.00000E-11
     (0,2,0)        2.00000E-11
     (0,0,2)       -3.00000E-11
 Nucleus-field energy     =     0.0000000044 hartrees
 Requested basis set is 6-31++G(d,p)
 There are 76 shells and 234 basis functions
 A cutoff of  1.0D-11 yielded   2491 shell pairs
 There are     24603 function pairs
 Smallest overlap matrix eigenvalue = 9.25E-07

 Q-Chem warning in module /project/projectdirs/jcesr/qchem/qc44/cnl_qc441/compile/cori/qc_src/stvman/mkSTV.C, line 257:

 Overlap eigenvalue is smaller than square root of threshold

 Linear dependence detected in AO basis
 Number of orthogonalized atomic orbitals = 233
 Maximum deviation from orthogonality = 7.252E-11
 Guess MOs from SCF MO coefficient file
 Reading MOs from coefficient file
 Reading MOs from coefficient file
 A restricted hybrid HF-DFT SCF calculation will be
 performed using Pulay DIIS extrapolation
 Exchange:     0.2000 Hartree-Fock + 0.0800 Slater + 0.7200 B88
 Correlation:  0.1900 VWN1RPA + 0.8100 LYP
 Using SG-1 standard quadrature grid
 SCF converges when DIIS error is below 1.0E-08
 Geometry optimization detected.  Setting ReadMinima to 0
 Setting SaveMinima to 0
 ---------------------------------------
  Cycle       Energy         DIIS Error
 ---------------------------------------
    1   -1104.8064470686      9.46E-04
    2   -1104.8387000288      2.74E-04
    3   -1104.8368095806      5.67E-04
    4   -1104.8393164355      3.79E-05
    5   -1104.8393250454      1.70E-05
    6   -1104.8393269794      5.41E-06
    7   -1104.8393272009      1.79E-06
    8   -1104.8393272203      4.40E-07
    9   -1104.8393272216      9.59E-08
   10   -1104.8393272228      2.96E-08
   11   -1104.8393272230      1.04E-08
   12   -1104.8393272242      1.83E-09 Convergence criterion met
 ---------------------------------------
 SCF time:  CPU 6.28 s  wall 5.59 s
 SCF   energy in the final basis set = -1104.8393272242
 Total energy in the final basis set = -1104.8393272242
 
 --------------------------------------------------------------
             Orbital Energies (a.u.) and Symmetries
 --------------------------------------------------------------
 
 Alpha MOs, Restricted
 -- Occupied --                  
-88.920 -88.920 -10.240 -10.239 -10.225 -10.225 -10.205 -10.205
  1 B     1 A     2 A     2 B     3 B     3 A     4 A     4 B                  
-10.204 -10.204  -7.979  -7.979  -5.943  -5.943  -5.940  -5.940
  5 B     5 A     6 B     6 A     7 B     7 A     8 B     8 A                  
 -5.936  -5.936  -0.900  -0.878  -0.771  -0.749  -0.737  -0.705
  9 A     9 B    10 A    10 B    11 A    12 A    11 B    12 B                  
 -0.604  -0.579  -0.554  -0.533  -0.527  -0.477  -0.421  -0.418
 13 A    14 A    13 B    14 B    15 A    15 B    16 A    17 A                  
 -0.408  -0.404  -0.401  -0.376  -0.374  -0.359  -0.343  -0.281
 16 B    17 B    18 A    18 B    19 A    20 A    19 B    20 B                  
 -0.264  -0.258  -0.213
 21 B    21 A    22 A                                                          
 -- Virtual --                   
 -0.058  -0.014  -0.004  -0.000   0.004   0.014   0.019   0.027
 22 B    23 A    24 A    23 B    25 A    26 A    24 B    27 A                  
  0.027   0.037   0.039   0.045   0.049   0.060   0.063   0.069
 25 B    28 A    26 B    29 A    27 B    30 A    28 B    29 B                  
  0.075   0.083   0.088   0.094   0.102   0.103   0.107   0.112
 31 A    30 B    31 B    32 A    32 B    33 A    34 A    35 A                  
  0.115   0.123   0.126   0.129   0.136   0.139   0.141   0.144
 33 B    36 A    34 B    37 A    35 B    38 A    36 B    39 A                  
  0.146   0.153   0.161   0.162   0.167   0.178   0.183   0.185
 40 A    37 B    41 A    38 B    39 B    40 B    42 A    41 B                  
  0.187   0.193   0.195   0.207   0.212   0.220   0.222   0.240
 43 A    42 B    44 A    43 B    45 A    46 A    44 B    45 B                  
  0.245   0.261   0.263   0.267   0.272   0.282   0.304   0.308
 47 A    46 B    48 A    47 B    49 A    48 B    50 A    49 B                  
  0.313   0.317   0.326   0.348   0.360   0.375   0.382   0.418
 51 A    52 A    50 B    53 A    51 B    52 B    54 A    53 B                  
  0.445   0.466   0.496   0.532   0.536   0.554   0.567   0.568
 55 A    56 A    54 B    57 A    55 B    56 B    57 B    58 A                  
  0.599   0.622   0.633   0.653   0.660   0.670   0.671   0.681
 59 A    60 A    58 B    61 A    59 B    62 A    60 B    63 A                  
  0.703   0.716   0.722   0.722   0.734   0.750   0.752   0.792
 64 A    61 B    65 A    62 B    63 B    64 B    66 A    67 A                  
  0.800   0.817   0.830   0.846   0.885   0.918   0.934   0.949
 65 B    66 B    68 A    67 B    69 A    68 B    70 A    71 A                  
  0.954   0.957   0.963   0.975   0.987   0.995   1.007   1.010
 69 B    72 A    70 B    71 B    73 A    72 B    73 B    74 A                  
  1.035   1.037   1.077   1.081   1.102   1.107   1.129   1.166
 75 A    76 A    74 B    77 A    75 B    78 A    76 B    77 B                  
  1.170   1.186   1.186   1.250   1.252   1.335   1.342   1.352
 79 A    78 B    80 A    81 A    79 B    80 B    82 A    81 B                  
  1.356   1.369   1.375   1.438   1.496   1.508   1.550   1.593
 83 A    82 B    84 A    83 B    85 A    84 B    86 A    85 B                  
  1.650   1.693   1.715   1.781   1.862   1.873   1.887   1.912
 86 B    87 A    87 B    88 A    89 A    90 A    88 B    89 B                  
  1.923   1.967   1.989   2.009   2.020   2.069   2.082   2.131
 91 A    92 A    90 B    91 B    93 A    94 A    92 B    95 A                  
  2.134   2.175   2.179   2.239   2.244   2.285   2.292   2.363
 93 B    96 A    94 B    95 B    97 A    96 B    98 A    97 B                  
  2.366   2.418   2.454   2.471   2.473   2.501   2.505   2.520
 99 A    98 B   100 A    99 B   101 A   102 A   100 B   101 B                  
  2.542   2.571   2.577   2.594   2.680   2.689   2.720   2.761
103 A   104 A   105 A   102 B   103 B   104 B   106 A   107 A                  
  2.792   2.855   2.935   2.971   3.140   3.211   3.269   3.271
105 B   108 A   106 B   107 B   109 A   108 B   110 A   109 B                  
  3.395   3.430   3.708   3.754   3.943   4.013   4.234   4.300
111 A   110 B   112 A   111 B   113 A   112 B   114 A   115 A                  
  4.301   4.327   4.401   4.541   4.646   4.729
113 B   114 B   116 A   115 B   117 A   116 B                                  
 
 Beta MOs, Restricted
 -- Occupied --                  
-88.920 -88.920 -10.240 -10.239 -10.225 -10.225 -10.205 -10.205
  1 B     1 A     2 A     2 B     3 B     3 A     4 A     4 B                  
-10.204 -10.204  -7.979  -7.979  -5.943  -5.943  -5.940  -5.940
  5 B     5 A     6 B     6 A     7 B     7 A     8 B     8 A                  
 -5.936  -5.936  -0.900  -0.878  -0.771  -0.749  -0.737  -0.705
  9 A     9 B    10 A    10 B    11 A    12 A    11 B    12 B                  
 -0.604  -0.579  -0.554  -0.533  -0.527  -0.477  -0.421  -0.418
 13 A    14 A    13 B    14 B    15 A    15 B    16 A    17 A                  
 -0.408  -0.404  -0.401  -0.376  -0.374  -0.359  -0.343  -0.281
 16 B    17 B    18 A    18 B    19 A    20 A    19 B    20 B                  
 -0.264  -0.258  -0.213
 21 B    21 A    22 A                                                          
 -- Virtual --                   
 -0.058  -0.014  -0.004  -0.000   0.004   0.014   0.019   0.027
 22 B    23 A    24 A    23 B    25 A    26 A    24 B    27 A                  
  0.027   0.037   0.039   0.045   0.049   0.060   0.063   0.069
 25 B    28 A    26 B    29 A    27 B    30 A    28 B    29 B                  
  0.075   0.083   0.088   0.094   0.102   0.103   0.107   0.112
 31 A    30 B    31 B    32 A    32 B    33 A    34 A    35 A                  
  0.115   0.123   0.126   0.129   0.136   0.139   0.141   0.144
 33 B    36 A    34 B    37 A    35 B    38 A    36 B    39 A                  
  0.146   0.153   0.161   0.162   0.167   0.178   0.183   0.185
 40 A    37 B    41 A    38 B    39 B    40 B    42 A    41 B                  
  0.187   0.193   0.195   0.207   0.212   0.220   0.222   0.240
 43 A    42 B    44 A    43 B    45 A    46 A    44 B    45 B                  
  0.245   0.261   0.263   0.267   0.272   0.282   0.304   0.308
 47 A    46 B    48 A    47 B    49 A    48 B    50 A    49 B                  
  0.313   0.317   0.326   0.348   0.360   0.375   0.382   0.418
 51 A    52 A    50 B    53 A    51 B    52 B    54 A    53 B                  
  0.445   0.466   0.496   0.532   0.536   0.554   0.567   0.568
 55 A    56 A    54 B    57 A    55 B    56 B    57 B    58 A                  
  0.599   0.622   0.633   0.653   0.660   0.670   0.671   0.681
 59 A    60 A    58 B    61 A    59 B    62 A    60 B    63 A                  
  0.703   0.716   0.722   0.722   0.734   0.750   0.752   0.792
 64 A    61 B    65 A    62 B    63 B    64 B    66 A    67 A                  
  0.800   0.817   0.830   0.846   0.885   0.918   0.934   0.949
 65 B    66 B    68 A    67 B    69 A    68 B    70 A    71 A                  
  0.954   0.957   0.963   0.975   0.987   0.995   1.007   1.010
 69 B    72 A    70 B    71 B    73 A    72 B    73 B    74 A                  
  1.035   1.037   1.077   1.081   1.102   1.107   1.129   1.166
 75 A    76 A    74 B    77 A    75 B    78 A    76 B    77 B                  
  1.170   1.186   1.186   1.250   1.252   1.335   1.342   1.352
 79 A    78 B    80 A    81 A    79 B    80 B    82 A    81 B                  
  1.356   1.369   1.375   1.438   1.496   1.508   1.550   1.593
 83 A    82 B    84 A    83 B    85 A    84 B    86 A    85 B                  
  1.650   1.693   1.715   1.781   1.862   1.873   1.887   1.912
 86 B    87 A    87 B    88 A    89 A    90 A    88 B    89 B                  
  1.923   1.967   1.989   2.009   2.020   2.069   2.082   2.131
 91 A    92 A    90 B    91 B    93 A    94 A    92 B    95 A                  
  2.134   2.175   2.179   2.239   2.244   2.285   2.292   2.363
 93 B    96 A    94 B    95 B    97 A    96 B    98 A    97 B                  
  2.366   2.418   2.454   2.471   2.473   2.501   2.505   2.520
 99 A    98 B   100 A    99 B   101 A   102 A   100 B   101 B                  
  2.542   2.571   2.577   2.594   2.680   2.689   2.720   2.761
103 A   104 A   105 A   102 B   103 B   104 B   106 A   107 A                  
  2.792   2.855   2.935   2.971   3.140   3.211   3.269   3.271
105 B   108 A   106 B   107 B   109 A   108 B   110 A   109 B                  
  3.395   3.430   3.708   3.754   3.943   4.013   4.234   4.300
111 A   110 B   112 A   111 B   113 A   112 B   114 A   115 A                  
  4.301   4.327   4.401   4.541   4.646   4.729
113 B   114 B   116 A   115 B   117 A   116 B                                  
 --------------------------------------------------------------
 
          Ground-State Mulliken Net Atomic Charges

     Atom                 Charge (a.u.)
  ----------------------------------------
      1 S                    -0.112129
      2 C                    -0.001989
      3 C                    -0.327988
      4 C                     0.295477
      5 C                    -0.287647
      6 H                     0.116184
      7 C                    -0.287647
      8 S                    -0.112129
      9 C                     0.295477
     10 C                    -0.001989
     11 C                    -0.327988
     12 H                     0.121388
     13 H                     0.196705
     14 H                     0.121388
     15 H                     0.196705
     16 H                     0.116184
  ----------------------------------------
  Sum of atomic charges =    -0.000000

 -----------------------------------------------------------------
                    Cartesian Multipole Moments
 -----------------------------------------------------------------
    Charge (ESU x 10^10)
                 0.0000
    Dipole Moment (Debye)
         X      -0.0000      Y      -0.0000      Z      -1.0345
       Tot       1.0345
    Quadrupole Moments (Debye-Ang)
        XX     -60.8173     XY       0.2955     YY     -78.6277
        XZ      -0.0000     YZ       0.0000     ZZ     -67.9127
    Octopole Moments (Debye-Ang^2)
       XXX      -0.0000    XXY      -0.0000    XYY      -0.0000
       YYY      -0.0000    XXZ       4.8665    XYZ      -4.9893
       YYZ       2.8186    XZZ      -0.0000    YZZ      -0.0000
       ZZZ      -9.4113
    Hexadecapole Moments (Debye-Ang^3)
      XXXX   -1881.4220   XXXY       3.0255   XXYY    -423.7340
      XYYY       1.1969   YYYY    -120.3598   XXXZ      -0.0000
      XXYZ       0.0000   XYYZ      -0.0000   YYYZ       0.0000
      XXZZ    -406.5277   XYZZ       6.1329   YYZZ    -122.9739
      XZZZ       0.0000   YZZZ       0.0000   ZZZZ    -544.0333
 -----------------------------------------------------------------
 Calculating analytic gradient of the SCF energy
 Gradient of SCF Energy
            1           2           3           4           5           6
    1   0.0002005   0.0004244   0.0005115  -0.0002208   0.0002338  -0.0001002
    2  -0.0000081   0.0000702   0.0001873   0.0013376  -0.0007616  -0.0011826
    3   0.0004087   0.0000585   0.0003465   0.0008495  -0.0012762  -0.0003438
            7           8           9          10          11          12
    1  -0.0002338  -0.0002005   0.0002208  -0.0004244  -0.0005115  -0.0000763
    2   0.0007616   0.0000081  -0.0013376  -0.0000702  -0.0001873   0.0000247
    3  -0.0012762   0.0004087   0.0008495   0.0000585   0.0003465  -0.0000494
           13          14          15          16
    1   0.0001323   0.0000763  -0.0001323   0.0001002
    2  -0.0002127  -0.0000247   0.0002127   0.0011826
    3   0.0000064  -0.0000494   0.0000064  -0.0003438
 Max gradient component =       1.338E-03
 RMS gradient           =       5.490E-04
 Gradient time:  CPU 1.95 s  wall 1.90 s
 Geometry Optimization Parameters
   NAtoms,    NIC,     NZ,  NCons,   NDum,   NFix, NCnnct, MaxDiis
       16     111       0       1       0       0       0       0

 Cartesian Hessian Update
 Hessian Updated using BFGS Update


** CONSTRAINED OPTIMIZATION IN DELOCALIZED INTERNAL COORDINATES **
   Searching for a Minimum

   Optimization Cycle:   2

                       Coordinates (Angstroms)
     ATOM                X               Y               Z
      1  S         1.6613025681   -0.2345258966    1.1465728778
      2  C         3.1616537672   -0.0522923107    0.2955130823
      3  C         2.9569694254    0.1745304373   -1.0402131077
      4  C         1.5758160145    0.2168703453   -1.3907112026
      5  C         0.7279181018    0.0130424082   -0.3210749438
      6  H         1.2172939525    0.3840881911   -2.4001418561
      7  C        -0.7279181018   -0.0130424082   -0.3210749438
      8  S        -1.6613025681    0.2345258966    1.1465728778
      9  C        -1.5758160145   -0.2168703453   -1.3907112026
     10  C        -3.1616537672    0.0522923107    0.2955130823
     11  C        -2.9569694254   -0.1745304373   -1.0402131077
     12  H        -3.7633183587   -0.3134724068   -1.7515561723
     13  H         4.0981976634   -0.1302180796    0.8306100315
     14  H         3.7633183587    0.3134724068   -1.7515561723
     15  H        -4.0981976634    0.1302180796    0.8306100315
     16  H        -1.2172939525   -0.3840881911   -2.4001418561
   Point Group: c2    Number of degrees of freedom:    22


   Energy is  -1104.839327224

              Constraints and their Current Values
                                        Value     Constraint
   Dihedral:        4   5   7   9       20.000       20.000
 Hessian Updated using BFGS Update

 21 Hessian modes will be used to form the next step
  Hessian Eigenvalues:
     0.035397    0.045000    0.045000    0.045002    0.045008    0.047881
     0.159840    0.159983    0.160044    0.220554    0.223819    0.246874
     0.302677    0.315164    0.357308    0.358429    0.361933    0.388837
     0.432547    0.470989    0.519227

 Minimum Search - Taking Simple RFO Step
 Searching for Lamda that Minimizes Along All modes
 Value Taken    Lamda =  -0.00012704
 Step Taken.  Stepsize is  0.052430

                             Maximum     Tolerance    Cnvgd?
         Gradient           0.001847      0.000300      NO
         Displacement       0.036306      0.001200      NO
         Energy change     -0.000545      0.000001      NO


 New Cartesian Coordinates Obtained by Inverse Iteration

 Displacement from previous Coordinates is:  0.103243
 ----------------------------------------------------------------
             Standard Nuclear Orientation (Angstroms)
    I     Atom           X                Y                Z
 ----------------------------------------------------------------
    1      S       1.6677206325    -0.2425614071     1.1505538725
    2      C       3.1620391749    -0.0575964203     0.2897480252
    3      C       2.9500801750     0.1721009516    -1.0449032763
    4      C       1.5676384181     0.2183763469    -1.3860179643
    5      C       0.7271923740     0.0132572885    -0.3098029859
    6      H       1.2027546196     0.4028062573    -2.3900665114
    7      C      -0.7271923740    -0.0132572885    -0.3098029859
    8      S      -1.6677206325     0.2425614071     1.1505538725
    9      C      -1.5676384181    -0.2183763469    -1.3860179643
   10      C      -3.1620391749     0.0575964203     0.2897480252
   11      C      -2.9500801750    -0.1721009516    -1.0449032763
   12      H      -3.7521977631    -0.3165698073    -1.7600695465
   13      H       4.1017722172    -0.1335646740     0.8195570958
   14      H       3.7521977631     0.3165698073    -1.7600695465
   15      H      -4.1017722172     0.1335646740     0.8195570958
   16      H      -1.2027546196    -0.4028062573    -2.3900665114
 ----------------------------------------------------------------
 Molecular Point Group                 C2    NOp =  2
 Largest Abelian Subgroup              C2    NOp =  2
 Nuclear Repulsion Energy =   631.3479695338 hartrees
 There are       43 alpha and       43 beta electrons
 Applying Cartesian multipole field
    Component          Value
    ---------          -----
     (2,0,0)        1.00000E-11
     (0,2,0)        2.00000E-11
     (0,0,2)       -3.00000E-11
 Nucleus-field energy     =     0.0000000044 hartrees
 Requested basis set is 6-31++G(d,p)
 There are 76 shells and 234 basis functions
 A cutoff of  1.0D-11 yielded   2493 shell pairs
 There are     24627 function pairs
 Smallest overlap matrix eigenvalue = 9.07E-07

 Q-Chem warning in module /project/projectdirs/jcesr/qchem/qc44/cnl_qc441/compile/cori/qc_src/stvman/mkSTV.C, line 257:

 Overlap eigenvalue is smaller than square root of threshold

 Linear dependence detected in AO basis
 Number of orthogonalized atomic orbitals = 233
 Maximum deviation from orthogonality = 1.357E-10
 Guess MOs from SCF MO coefficient file
 Reading MOs from coefficient file
 Reading MOs from coefficient file
 A restricted hybrid HF-DFT SCF calculation will be
 performed using Pulay DIIS extrapolation
 Exchange:     0.2000 Hartree-Fock + 0.0800 Slater + 0.7200 B88
 Correlation:  0.1900 VWN1RPA + 0.8100 LYP
 Using SG-1 standard quadrature grid
 SCF converges when DIIS error is below 1.0E-08
 Geometry optimization detected.  Setting ReadMinima to 0
 Setting SaveMinima to 0
 ---------------------------------------
  Cycle       Energy         DIIS Error
 ---------------------------------------
    1   -1104.8384851046      3.75E-04
    2   -1104.8393361479      9.76E-05
    3   -1104.8391247201      1.93E-04
    4   -1104.8394108069      1.98E-05
    5   -1104.8394135393      6.39E-06
    6   -1104.8394137842      2.73E-06
    7   -1104.8394138406      7.55E-07
    8   -1104.8394138458      2.29E-07
    9   -1104.8394138462      3.86E-08
   10   -1104.8394138474      8.58E-09 Convergence criterion met
 ---------------------------------------
 SCF time:  CPU 5.44 s  wall 4.75 s
 SCF   energy in the final basis set = -1104.8394138474
 Total energy in the final basis set = -1104.8394138474
 
 --------------------------------------------------------------
             Orbital Energies (a.u.) and Symmetries
 --------------------------------------------------------------
 
 Alpha MOs, Restricted
 -- Occupied --                  
-88.920 -88.920 -10.239 -10.239 -10.225 -10.225 -10.205 -10.205
  1 B     1 A     2 A     2 B     3 B     3 A     4 A     4 B                  
-10.203 -10.203  -7.979  -7.979  -5.944  -5.944  -5.940  -5.940
  5 B     5 A     6 B     6 A     7 B     7 A     8 B     8 A                  
 -5.937  -5.937  -0.900  -0.878  -0.771  -0.749  -0.737  -0.705
  9 A     9 B    10 A    10 B    11 A    12 A    11 B    12 B                  
 -0.604  -0.579  -0.554  -0.533  -0.527  -0.477  -0.421  -0.418
 13 A    14 A    13 B    14 B    15 A    15 B    16 A    17 A                  
 -0.408  -0.403  -0.401  -0.376  -0.374  -0.359  -0.344  -0.281
 16 B    17 B    18 A    18 B    19 A    20 A    19 B    20 B                  
 -0.265  -0.259  -0.213
 21 B    21 A    22 A                                                          
 -- Virtual --                   
 -0.058  -0.014  -0.004  -0.000   0.004   0.014   0.019   0.026
 22 B    23 A    24 A    23 B    25 A    26 A    24 B    27 A                  
  0.027   0.037   0.039   0.046   0.048   0.059   0.062   0.070
 25 B    28 A    26 B    29 A    27 B    30 A    28 B    29 B                  
  0.074   0.082   0.088   0.095   0.102   0.103   0.107   0.112
 31 A    30 B    31 B    32 A    32 B    33 A    34 A    35 A                  
  0.115   0.124   0.126   0.130   0.136   0.139   0.141   0.145
 33 B    36 A    34 B    37 A    35 B    38 A    36 B    39 A                  
  0.145   0.152   0.161   0.162   0.167   0.178   0.183   0.185
 40 A    37 B    41 A    38 B    39 B    40 B    42 A    41 B                  
  0.186   0.194   0.195   0.208   0.213   0.220   0.222   0.240
 43 A    42 B    44 A    43 B    45 A    46 A    44 B    45 B                  
  0.245   0.261   0.263   0.266   0.272   0.281   0.304   0.308
 47 A    46 B    48 A    47 B    49 A    48 B    50 A    49 B                  
  0.312   0.317   0.326   0.349   0.359   0.375   0.382   0.418
 51 A    52 A    50 B    53 A    51 B    52 B    54 A    53 B                  
  0.445   0.466   0.496   0.531   0.536   0.554   0.566   0.568
 55 A    56 A    54 B    57 A    55 B    56 B    57 B    58 A                  
  0.599   0.624   0.633   0.653   0.661   0.670   0.670   0.680
 59 A    60 A    58 B    61 A    59 B    62 A    60 B    63 A                  
  0.704   0.715   0.722   0.723   0.734   0.751   0.753   0.792
 64 A    61 B    65 A    62 B    63 B    64 B    66 A    67 A                  
  0.799   0.817   0.830   0.846   0.885   0.918   0.935   0.950
 65 B    66 B    68 A    67 B    69 A    68 B    70 A    71 A                  
  0.954   0.956   0.962   0.975   0.988   0.995   1.008   1.009
 69 B    72 A    70 B    71 B    73 A    72 B    73 B    74 A                  
  1.035   1.039   1.078   1.081   1.102   1.107   1.129   1.167
 75 A    76 A    74 B    77 A    75 B    78 A    76 B    77 B                  
  1.170   1.186   1.187   1.250   1.250   1.332   1.342   1.355
 79 A    78 B    80 A    81 A    79 B    80 B    82 A    81 B                  
  1.356   1.368   1.376   1.440   1.494   1.508   1.550   1.589
 83 A    82 B    84 A    83 B    85 A    84 B    86 A    85 B                  
  1.653   1.693   1.715   1.782   1.862   1.874   1.887   1.911
 86 B    87 A    87 B    88 A    89 A    90 A    88 B    89 B                  
  1.923   1.968   1.988   2.011   2.020   2.071   2.080   2.132
 91 A    92 A    90 B    91 B    93 A    94 A    92 B    95 A                  
  2.135   2.177   2.179   2.239   2.243   2.286   2.294   2.363
 93 B    96 A    94 B    95 B    97 A    96 B    98 A    97 B                  
  2.366   2.419   2.454   2.469   2.472   2.504   2.505   2.520
 99 A    98 B   100 A   101 A    99 B   102 A   100 B   101 B                  
  2.541   2.571   2.577   2.594   2.680   2.689   2.720   2.761
103 A   104 A   105 A   102 B   103 B   104 B   106 A   107 A                  
  2.795   2.856   2.934   2.969   3.140   3.211   3.269   3.271
105 B   108 A   106 B   107 B   109 A   108 B   110 A   109 B                  
  3.396   3.430   3.708   3.754   3.943   4.012   4.235   4.300
111 A   110 B   112 A   111 B   113 A   112 B   114 A   113 B                  
  4.300   4.328   4.401   4.541   4.646   4.729
115 A   114 B   116 A   115 B   117 A   116 B                                  
 
 Beta MOs, Restricted
 -- Occupied --                  
-88.920 -88.920 -10.239 -10.239 -10.225 -10.225 -10.205 -10.205
  1 B     1 A     2 A     2 B     3 B     3 A     4 A     4 B                  
-10.203 -10.203  -7.979  -7.979  -5.944  -5.944  -5.940  -5.940
  5 B     5 A     6 B     6 A     7 B     7 A     8 B     8 A                  
 -5.937  -5.937  -0.900  -0.878  -0.771  -0.749  -0.737  -0.705
  9 A     9 B    10 A    10 B    11 A    12 A    11 B    12 B                  
 -0.604  -0.579  -0.554  -0.533  -0.527  -0.477  -0.421  -0.418
 13 A    14 A    13 B    14 B    15 A    15 B    16 A    17 A                  
 -0.408  -0.403  -0.401  -0.376  -0.374  -0.359  -0.344  -0.281
 16 B    17 B    18 A    18 B    19 A    20 A    19 B    20 B                  
 -0.265  -0.259  -0.213
 21 B    21 A    22 A                                                          
 -- Virtual --                   
 -0.058  -0.014  -0.004  -0.000   0.004   0.014   0.019   0.026
 22 B    23 A    24 A    23 B    25 A    26 A    24 B    27 A                  
  0.027   0.037   0.039   0.046   0.048   0.059   0.062   0.070
 25 B    28 A    26 B    29 A    27 B    30 A    28 B    29 B                  
  0.074   0.082   0.088   0.095   0.102   0.103   0.107   0.112
 31 A    30 B    31 B    32 A    32 B    33 A    34 A    35 A                  
  0.115   0.124   0.126   0.130   0.136   0.139   0.141   0.145
 33 B    36 A    34 B    37 A    35 B    38 A    36 B    39 A                  
  0.145   0.152   0.161   0.162   0.167   0.178   0.183   0.185
 40 A    37 B    41 A    38 B    39 B    40 B    42 A    41 B                  
  0.186   0.194   0.195   0.208   0.213   0.220   0.222   0.240
 43 A    42 B    44 A    43 B    45 A    46 A    44 B    45 B                  
  0.245   0.261   0.263   0.266   0.272   0.281   0.304   0.308
 47 A    46 B    48 A    47 B    49 A    48 B    50 A    49 B                  
  0.312   0.317   0.326   0.349   0.359   0.375   0.382   0.418
 51 A    52 A    50 B    53 A    51 B    52 B    54 A    53 B                  
  0.445   0.466   0.496   0.531   0.536   0.554   0.566   0.568
 55 A    56 A    54 B    57 A    55 B    56 B    57 B    58 A                  
  0.599   0.624   0.633   0.653   0.661   0.670   0.670   0.680
 59 A    60 A    58 B    61 A    59 B    62 A    60 B    63 A                  
  0.704   0.715   0.722   0.723   0.734   0.751   0.753   0.792
 64 A    61 B    65 A    62 B    63 B    64 B    66 A    67 A                  
  0.799   0.817   0.830   0.846   0.885   0.918   0.935   0.950
 65 B    66 B    68 A    67 B    69 A    68 B    70 A    71 A                  
  0.954   0.956   0.962   0.975   0.988   0.995   1.008   1.009
 69 B    72 A    70 B    71 B    73 A    72 B    73 B    74 A                  
  1.035   1.039   1.078   1.081   1.102   1.107   1.129   1.167
 75 A    76 A    74 B    77 A    75 B    78 A    76 B    77 B                  
  1.170   1.186   1.187   1.250   1.250   1.332   1.342   1.355
 79 A    78 B    80 A    81 A    79 B    80 B    82 A    81 B                  
  1.356   1.368   1.376   1.440   1.494   1.508   1.550   1.589
 83 A    82 B    84 A    83 B    85 A    84 B    86 A    85 B                  
  1.653   1.693   1.715   1.782   1.862   1.874   1.887   1.911
 86 B    87 A    87 B    88 A    89 A    90 A    88 B    89 B                  
  1.923   1.968   1.988   2.011   2.020   2.071   2.080   2.132
 91 A    92 A    90 B    91 B    93 A    94 A    92 B    95 A                  
  2.135   2.177   2.179   2.239   2.243   2.286   2.294   2.363
 93 B    96 A    94 B    95 B    97 A    96 B    98 A    97 B                  
  2.366   2.419   2.454   2.469   2.472   2.504   2.505   2.520
 99 A    98 B   100 A   101 A    99 B   102 A   100 B   101 B                  
  2.541   2.571   2.577   2.594   2.680   2.689   2.720   2.761
103 A   104 A   105 A   102 B   103 B   104 B   106 A   107 A                  
  2.795   2.856   2.934   2.969   3.140   3.211   3.269   3.271
105 B   108 A   106 B   107 B   109 A   108 B   110 A   109 B                  
  3.396   3.430   3.708   3.754   3.943   4.012   4.235   4.300
111 A   110 B   112 A   111 B   113 A   112 B   114 A   113 B                  
  4.300   4.328   4.401   4.541   4.646   4.729
115 A   114 B   116 A   115 B   117 A   116 B                                  
 --------------------------------------------------------------
 
          Ground-State Mulliken Net Atomic Charges

     Atom                 Charge (a.u.)
  ----------------------------------------
      1 S                    -0.105068
      2 C                    -0.002326
      3 C                    -0.331405
      4 C                     0.296432
      5 C                    -0.292267
      6 H                     0.117236
      7 C                    -0.292267
      8 S                    -0.105068
      9 C                     0.296432
     10 C                    -0.002326
     11 C                    -0.331405
     12 H                     0.121121
     13 H                     0.196277
     14 H                     0.121121
     15 H                     0.196277
     16 H                     0.117236
  ----------------------------------------
  Sum of atomic charges =     0.000000

 -----------------------------------------------------------------
                    Cartesian Multipole Moments
 -----------------------------------------------------------------
    Charge (ESU x 10^10)
                 0.0000
    Dipole Moment (Debye)
         X      -0.0000      Y      -0.0000      Z      -1.0294
       Tot       1.0294
    Quadrupole Moments (Debye-Ang)
        XX     -60.9033     XY       0.3501     YY     -78.5889
        XZ       0.0000     YZ      -0.0000     ZZ     -67.9342
    Octopole Moments (Debye-Ang^2)
       XXX      -0.0000    XXY       0.0000    XYY      -0.0000
       YYY      -0.0000    XXZ       4.6450    XYZ      -5.1369
       YYZ       2.6105    XZZ      -0.0000    YZZ      -0.0000
       ZZZ      -9.7700
    Hexadecapole Moments (Debye-Ang^3)
      XXXX   -1881.3122   XXXY       5.2854   XXYY    -423.4746
      XYYY       3.3476   YYYY    -121.1092   XXXZ       0.0000
      XXYZ       0.0000   XYYZ       0.0000   YYYZ      -0.0000
      XXZZ    -406.7373   XYZZ       7.0638   YYZZ    -122.8884
      XZZZ       0.0000   YZZZ       0.0000   ZZZZ    -544.7603
 -----------------------------------------------------------------
 Calculating analytic gradient of the SCF energy
 Gradient of SCF Energy
            1           2           3           4           5           6
    1   0.0001426  -0.0001548   0.0000995  -0.0000771  -0.0000094   0.0000173
    2  -0.0001513   0.0002010  -0.0001304   0.0006899  -0.0005152  -0.0006692
    3   0.0007199   0.0002305  -0.0003263   0.0000519  -0.0002363  -0.0003326
            7           8           9          10          11          12
    1   0.0000094  -0.0001426   0.0000771   0.0001548  -0.0000995  -0.0000670
    2   0.0005152   0.0001513  -0.0006899  -0.0002010   0.0001304  -0.0001001
    3  -0.0002363   0.0007199   0.0000519   0.0002305  -0.0003263  -0.0001552
           13          14          15          16
    1   0.0001121   0.0000670  -0.0001121  -0.0000173
    2  -0.0000815   0.0001001   0.0000815   0.0006692
    3   0.0000480  -0.0001552   0.0000480  -0.0003326
 Max gradient component =       7.199E-04
 RMS gradient           =       3.053E-04
 Gradient time:  CPU 1.90 s  wall 1.95 s
 Geometry Optimization Parameters
   NAtoms,    NIC,     NZ,  NCons,   NDum,   NFix, NCnnct, MaxDiis
       16     111       0       1       0       0       0       0

 Cartesian Hessian Update
 Hessian Updated using BFGS Update


** CONSTRAINED OPTIMIZATION IN DELOCALIZED INTERNAL COORDINATES **
   Searching for a Minimum

   Optimization Cycle:   3

                       Coordinates (Angstroms)
     ATOM                X               Y               Z
      1  S         1.6677206325   -0.2425614071    1.1505538725
      2  C         3.1620391749   -0.0575964203    0.2897480252
      3  C         2.9500801750    0.1721009516   -1.0449032763
      4  C         1.5676384181    0.2183763469   -1.3860179643
      5  C         0.7271923740    0.0132572885   -0.3098029859
      6  H         1.2027546196    0.4028062573   -2.3900665114
      7  C        -0.7271923740   -0.0132572885   -0.3098029859
      8  S        -1.6677206325    0.2425614071    1.1505538725
      9  C        -1.5676384181   -0.2183763469   -1.3860179643
     10  C        -3.1620391749    0.0575964203    0.2897480252
     11  C        -2.9500801750   -0.1721009516   -1.0449032763
     12  H        -3.7521977631   -0.3165698073   -1.7600695465
     13  H         4.1017722172   -0.1335646740    0.8195570958
     14  H         3.7521977631    0.3165698073   -1.7600695465
     15  H        -4.1017722172    0.1335646740    0.8195570958
     16  H        -1.2027546196   -0.4028062573   -2.3900665114
   Point Group: c2    Number of degrees of freedom:    22


   Energy is  -1104.839413847

              Constraints and their Current Values
                                        Value     Constraint
   Dihedral:        4   5   7   9       20.000       20.000
 Hessian Updated using BFGS Update

 21 Hessian modes will be used to form the next step
  Hessian Eigenvalues:
     0.017721    0.045000    0.045001    0.045007    0.045525    0.047823
     0.159935    0.160029    0.160724    0.221731    0.240907    0.275444
     0.300010    0.316450    0.357268    0.359012    0.362656    0.389206
     0.442419    0.471467    0.524146

 Minimum Search - Taking Simple RFO Step
 Searching for Lamda that Minimizes Along All modes
 Value Taken    Lamda =  -0.00007217
 Step Taken.  Stepsize is  0.060655

                             Maximum     Tolerance    Cnvgd?
         Gradient           0.000996      0.000300      NO
         Displacement       0.039914      0.001200      NO
         Energy change     -0.000087      0.000001      NO


 New Cartesian Coordinates Obtained by Inverse Iteration

 Displacement from previous Coordinates is:  0.098540
 ----------------------------------------------------------------
             Standard Nuclear Orientation (Angstroms)
    I     Atom           X                Y                Z
 ----------------------------------------------------------------
    1      S       1.6720555775    -0.2507800669     1.1495380195
    2      C       3.1638421006    -0.0653085574     0.2851639970
    3      C       2.9471058516     0.1727092243    -1.0470365610
    4      C       1.5637102992     0.2240013334    -1.3826162630
    5      C       0.7268480430     0.0156883405    -0.3039044255
    6      H       1.1949433896     0.4292250677    -2.3808280553
    7      C      -0.7268480430    -0.0156883405    -0.3039044255
    8      S      -1.6720555775     0.2507800669     1.1495380195
    9      C      -1.5637102992    -0.2240013334    -1.3826162630
   10      C      -3.1638421006     0.0653085574     0.2851639970
   11      C      -2.9471058516    -0.1727092243    -1.0470365610
   12      H      -3.7471042281    -0.3229124441    -1.7631021181
   13      H       4.1051035958    -0.1427303160     0.8117841155
   14      H       3.7471042281     0.3229124441    -1.7631021181
   15      H      -4.1051035958     0.1427303160     0.8117841155
   16      H      -1.1949433896    -0.4292250677    -2.3808280553
 ----------------------------------------------------------------
 Molecular Point Group                 C2    NOp =  2
 Largest Abelian Subgroup              C2    NOp =  2
 Nuclear Repulsion Energy =   631.3903974065 hartrees
 There are       43 alpha and       43 beta electrons
 Applying Cartesian multipole field
    Component          Value
    ---------          -----
     (2,0,0)        1.00000E-11
     (0,2,0)        2.00000E-11
     (0,0,2)       -3.00000E-11
 Nucleus-field energy     =     0.0000000044 hartrees
 Requested basis set is 6-31++G(d,p)
 There are 76 shells and 234 basis functions
 A cutoff of  1.0D-11 yielded   2497 shell pairs
 There are     24663 function pairs
 Smallest overlap matrix eigenvalue = 8.87E-07

 Q-Chem warning in module /project/projectdirs/jcesr/qchem/qc44/cnl_qc441/compile/cori/qc_src/stvman/mkSTV.C, line 257:

 Overlap eigenvalue is smaller than square root of threshold

 Linear dependence detected in AO basis
 Number of orthogonalized atomic orbitals = 233
 Maximum deviation from orthogonality = 7.869E-11
 Guess MOs from SCF MO coefficient file
 Reading MOs from coefficient file
 Reading MOs from coefficient file
 A restricted hybrid HF-DFT SCF calculation will be
 performed using Pulay DIIS extrapolation
 Exchange:     0.2000 Hartree-Fock + 0.0800 Slater + 0.7200 B88
 Correlation:  0.1900 VWN1RPA + 0.8100 LYP
 Using SG-1 standard quadrature grid
 SCF converges when DIIS error is below 1.0E-08
 Geometry optimization detected.  Setting ReadMinima to 0
 Setting SaveMinima to 0
 ---------------------------------------
  Cycle       Energy         DIIS Error
 ---------------------------------------
    1   -1104.8415640859      3.05E-04
    2   -1104.8394132255      7.21E-05
    3   -1104.8392926436      1.45E-04
    4   -1104.8394559659      1.52E-05
    5   -1104.8394575304      5.55E-06
    6   -1104.8394577056      2.60E-06
    7   -1104.8394577553      6.57E-07
    8   -1104.8394577617      2.00E-07
    9   -1104.8394577616      3.24E-08
   10   -1104.8394577606      9.57E-09 Convergence criterion met
 ---------------------------------------
 SCF time:  CPU 5.46 s  wall 4.77 s
 SCF   energy in the final basis set = -1104.8394577606
 Total energy in the final basis set = -1104.8394577606
 
 --------------------------------------------------------------
             Orbital Energies (a.u.) and Symmetries
 --------------------------------------------------------------
 
 Alpha MOs, Restricted
 -- Occupied --                  
-88.920 -88.920 -10.239 -10.239 -10.225 -10.225 -10.205 -10.205
  1 B     1 A     2 A     2 B     3 B     3 A     4 A     4 B                  
-10.203 -10.203  -7.979  -7.979  -5.944  -5.944  -5.940  -5.940
  5 B     5 A     6 B     6 A     7 B     7 A     8 B     8 A                  
 -5.937  -5.937  -0.900  -0.878  -0.771  -0.749  -0.737  -0.705
  9 A     9 B    10 A    10 B    11 A    12 A    11 B    12 B                  
 -0.604  -0.579  -0.554  -0.533  -0.527  -0.477  -0.421  -0.418
 13 A    14 A    13 B    14 B    15 A    15 B    16 A    17 A                  
 -0.408  -0.403  -0.401  -0.377  -0.374  -0.359  -0.344  -0.281
 16 B    17 B    18 A    18 B    19 A    20 A    19 B    20 B                  
 -0.264  -0.259  -0.213
 21 B    21 A    22 A                                                          
 -- Virtual --                   
 -0.057  -0.014  -0.003  -0.000   0.004   0.014   0.019   0.026
 22 B    23 A    24 A    23 B    25 A    26 A    24 B    27 A                  
  0.027   0.037   0.038   0.046   0.048   0.059   0.062   0.070
 25 B    28 A    26 B    29 A    27 B    30 A    28 B    29 B                  
  0.074   0.082   0.088   0.095   0.102   0.103   0.107   0.112
 31 A    30 B    31 B    32 A    32 B    33 A    34 A    35 A                  
  0.115   0.124   0.126   0.130   0.137   0.139   0.141   0.145
 33 B    36 A    34 B    37 A    35 B    38 A    36 B    39 A                  
  0.145   0.152   0.161   0.162   0.167   0.178   0.183   0.185
 40 A    37 B    41 A    38 B    39 B    40 B    42 A    41 B                  
  0.186   0.194   0.195   0.208   0.213   0.220   0.221   0.240
 43 A    42 B    44 A    43 B    45 A    46 A    44 B    45 B                  
  0.246   0.259   0.263   0.266   0.271   0.279   0.304   0.309
 47 A    46 B    48 A    47 B    49 A    48 B    50 A    49 B                  
  0.312   0.317   0.325   0.349   0.359   0.375   0.383   0.419
 51 A    52 A    50 B    53 A    51 B    52 B    54 A    53 B                  
  0.445   0.466   0.496   0.531   0.536   0.554   0.565   0.569
 55 A    56 A    54 B    57 A    55 B    56 B    57 B    58 A                  
  0.600   0.625   0.631   0.653   0.661   0.669   0.670   0.680
 59 A    60 A    58 B    61 A    59 B    60 B    62 A    63 A                  
  0.704   0.715   0.722   0.725   0.735   0.750   0.753   0.792
 64 A    61 B    65 A    62 B    63 B    64 B    66 A    67 A                  
  0.798   0.817   0.830   0.846   0.885   0.918   0.935   0.952
 65 B    66 B    68 A    67 B    69 A    68 B    70 A    71 A                  
  0.953   0.956   0.962   0.974   0.988   0.993   1.009   1.009
 69 B    72 A    70 B    71 B    73 A    72 B    73 B    74 A                  
  1.035   1.040   1.078   1.081   1.101   1.106   1.129   1.167
 75 A    76 A    74 B    77 A    75 B    78 A    76 B    77 B                  
  1.170   1.185   1.187   1.247   1.250   1.330   1.339   1.356
 79 A    78 B    80 A    79 B    81 A    80 B    82 A    83 A                  
  1.356   1.368   1.379   1.443   1.492   1.509   1.552   1.585
 81 B    82 B    84 A    83 B    85 A    84 B    86 A    85 B                  
  1.658   1.693   1.716   1.783   1.863   1.875   1.887   1.911
 86 B    87 A    87 B    88 A    89 A    90 A    88 B    89 B                  
  1.924   1.968   1.986   2.012   2.019   2.071   2.079   2.132
 91 A    92 A    90 B    91 B    93 A    94 A    92 B    95 A                  
  2.136   2.179   2.180   2.238   2.242   2.286   2.297   2.363
 93 B    96 A    94 B    95 B    97 A    96 B    98 A    97 B                  
  2.366   2.419   2.455   2.465   2.473   2.505   2.507   2.520
 99 A    98 B   100 A   101 A    99 B   100 B   102 A   101 B                  
  2.540   2.571   2.578   2.595   2.680   2.689   2.721   2.761
103 A   104 A   105 A   102 B   103 B   104 B   106 A   107 A                  
  2.795   2.856   2.934   2.968   3.140   3.212   3.270   3.272
105 B   108 A   106 B   107 B   109 A   108 B   110 A   109 B                  
  3.397   3.430   3.709   3.754   3.944   4.011   4.236   4.299
111 A   110 B   112 A   111 B   113 A   112 B   114 A   113 B                  
  4.301   4.328   4.402   4.540   4.646   4.729
115 A   114 B   116 A   115 B   117 A   116 B                                  
 
 Beta MOs, Restricted
 -- Occupied --                  
-88.920 -88.920 -10.239 -10.239 -10.225 -10.225 -10.205 -10.205
  1 B     1 A     2 A     2 B     3 B     3 A     4 A     4 B                  
-10.203 -10.203  -7.979  -7.979  -5.944  -5.944  -5.940  -5.940
  5 B     5 A     6 B     6 A     7 B     7 A     8 B     8 A                  
 -5.937  -5.937  -0.900  -0.878  -0.771  -0.749  -0.737  -0.705
  9 A     9 B    10 A    10 B    11 A    12 A    11 B    12 B                  
 -0.604  -0.579  -0.554  -0.533  -0.527  -0.477  -0.421  -0.418
 13 A    14 A    13 B    14 B    15 A    15 B    16 A    17 A                  
 -0.408  -0.403  -0.401  -0.377  -0.374  -0.359  -0.344  -0.281
 16 B    17 B    18 A    18 B    19 A    20 A    19 B    20 B                  
 -0.264  -0.259  -0.213
 21 B    21 A    22 A                                                          
 -- Virtual --                   
 -0.057  -0.014  -0.003  -0.000   0.004   0.014   0.019   0.026
 22 B    23 A    24 A    23 B    25 A    26 A    24 B    27 A                  
  0.027   0.037   0.038   0.046   0.048   0.059   0.062   0.070
 25 B    28 A    26 B    29 A    27 B    30 A    28 B    29 B                  
  0.074   0.082   0.088   0.095   0.102   0.103   0.107   0.112
 31 A    30 B    31 B    32 A    32 B    33 A    34 A    35 A                  
  0.115   0.124   0.126   0.130   0.137   0.139   0.141   0.145
 33 B    36 A    34 B    37 A    35 B    38 A    36 B    39 A                  
  0.145   0.152   0.161   0.162   0.167   0.178   0.183   0.185
 40 A    37 B    41 A    38 B    39 B    40 B    42 A    41 B                  
  0.186   0.194   0.195   0.208   0.213   0.220   0.221   0.240
 43 A    42 B    44 A    43 B    45 A    46 A    44 B    45 B                  
  0.246   0.259   0.263   0.266   0.271   0.279   0.304   0.309
 47 A    46 B    48 A    47 B    49 A    48 B    50 A    49 B                  
  0.312   0.317   0.325   0.349   0.359   0.375   0.383   0.419
 51 A    52 A    50 B    53 A    51 B    52 B    54 A    53 B                  
  0.445   0.466   0.496   0.531   0.536   0.554   0.565   0.569
 55 A    56 A    54 B    57 A    55 B    56 B    57 B    58 A                  
  0.600   0.625   0.631   0.653   0.661   0.669   0.670   0.680
 59 A    60 A    58 B    61 A    59 B    60 B    62 A    63 A                  
  0.704   0.715   0.722   0.725   0.735   0.750   0.753   0.792
 64 A    61 B    65 A    62 B    63 B    64 B    66 A    67 A                  
  0.798   0.817   0.830   0.846   0.885   0.918   0.935   0.952
 65 B    66 B    68 A    67 B    69 A    68 B    70 A    71 A                  
  0.953   0.956   0.962   0.974   0.988   0.993   1.009   1.009
 69 B    72 A    70 B    71 B    73 A    72 B    73 B    74 A                  
  1.035   1.040   1.078   1.081   1.101   1.106   1.129   1.167
 75 A    76 A    74 B    77 A    75 B    78 A    76 B    77 B                  
  1.170   1.185   1.187   1.247   1.250   1.330   1.339   1.356
 79 A    78 B    80 A    79 B    81 A    80 B    82 A    83 A                  
  1.356   1.368   1.379   1.443   1.492   1.509   1.552   1.585
 81 B    82 B    84 A    83 B    85 A    84 B    86 A    85 B                  
  1.658   1.693   1.716   1.783   1.863   1.875   1.887   1.911
 86 B    87 A    87 B    88 A    89 A    90 A    88 B    89 B                  
  1.924   1.968   1.986   2.012   2.019   2.071   2.079   2.132
 91 A    92 A    90 B    91 B    93 A    94 A    92 B    95 A                  
  2.136   2.179   2.180   2.238   2.242   2.286   2.297   2.363
 93 B    96 A    94 B    95 B    97 A    96 B    98 A    97 B                  
  2.366   2.419   2.455   2.465   2.473   2.505   2.507   2.520
 99 A    98 B   100 A   101 A    99 B   100 B   102 A   101 B                  
  2.540   2.571   2.578   2.595   2.680   2.689   2.721   2.761
103 A   104 A   105 A   102 B   103 B   104 B   106 A   107 A                  
  2.795   2.856   2.934   2.968   3.140   3.212   3.270   3.272
105 B   108 A   106 B   107 B   109 A   108 B   110 A   109 B                  
  3.397   3.430   3.709   3.754   3.944   4.011   4.236   4.299
111 A   110 B   112 A   111 B   113 A   112 B   114 A   113 B                  
  4.301   4.328   4.402   4.540   4.646   4.729
115 A   114 B   116 A   115 B   117 A   116 B                                  
 --------------------------------------------------------------
 
          Ground-State Mulliken Net Atomic Charges

     Atom                 Charge (a.u.)
  ----------------------------------------
      1 S                    -0.101796
      2 C                     0.003011
      3 C                    -0.341472
      4 C                     0.308613
      5 C                    -0.304451
      6 H                     0.119219
      7 C                    -0.304451
      8 S                    -0.101796
      9 C                     0.308613
     10 C                     0.003011
     11 C                    -0.341472
     12 H                     0.120654
     13 H                     0.196223
     14 H                     0.120654
     15 H                     0.196223
     16 H                     0.119219
  ----------------------------------------
  Sum of atomic charges =     0.000000

 -----------------------------------------------------------------
                    Cartesian Multipole Moments
 -----------------------------------------------------------------
    Charge (ESU x 10^10)
                -0.0000
    Dipole Moment (Debye)
         X      -0.0000      Y      -0.0000      Z      -1.0244
       Tot       1.0244
    Quadrupole Moments (Debye-Ang)
        XX     -60.8977     XY       0.3859     YY     -78.5324
        XZ      -0.0000     YZ      -0.0000     ZZ     -68.0098
    Octopole Moments (Debye-Ang^2)
       XXX      -0.0000    XXY       0.0000    XYY       0.0000
       YYY      -0.0000    XXZ       4.6546    XYZ      -5.3532
       YYZ       2.5224    XZZ       0.0000    YZZ      -0.0000
       ZZZ      -9.6240
    Hexadecapole Moments (Debye-Ang^3)
      XXXX   -1881.3592   XXXY       6.6046   XXYY    -423.4941
      XYYY       5.0970   YYYY    -122.2062   XXXZ      -0.0000
      XXYZ       0.0000   XYYZ       0.0000   YYYZ      -0.0000
      XXZZ    -407.1715   XYZZ       7.9282   YYZZ    -122.5106
      XZZZ      -0.0000   YZZZ      -0.0000   ZZZZ    -544.2183
 -----------------------------------------------------------------
 Calculating analytic gradient of the SCF energy
 Gradient of SCF Energy
            1           2           3           4           5           6
    1   0.0001206   0.0000048  -0.0000181  -0.0000801  -0.0003021   0.0000675
    2   0.0001924   0.0001121  -0.0002814  -0.0002297   0.0000998  -0.0001305
    3  -0.0001512   0.0001301  -0.0001634  -0.0002821   0.0004548  -0.0000171
            7           8           9          10          11          12
    1   0.0003021  -0.0001206   0.0000801  -0.0000048   0.0000181  -0.0000135
    2  -0.0000998  -0.0001924   0.0002297  -0.0001121   0.0002814  -0.0001437
    3   0.0004548  -0.0001512  -0.0002821   0.0001301  -0.0001634   0.0000182
           13          14          15          16
[...]
  3.397   3.429   3.710   3.753   3.945   4.010   4.236   4.300
111 A   110 B   112 A   111 B   113 A   112 B   114 A   113 B                  
  4.301   4.327   4.402   4.540   4.646   4.730
115 A   114 B   116 A   115 B   117 A   116 B                                  
 --------------------------------------------------------------
 
          Ground-State Mulliken Net Atomic Charges

     Atom                 Charge (a.u.)
  ----------------------------------------
      1 S                    -0.100521
      2 C                     0.008859
      3 C                    -0.350457
      4 C                     0.325776
      5 C                    -0.321508
      6 H                     0.121633
      7 C                    -0.321508
      8 S                    -0.100521
      9 C                     0.325776
     10 C                     0.008859
     11 C                    -0.350457
     12 H                     0.120155
     13 H                     0.196064
     14 H                     0.120155
     15 H                     0.196064
     16 H                     0.121633
  ----------------------------------------
  Sum of atomic charges =     0.000000

 -----------------------------------------------------------------
                    Cartesian Multipole Moments
 -----------------------------------------------------------------
    Charge (ESU x 10^10)
                -0.0000
    Dipole Moment (Debye)
         X       0.0000      Y       0.0000      Z      -1.0257
       Tot       1.0257
    Quadrupole Moments (Debye-Ang)
        XX     -60.8926     XY       0.3369     YY     -78.4793
        XZ       0.0000     YZ       0.0000     ZZ     -68.0525
    Octopole Moments (Debye-Ang^2)
       XXX       0.0000    XXY       0.0000    XYY       0.0000
       YYY       0.0000    XXZ       4.7342    XYZ      -5.6600
       YYZ       2.5817    XZZ      -0.0000    YZZ       0.0000
       ZZZ      -9.1615
    Hexadecapole Moments (Debye-Ang^3)
      XXXX   -1880.6021   XXXY       6.5809   XXYY    -423.2819
      XYYY       6.4305   YYYY    -124.6812   XXXZ       0.0000
      XXYZ       0.0000   XYYZ       0.0000   YYYZ      -0.0000
      XXZZ    -407.0010   XYZZ       8.4773   YYZZ    -122.1196
      XZZZ       0.0000   YZZZ       0.0000   ZZZZ    -542.5630
 -----------------------------------------------------------------
 Calculating analytic gradient of the SCF energy
 Gradient of SCF Energy
            1           2           3           4           5           6
    1  -0.0000054   0.0000077   0.0000129   0.0000213  -0.0000468  -0.0000055
    2  -0.0000102   0.0000343   0.0000596  -0.0008949   0.0017930   0.0000305
    3   0.0000329  -0.0000058   0.0000255  -0.0001327   0.0000879   0.0000048
            7           8           9          10          11          12
    1   0.0000468   0.0000054  -0.0000213  -0.0000077  -0.0000129  -0.0000010
    2  -0.0017930   0.0000102   0.0008949  -0.0000343  -0.0000596   0.0000418
    3   0.0000879   0.0000329  -0.0001327  -0.0000058   0.0000255  -0.0000088
           13          14          15          16
    1   0.0000012   0.0000010  -0.0000012   0.0000055
    2  -0.0000225  -0.0000418   0.0000225  -0.0000305
    3  -0.0000038  -0.0000088  -0.0000038   0.0000048
 Max gradient component =       1.793E-03
 RMS gradient           =       4.110E-04
 Gradient time:  CPU 1.91 s  wall 1.93 s
 Geometry Optimization Parameters
   NAtoms,    NIC,     NZ,  NCons,   NDum,   NFix, NCnnct, MaxDiis
       16     111       0       1       0       0       0       0

 Cartesian Hessian Update
 Hessian Updated using BFGS Update


** CONSTRAINED OPTIMIZATION IN DELOCALIZED INTERNAL COORDINATES **
   Searching for a Minimum

   Optimization Cycle:   8

                       Coordinates (Angstroms)
     ATOM                X               Y               Z
      1  S         1.6699156000   -0.2671750768    1.1448990238
      2  C         3.1627675595   -0.0746577267    0.2838357500
      3  C         2.9479646459    0.1806554100   -1.0453159708
      4  C         1.5648575025    0.2383462434   -1.3818707672
      5  C         0.7267937521    0.0225696008   -0.3062527342
      6  H         1.1965304010    0.4585375369   -2.3771537652
      7  C        -0.7267937521   -0.0225696008   -0.3062527342
      8  S        -1.6699156000    0.2671750768    1.1448990238
      9  C        -1.5648575025   -0.2383462434   -1.3818707672
     10  C        -3.1627675595    0.0746577267    0.2838357500
     11  C        -2.9479646459   -0.1806554100   -1.0453159708
     12  H        -3.7490169724   -0.3341714759   -1.7594627281
     13  H         4.1034251656   -0.1594272188    0.8103199009
     14  H         3.7490169724    0.3341714759   -1.7594627281
     15  H        -4.1034251656    0.1594272188    0.8103199009
     16  H        -1.1965304010   -0.4585375369   -2.3771537652
   Point Group: c2    Number of degrees of freedom:    22


   Energy is  -1104.839481160

              Constraints and their Current Values
                                        Value     Constraint
   Dihedral:        4   5   7   9       20.000       20.000
 Hessian Updated using BFGS Update

 21 Hessian modes will be used to form the next step
  Hessian Eigenvalues:
     0.008643    0.016442    0.043125    0.045003    0.045014    0.049325
     0.159680    0.160130    0.160570    0.221987    0.226531    0.274461
     0.304106    0.318527    0.357336    0.359521    0.362728    0.389586
     0.449342    0.471340    0.517965

 Minimum Search - Taking Simple RFO Step
 Searching for Lamda that Minimizes Along All modes
 Value Taken    Lamda =   0.00000000
 Step Taken.  Stepsize is  0.003301

                             Maximum     Tolerance    Cnvgd?
         Gradient           0.000067      0.000300     YES
         Displacement       0.002744      0.001200      NO
         Energy change     -0.000001      0.000001     YES

 Final energy is   -1104.83948116048     


 ******************************
 **  OPTIMIZATION CONVERGED  **
 ******************************

                       Coordinates (Angstroms)
     ATOM                X               Y               Z
      1  S         1.6699156000   -0.2671750768    1.1448990238
      2  C         3.1627675595   -0.0746577267    0.2838357500
      3  C         2.9479646459    0.1806554100   -1.0453159708
      4  C         1.5648575025    0.2383462434   -1.3818707672
      5  C         0.7267937521    0.0225696008   -0.3062527342
      6  H         1.1965304010    0.4585375369   -2.3771537652
      7  C        -0.7267937521   -0.0225696008   -0.3062527342
      8  S        -1.6699156000    0.2671750768    1.1448990238
      9  C        -1.5648575025   -0.2383462434   -1.3818707672
     10  C        -3.1627675595    0.0746577267    0.2838357500
     11  C        -2.9479646459   -0.1806554100   -1.0453159708
     12  H        -3.7490169724   -0.3341714759   -1.7594627281
     13  H         4.1034251656   -0.1594272188    0.8103199009
     14  H         3.7490169724    0.3341714759   -1.7594627281
     15  H        -4.1034251656    0.1594272188    0.8103199009
     16  H        -1.1965304010   -0.4585375369   -2.3771537652

Z-matrix Print:
$molecule
0 1
S 
C  1 1.734099
H  2 1.081299 1 119.896556
C  2 1.370390 1 111.552257 3 179.871336 0
H  4 1.084093 2 123.331876 1 -179.931136 0
C  4 1.424634 2 112.883068 1 -0.647852 0
H  6 1.083853 4 123.716688 2 -178.121599 0
C  6 1.380531 4 113.513948 2 0.171805 0
C  8 1.454288 6 127.706590 4 178.218011 0
C  9 1.380531 8 127.706590 6 -19.999979 0
H  10 1.083853 9 122.746314 8 -3.469747 0
C  10 1.424634 9 113.513948 8 178.218011 0
H  12 1.084093 10 123.780905 9 179.451353 0
C  12 1.370390 10 112.883068 9 0.171805 0
H  14 1.081299 12 128.551038 10 179.209520 0
S  14 1.734099 12 111.552257 10 -0.647852 0
$end

 
 --------------------------------------------------------------
             Orbital Energies (a.u.) and Symmetries
 --------------------------------------------------------------
 
 Alpha MOs, Restricted
 -- Occupied --                  
-88.920 -88.920 -10.239 -10.239 -10.225 -10.225 -10.205 -10.205
  1 B     1 A     2 A     2 B     3 B     3 A     4 A     4 B                  
-10.203 -10.203  -7.979  -7.979  -5.944  -5.944  -5.940  -5.940
  5 B     5 A     6 B     6 A     7 B     7 A     8 B     8 A                  
 -5.937  -5.936  -0.900  -0.878  -0.771  -0.749  -0.737  -0.705
  9 A     9 B    10 A    10 B    11 A    12 A    11 B    12 B                  
 -0.604  -0.579  -0.554  -0.533  -0.527  -0.477  -0.421  -0.418
 13 A    14 A    13 B    14 B    15 A    15 B    16 A    17 A                  
 -0.409  -0.403  -0.401  -0.377  -0.374  -0.359  -0.344  -0.281
 16 B    17 B    18 A    18 B    19 A    20 A    19 B    20 B                  
 -0.264  -0.259  -0.213
 21 B    21 A    22 A                                                          
 -- Virtual --                   
 -0.057  -0.014  -0.004  -0.000   0.004   0.014   0.019   0.026
 22 B    23 A    24 A    23 B    25 A    26 A    24 B    27 A                  
  0.027   0.037   0.038   0.046   0.047   0.059   0.061   0.070
 25 B    28 A    26 B    29 A    27 B    30 A    28 B    29 B                  
  0.074   0.081   0.088   0.095   0.102   0.104   0.107   0.112
 31 A    30 B    31 B    32 A    32 B    33 A    34 A    35 A                  
  0.115   0.124   0.126   0.130   0.137   0.139   0.140   0.145
 33 B    36 A    34 B    37 A    35 B    38 A    36 B    39 A                  
  0.145   0.152   0.161   0.162   0.166   0.179   0.182   0.185
 40 A    37 B    38 B    41 A    39 B    40 B    42 A    41 B                  
  0.186   0.194   0.194   0.209   0.214   0.220   0.221   0.240
 43 A    42 B    44 A    43 B    45 A    44 B    46 A    45 B                  
  0.247   0.258   0.264   0.265   0.271   0.277   0.304   0.309
 47 A    46 B    48 A    47 B    49 A    48 B    50 A    49 B                  
  0.312   0.317   0.324   0.350   0.358   0.374   0.383   0.420
 51 A    52 A    50 B    53 A    51 B    52 B    54 A    53 B                  
  0.445   0.466   0.496   0.531   0.537   0.553   0.564   0.569
 55 A    56 A    54 B    57 A    55 B    56 B    57 B    58 A                  
  0.601   0.625   0.628   0.653   0.662   0.667   0.671   0.681
 59 A    60 A    58 B    61 A    59 B    60 B    62 A    63 A                  
  0.704   0.715   0.722   0.726   0.737   0.750   0.752   0.792
 64 A    61 B    65 A    62 B    63 B    64 B    66 A    67 A                  
  0.796   0.818   0.830   0.848   0.885   0.918   0.936   0.952
 65 B    66 B    68 A    67 B    69 A    68 B    70 A    71 A                  
  0.953   0.957   0.962   0.972   0.989   0.990   1.008   1.010
 69 B    72 A    70 B    71 B    73 A    72 B    73 B    74 A                  
  1.036   1.042   1.076   1.081   1.100   1.106   1.128   1.167
 75 A    76 A    74 B    77 A    75 B    78 A    76 B    77 B                  
  1.171   1.182   1.187   1.245   1.251   1.330   1.339   1.355
 79 A    78 B    80 A    79 B    81 A    80 B    82 A    81 B                  
  1.356   1.367   1.381   1.440   1.492   1.511   1.552   1.580
 83 A    82 B    84 A    83 B    85 A    84 B    86 A    85 B                  
  1.663   1.693   1.718   1.783   1.864   1.874   1.886   1.911
 86 B    87 A    87 B    88 A    89 A    90 A    88 B    89 B                  
  1.924   1.964   1.985   2.013   2.020   2.070   2.078   2.133
 91 A    92 A    90 B    91 B    93 A    94 A    92 B    95 A                  
  2.137   2.180   2.183   2.238   2.242   2.283   2.298   2.363
 93 B    94 B    96 A    95 B    97 A    96 B    98 A    97 B                  
  2.366   2.419   2.454   2.465   2.473   2.504   2.507   2.520
 99 A    98 B   100 A   101 A    99 B   100 B   102 A   101 B                  
  2.540   2.571   2.579   2.594   2.680   2.691   2.721   2.762
103 A   104 A   105 A   102 B   103 B   104 B   106 A   107 A                  
  2.794   2.856   2.935   2.968   3.140   3.212   3.270   3.272
105 B   108 A   106 B   107 B   109 A   108 B   110 A   109 B                  
  3.397   3.429   3.710   3.753   3.945   4.010   4.236   4.300
111 A   110 B   112 A   111 B   113 A   112 B   114 A   113 B                  
  4.301   4.327   4.402   4.540   4.646   4.730
115 A   114 B   116 A   115 B   117 A   116 B                                  
 
 Beta MOs, Restricted
 -- Occupied --                  
-88.920 -88.920 -10.239 -10.239 -10.225 -10.225 -10.205 -10.205
  1 B     1 A     2 A     2 B     3 B     3 A     4 A     4 B                  
-10.203 -10.203  -7.979  -7.979  -5.944  -5.944  -5.940  -5.940
  5 B     5 A     6 B     6 A     7 B     7 A     8 B     8 A                  
 -5.937  -5.936  -0.900  -0.878  -0.771  -0.749  -0.737  -0.705
  9 A     9 B    10 A    10 B    11 A    12 A    11 B    12 B                  
 -0.604  -0.579  -0.554  -0.533  -0.527  -0.477  -0.421  -0.418
 13 A    14 A    13 B    14 B    15 A    15 B    16 A    17 A                  
 -0.409  -0.403  -0.401  -0.377  -0.374  -0.359  -0.344  -0.281
 16 B    17 B    18 A    18 B    19 A    20 A    19 B    20 B                  
 -0.264  -0.259  -0.213
 21 B    21 A    22 A                                                          
 -- Virtual --                   
 -0.057  -0.014  -0.004  -0.000   0.004   0.014   0.019   0.026
 22 B    23 A    24 A    23 B    25 A    26 A    24 B    27 A                  
  0.027   0.037   0.038   0.046   0.047   0.059   0.061   0.070
 25 B    28 A    26 B    29 A    27 B    30 A    28 B    29 B                  
  0.074   0.081   0.088   0.095   0.102   0.104   0.107   0.112
 31 A    30 B    31 B    32 A    32 B    33 A    34 A    35 A                  
  0.115   0.124   0.126   0.130   0.137   0.139   0.140   0.145
 33 B    36 A    34 B    37 A    35 B    38 A    36 B    39 A                  
  0.145   0.152   0.161   0.162   0.166   0.179   0.182   0.185
 40 A    37 B    38 B    41 A    39 B    40 B    42 A    41 B                  
  0.186   0.194   0.194   0.209   0.214   0.220   0.221   0.240
 43 A    42 B    44 A    43 B    45 A    44 B    46 A    45 B                  
  0.247   0.258   0.264   0.265   0.271   0.277   0.304   0.309
 47 A    46 B    48 A    47 B    49 A    48 B    50 A    49 B                  
  0.312   0.317   0.324   0.350   0.358   0.374   0.383   0.420
 51 A    52 A    50 B    53 A    51 B    52 B    54 A    53 B                  
  0.445   0.466   0.496   0.531   0.537   0.553   0.564   0.569
 55 A    56 A    54 B    57 A    55 B    56 B    57 B    58 A                  
  0.601   0.625   0.628   0.653   0.662   0.667   0.671   0.681
 59 A    60 A    58 B    61 A    59 B    60 B    62 A    63 A                  
  0.704   0.715   0.722   0.726   0.737   0.750   0.752   0.792
 64 A    61 B    65 A    62 B    63 B    64 B    66 A    67 A                  
  0.796   0.818   0.830   0.848   0.885   0.918   0.936   0.952
 65 B    66 B    68 A    67 B    69 A    68 B    70 A    71 A                  
  0.953   0.957   0.962   0.972   0.989   0.990   1.008   1.010
 69 B    72 A    70 B    71 B    73 A    72 B    73 B    74 A                  
  1.036   1.042   1.076   1.081   1.100   1.106   1.128   1.167
 75 A    76 A    74 B    77 A    75 B    78 A    76 B    77 B                  
  1.171   1.182   1.187   1.245   1.251   1.330   1.339   1.355
 79 A    78 B    80 A    79 B    81 A    80 B    82 A    81 B                  
  1.356   1.367   1.381   1.440   1.492   1.511   1.552   1.580
 83 A    82 B    84 A    83 B    85 A    84 B    86 A    85 B                  
  1.663   1.693   1.718   1.783   1.864   1.874   1.886   1.911
 86 B    87 A    87 B    88 A    89 A    90 A    88 B    89 B                  
  1.924   1.964   1.985   2.013   2.020   2.070   2.078   2.133
 91 A    92 A    90 B    91 B    93 A    94 A    92 B    95 A                  
  2.137   2.180   2.183   2.238   2.242   2.283   2.298   2.363
 93 B    94 B    96 A    95 B    97 A    96 B    98 A    97 B                  
  2.366   2.419   2.454   2.465   2.473   2.504   2.507   2.520
 99 A    98 B   100 A   101 A    99 B   100 B   102 A   101 B                  
  2.540   2.571   2.579   2.594   2.680   2.691   2.721   2.762
103 A   104 A   105 A   102 B   103 B   104 B   106 A   107 A                  
  2.794   2.856   2.935   2.968   3.140   3.212   3.270   3.272
105 B   108 A   106 B   107 B   109 A   108 B   110 A   109 B                  
  3.397   3.429   3.710   3.753   3.945   4.010   4.236   4.300
111 A   110 B   112 A   111 B   113 A   112 B   114 A   113 B                  
  4.301   4.327   4.402   4.540   4.646   4.730
115 A   114 B   116 A   115 B   117 A   116 B                                  
 --------------------------------------------------------------
 
          Ground-State Mulliken Net Atomic Charges

     Atom                 Charge (a.u.)
  ----------------------------------------
      1 S                    -0.100521
      2 C                     0.008859
      3 C                    -0.350457
      4 C                     0.325776
      5 C                    -0.321508
      6 H                     0.121633
      7 C                    -0.321508
      8 S                    -0.100521
      9 C                     0.325776
     10 C                     0.008859
     11 C                    -0.350457
     12 H                     0.120155
     13 H                     0.196064
     14 H                     0.120155
     15 H                     0.196064
     16 H                     0.121633
  ----------------------------------------
  Sum of atomic charges =     0.000000

 -----------------------------------------------------------------
                    Cartesian Multipole Moments
 -----------------------------------------------------------------
    Charge (ESU x 10^10)
                -0.0000
    Dipole Moment (Debye)
         X       0.0000      Y       0.0000      Z      -1.0257
       Tot       1.0257
    Quadrupole Moments (Debye-Ang)
        XX     -60.8926     XY       0.3369     YY     -78.4793
        XZ       0.0000     YZ       0.0000     ZZ     -68.0525
    Octopole Moments (Debye-Ang^2)
       XXX       0.0000    XXY       0.0000    XYY       0.0000
       YYY       0.0000    XXZ       4.7342    XYZ      -5.6600
       YYZ       2.5817    XZZ      -0.0000    YZZ       0.0000
       ZZZ      -9.1615
    Hexadecapole Moments (Debye-Ang^3)
      XXXX   -1880.6021   XXXY       6.5809   XXYY    -423.2819
      XYYY       6.4305   YYYY    -124.6812   XXXZ       0.0000
      XXYZ       0.0000   XYYZ       0.0000   YYYZ      -0.0000
      XXZZ    -407.0010   XYZZ       8.4773   YYZZ    -122.1196
      XZZZ       0.0000   YZZZ       0.0000   ZZZZ    -542.5630
 -----------------------------------------------------------------
Archival summary:
1\1\nid01043\OPT\ProcedureUnspecified\BasisUnspecified\286\FriSep218:12:072016FriSep218:12:072016\0\\#,OPT,ProcedureUnspecified,BasisUnspecified,\\0,1\S\C,1,1.7341\H,2,1.0813,1,119.897\C,2,1.37039,1,111.552,3,179.871,0\H,4,1.08409,2,123.332,1,-179.931,0\C,4,1.42463,2,112.883,1,-0.647852,0\H,6,1.08385,4,123.717,2,-178.122,0\C,6,1.38053,4,113.514,2,0.171805,0\C,8,1.45429,6,127.707,4,178.218,0\C,9,1.38053,8,127.707,6,-20,0\H,10,1.08385,9,122.746,8,-3.46975,0\C,10,1.42463,9,113.514,8,178.218,0\H,12,1.08409,10,123.781,9,179.451,0\C,12,1.37039,10,112.883,9,0.171805,0\H,14,1.0813,12,128.551,10,179.21,0\S,14,1.7341,12,111.552,10,-0.647852,0\\\@

 Total job time:  66.34s(wall), 74.11s(cpu) 
 Fri Sep  2 18:12:07 2016

        *************************************************************
        *                                                           *
        *  Thank you very much for using Q-Chem.  Have a nice day.  *
        *                                                           *
        *************************************************************


0 sent ACK to 0 
now end server 0 ... 
