srun -N 1 --ntasks-per-node 16 --nodelist nid01044 /global/project/projectdirs/jcesr/qchem/qc44/cnl_qc441/dist/exe/qcprog.cori.exe .pt_dft_-120.0.in.56732.qcin.1 /dev/shm/eg_qchem/qchem56732/
Process 0 of 16 is on nid01044 - thread support 0
Process 1 of 16 is on nid01044 - thread support 0
Process 2 of 16 is on nid01044 - thread support 0
Process 3 of 16 is on nid01044 - thread support 0
Process 4 of 16 is on nid01044 - thread support 0
Process 5 of 16 is on nid01044 - thread support 0
Process 6 of 16 is on nid01044 - thread support 0
Process 15 of 16 is on nid01044 - thread support 0
initial socket setup ...start
initial socket setup ...done 
now start server 0 ... 
nid01044 10.128.4
Q-Chem Developer Version! Running on 10.128.4.*
                  Welcome to Q-Chem
     A Quantum Leap Into The Future Of Chemistry


 Q-Chem 4.4, Q-Chem, Inc., Pleasanton, CA (2016)

 Y. Shao,  Z. Gan,  E. Epifanovsky,  A. T. B. Gilbert,  M. Wormit,  
 J. Kussmann,  A. W. Lange,  A. Behn,  J. Deng,  X. Feng,  D. Ghosh,  
 M. Goldey,  P. R. Horn,  L. D. Jacobson,  I. Kaliman,  F.Rob,  
 R. Z. Khaliullin,  T. Kus,  A. Landau,  J. Liu,  E. I. Proynov,  Y. M. Rhee,  
 R. M. Richard,  M. A. Rohrdanz,  R. P. Steele,  E. J. Sundstrom,  
 H. L. Woodcock III,  P. M. Zimmerman,  D. Zuev,  B. Albrecht,  E. Alguire,  
 B. Austin,  S. A. Baeppler,  G. J. O. Beran,  Y. A. Bernard,  E. Berquist,  
 K. Brandhorst,  K. B. Bravaya,  S. T. Brown,  D. Casanova,  C.-M. Chang,  
 Y. Chen,  S. H. Chien,  K. D. Closser,  M. P. Coons,  D. L. Crittenden,  
 S. Dasgupta,  M. Diedenhofen,  R. A. DiStasio Jr.,  H. Do,  A. D. Dutoi,  
 R. G. Edgar,  P.-T. Fang,  S. Fatehi,  Q. Feng,  L. Fusti-Molnar,  
 A. Ghysels,  A. Golubeva-Zadorozhnaya,  J. Gomes,  A. Gunina,  
 M. W. D. Hanson-Heine,  P. H. P. Harbach,  A. W. Hauser,  E. G. Hohenstein,  
 Z. C. Holden,  K. Hui,  T.-C. Jagau,  H. Ji,  B. Kaduk,  K. Khistyaev,  
 Jaehoon Kim,  Jihan Kim,  R. A. King,  P. Klunzinger,  D. Kosenkov,  
 T. Kowalczyk,  C. M. Krauter,  A. Kunitsa,  K. U. Lao,  A. Laurent,  
 K. V. Lawler,  D. Lefrancois,  S. Lehtola,  S. V. Levchenko,  C. Y. Lin,  
 Y.-S. Lin,  F. Liu,  E. Livshits,  R. C. Lochan,  A. Luenser,  P. Manohar,  
 S. F. Manzer,  S.-P. Mao,  Y. Mao,  N. Mardirossian,  A. V. Marenich,  
 L. A. Martinez-Martinez,  S. A. Maurer,  N. J. Mayhall,  J.-M. Mewes,  
 A. F. Morrison,  K. Nanda,  C. M. Oana,  R. Olivares-Amaya,  D. P. O'Neill,  
 J. A. Parkhill,  T. M. Perrine,  R. Peverati,  P. A. Pieniazek,  F. Plasser,  
 A. Prociuk,  D. R. Rehn,  E. Rosta,  N. J. Russ,  N. Sergueev,  
 S. M. Sharada,  S. Sharma,  D. W. Small,  A. Sodt,  T. Stauch,  T. Stein,  
 D. Stuck,  Y.-C. Su,  A. J. W. Thom,  T. Tsuchimochi,  L. Vogt,  O. Vydrov,  
 T. Wang,  M. A. Watson,  J. Wenzel,  A. White,  C. F. Williams,  
 V. Vanovschi,  S. Yeganeh,  S. R. Yost,  Z.-Q. You,  I. Y. Zhang,  X. Zhang,  
 Y. Zhao,  B. R. Brooks,  G. K. L. Chan,  D. M. Chipman,  C. J. Cramer,  
 W. A. Goddard III,  M. S. Gordon,  W. J. Hehre,  A. Klamt,  
 H. F. Schaefer III,  M. W. Schmidt,  C. D. Sherrill,  D. G. Truhlar,  
 A. Warshel,  X. Xu,  A. Aspuru-Guzik,  R. Baer,  A. T. Bell,  N. A. Besley,  
 J.-D. Chai,  A. Dreuw,  B. D. Dunietz,  T. R. Furlani,  S. R. Gwaltney,  
 C.-P. Hsu,  Y. Jung,  J. Kong,  D. S. Lambrecht,  W. Liang,  C. Ochsenfeld,  
 V. A. Rassolov,  L. V. Slipchenko,  J. E. Subotnik,  T. Van Voorhis,  
 J. M. Herbert,  A. I. Krylov,  P. M. W. Gill,  M. Head-Gordon

 Contributors to earlier versions of Q-Chem not listed above: 
 R. D. Adamson,  J. Baker,  E. F. C. Byrd,  A. K. Chakraborty,  C.-L. Cheng,  
 H. Dachsel,  R. J. Doerksen,  G. Hawkins,  A. Heyden,  S. Hirata,  
 G. Kedziora,  F. J. Keil,  C. Kelley,  P. P. Korambath,  W. Kurlancheek,  
 A. M. Lee,  M. S. Lee,  D. Liotard,  I. Lotan,  P. E. Maslen,  N. Nair,  
 D. Neuhauser,  R. Olson,  B. Peters,  J. Ritchie,  N. E. Schultz,  
 N. Shenvi,  A. C. Simmonett,  K. S. Thanthiriwatte,  Q. Wu,  W. Zhang

 Please cite Q-Chem as follows:
 Y. Shao et al., Mol. Phys. 113, 184-215 (2015)
 DOI: 10.1080/00268976.2014.952696

 Q-Chem 4.4.1 for Intel X86 EM64T Linux

 Parts of Q-Chem use Armadillo 5.200.1 (Boston Tea Smuggler).
 http://arma.sourceforge.net/

 Q-Chem begins on Fri Sep  2 18:35:12 2016  

Host: nid01043
0

     Scratch files written to /dev/shm/eg_qchem/qchem56732.0//
 Parallel job on  16  processors

Checking the input file for inconsistencies... 	...done.

--------------------------------------------------------------
User input:
--------------------------------------------------------------
$comment
<SCF Fix Strategy>{
    "current_method_id": 0, 
    "methods": [
        "increase_iter", 
        "rca_diis", 
        "gwh", 
        "gdm", 
        "rca", 
        "core+rca", 
        "fon"
    ], 
    "version": 2.0
}</SCF Fix Strategy>
$end


$molecule
 0  1
 S           1.82267924       -1.19997629        0.28714109
 C           3.20006180       -0.17260711        0.06528466
 C           2.82980603        1.10216298       -0.25610036
 C           1.41909100        1.26345446       -0.34254814
 C           0.71738150        0.10901545       -0.08456145
 H           0.93627498        2.19419272       -0.61095402
 C          -0.71741859       -0.10899254       -0.08455524
 S          -1.66695288        0.17482694       -1.53063137
 C          -1.53049494       -0.53045929        0.94158086
 C          -3.12821829       -0.30045920       -0.73019588
 C          -2.90037965       -0.63789679        0.57350730
 H          -3.68096223       -0.96290276        1.24861899
 H           4.19429620       -0.57452886        0.18632814
 H           3.53860725        1.89960515       -0.43610218
 H          -4.06141118       -0.30028790       -1.27227120
 H          -1.15121816       -0.77974374        1.92414543
$end


$rem
         jobtype = opt
        exchange = b3lyp
           basis = 6-31++g**
  max_scf_cycles = 200
      mem_static = 100
       mem_total = 1500
   scf_algorithm = diis
       scf_guess = sad
$end


$opt
CONSTRAINT
tors 4 5 7 9 -120.0
ENDCONSTRAINT
$end

--------------------------------------------------------------
 Atom   8: ( -1.7846666866,  1.0760774952, -0.5673666099)
         ->( -1.7846668329,  1.0760775172, -0.5673666845)
 Atom  10: ( -3.1865756273,  0.1407190330, -0.1653139314)
         ->( -3.1865756339,  0.1407189645, -0.1653138075)
 Atom  11: ( -2.8545261421, -0.9947120772,  0.5172956847)
         ->( -2.8545260235, -0.9947120029,  0.5172959074)
 Atom   9: ( -1.4522762556, -1.1325575082,  0.7129969202)
         ->( -1.4522760903, -1.1325576585,  0.7129965878)
 Atom   7: ( -0.7188930895, -0.0986786336,  0.1792120641)
         ->( -0.7188930381, -0.0986784871,  0.1792120431)
 Atom  16: ( -0.9954071310, -1.9789714806,  1.2092637209)
         ->( -0.9954068455, -1.9789717492,  1.2092630630)
 Atom  14: (  3.5837296806,  1.7162417904,  0.8613462401)
         ->(  3.5837298646,  1.7162418729,  0.8613458608)
 Atom  15: ( -4.1655076959,  0.4882636784, -0.4578876422)
         ->( -4.1655077975,  0.4882635003, -0.4578873434)
 ----------------------------------------------------------------
             Standard Nuclear Orientation (Angstroms)
    I     Atom           X                Y                Z
 ----------------------------------------------------------------
    1      S       1.7846668329    -1.0760775172    -0.5673666845
    2      C       3.1865756339    -0.1407189645    -0.1653138075
    3      C       2.8545260235     0.9947120029     0.5172959074
    4      C       1.4522760903     1.1325576585     0.7129965878
    5      C       0.7188930381     0.0986784871     0.1792120431
    6      H       0.9954068455     1.9789717492     1.2092630630
    7      C      -0.7188930381    -0.0986784871     0.1792120431
    8      S      -1.7846668329     1.0760775172    -0.5673666845
    9      C      -1.4522760903    -1.1325576585     0.7129965878
   10      C      -3.1865756339     0.1407189645    -0.1653138075
   11      C      -2.8545260235    -0.9947120029     0.5172959074
   12      H      -3.5837298646    -1.7162418729     0.8613458608
   13      H       4.1655077975    -0.4882635003    -0.4578873434
   14      H       3.5837298646     1.7162418729     0.8613458608
   15      H      -4.1655077975     0.4882635003    -0.4578873434
   16      H      -0.9954068455    -1.9789717492     1.2092630630
 ----------------------------------------------------------------
 Molecular Point Group                 C2    NOp =  2
 Largest Abelian Subgroup              C2    NOp =  2
 Nuclear Repulsion Energy =   629.5176244418 hartrees
 There are       43 alpha and       43 beta electrons
 Requested basis set is 6-31++G(d,p)
 There are 76 shells and 234 basis functions

 Total QAlloc Memory Limit   1500 MB
 Mega-Array Size        98 MB
 MEM_STATIC part       100 MB
 A cutoff of  1.0D-11 yielded   2492 shell pairs
 There are     24612 function pairs
 
 -------------------------------------------------------
 OpenMP Integral Computing Module                       
 Release: version 1.0, May 2013, Q-Chem Inc. Pittsburgh 
 -------------------------------------------------------
 Integral Job Info:
 Integral job number is                      11
 Integral operator is                         1
 short-range coefficients                     0
 long-range coefficients              100000000
 Omega coefficients                           0
 if combine SR and LR in K                    0
 Integral screening is                        0
 Integral computing path is                   2
 max size of driver memory is            800000
 size of driver memory is                593474
 size of scratch memory is             15166112
 max col of scratch BK array               1296
 max len of scratch array in speh3          155
 max len of scratch index in speh4           18
 max int batch size is                      520
 min int batch size is                       52
 fixed nKL is                                52
 max L of basis functions is                  2
 order of int derivative is                   0
 number of shells is                         76
 number of basis is                         234
 number of cartesian basis is               234
 number of contracted shell pairs          2492
 number of primitive shell pairs           8059
 maxK2 (contraction) of shell pair           36
 max number of K2 of shell pair               1
 max number of CS2 of shell pair            258
 max number of PS2 of shell pair           1536
 mem total for path MDJ                   51576
 -------------------------------------------------------
 Smallest overlap matrix eigenvalue = 1.09E-06

 Q-Chem warning in module /project/projectdirs/jcesr/qchem/qc44/cnl_qc441/compile/cori/qc_src/stvman/mkSTV.C, line 257:

 Overlap eigenvalue is smaller than square root of threshold


 Scale SEOQF with 1.000000e-01/1.000000e-01/1.000000e-01

 Standard Electronic Orientation quadrupole field applied
 Nucleus-field energy     =     0.0000000178 hartrees
 Guess from superposition of atomic densities
 Warning:  Energy on first SCF cycle will be non-variational
 A restricted hybrid HF-DFT SCF calculation will be
 performed using Pulay DIIS extrapolation
 Exchange:     0.2000 Hartree-Fock + 0.0800 Slater + 0.7200 B88
 Correlation:  0.1900 VWN1RPA + 0.8100 LYP
 Using SG-1 standard quadrature grid
 SCF converges when DIIS error is below 1.0E-08
 ---------------------------------------
  Cycle       Energy         DIIS Error
 ---------------------------------------
    1   -1107.2267908270      4.44E-02
    2   -1101.9637467341      1.27E-01
    3   -1105.6798232603      2.01E-02
    4   -1104.3556674987      1.84E-02
    5   -1105.1312689920      1.77E-02
    6   -1104.2240178688      1.39E-02
    7   -1105.1183211312      7.43E-03
    8   -1101.9674194525      1.43E-02
    9   -1100.0141566679      2.22E-02
   10   -1099.6368049512      2.55E-02
   11   -1118.3976956855      5.71E-02
   12   -1098.5573777027      1.87E-02
   13   -1098.3264425762      1.91E-02
   14   -1098.3247837468      1.91E-02
   15   -1102.0910599790      9.10E-03
   16   -1103.8521742478      1.10E-02
   17   -1104.8076913665      1.77E-03
   18   -1104.7945461220      2.41E-03
   19   -1104.8360348575      5.84E-04
   20   -1104.8380367287      2.47E-04
   21   -1104.8384537243      9.13E-05
   22   -1104.8385221259      1.37E-05
   23   -1104.8385241302      4.11E-06
   24   -1104.8385219826      1.64E-06
   25   -1104.8385239924      2.35E-07
   26   -1104.8385248464      9.62E-08
   27   -1104.8385253247      7.33E-08
   28   -1104.8385257239      3.92E-08
   29   -1104.8385272190      6.81E-08
   30   -1104.8385272374      4.16E-08
   31   -1104.8385268030      5.40E-08
   32   -1104.8385276384      3.75E-08
   33   -1104.8385277656      3.04E-08
   34   -1104.8385281455      5.97E-08
   35   -1104.8385283333      6.17E-08
   36   -1104.8385287206      1.08E-07
   37   -1104.8385275848      1.77E-08
   38   -1104.8385278471      7.12E-08
   39   -1104.8385285721      1.18E-07
   40   -1104.8385288550      1.51E-07
   41   -1104.8385286450      1.43E-07
   42   -1104.8385292219      1.85E-07
   43   -1104.8385287154      1.45E-07
   44   -1104.8385291176      1.69E-07
   45   -1104.8385305667      2.38E-07
   46   -1104.8385302254      2.36E-07
   47   -1104.8385290151      1.58E-07
   48   -1104.8385286827      1.36E-07
   49   -1104.8385299118      2.06E-07
   50   -1104.8385291804      1.49E-07
   51   -1104.8385288802      1.11E-07
   52   -1104.8385288781      1.12E-07
   53   -1104.8385288432      1.05E-07
   54   -1104.8385282304      8.23E-08
   55   -1104.8385264053      7.23E-08
   56   -1104.8385264282      2.06E-08
   57   -1104.8385254624      5.02E-08
   58   -1104.8385259705      5.98E-08
   59   -1104.8385265547      3.58E-08
   60   -1104.8385262874      6.39E-08
   61   -1104.8385263300      5.81E-08
   62   -1104.8385267932      2.14E-08
   63   -1104.8385271779      1.80E-08
   64   -1104.8385273034      1.81E-08
   65   -1104.8385274161      2.78E-08
   66   -1104.8385274785      2.63E-08
   67   -1104.8385272966      1.66E-08
   68   -1104.8385272329      1.57E-08
   69   -1104.8385273528      2.36E-08
   70   -1104.8385271992      1.47E-08
   71   -1104.8385266468      3.99E-08
   72   -1104.8385267797      2.47E-08
   73   -1104.8385267988      2.57E-08
   74   -1104.8385268967      1.90E-08
   75   -1104.8385269725      1.54E-08
   76   -1104.8385270625      1.16E-08
   77   -1104.8385269132      1.85E-08
   78   -1104.8385269940      1.38E-08
   79   -1104.8385273562      1.76E-08
   80   -1104.8385273120      1.93E-08
   81   -1104.8385276090      4.34E-08
   82   -1104.8385277603      5.56E-08
   83   -1104.8385277036      5.84E-08
   84   -1104.8385270489      1.74E-08
   85   -1104.8385268280      1.49E-08
   86   -1104.8385267261      1.59E-08
   87   -1104.8385272704      2.76E-08
   88   -1104.8385274241      4.32E-08
   89   -1104.8385270602      2.01E-08
   90   -1104.8385271516      2.35E-08
   91   -1104.8385271922      2.58E-08
   92   -1104.8385270221      1.46E-08
   93   -1104.8385273257      2.69E-08
   94   -1104.8385272634      2.30E-08
   95   -1104.8385273711      2.94E-08
   96   -1104.8385275125      2.78E-08
   97   -1104.8385282474      7.76E-08
   98   -1104.8385286160      1.01E-07
   99   -1104.8385291162      1.38E-07
  100   -1104.8385289979      1.38E-07
  101   -1104.8385290028      1.45E-07
  102   -1104.8385277523      4.45E-08
  103   -1104.8385274303      3.04E-08
  104   -1104.8385273257      1.35E-08
  105   -1104.8385272006      8.58E-09 Convergence criterion met
 ---------------------------------------
 SCF time:  CPU 40.05 s  wall 33.53 s
 SCF   energy in the final basis set = -1104.8385272006
 Total energy in the final basis set = -1104.8385272006
 
 --------------------------------------------------------------
             Orbital Energies (a.u.) and Symmetries
 --------------------------------------------------------------
 
 Alpha MOs, Restricted
 -- Occupied --                  
-88.919 -88.919 -10.236 -10.235 -10.223 -10.223 -10.203 -10.203
  1 B     1 A     2 A     2 B     3 B     3 A     4 A     4 B                  
-10.202 -10.202  -7.978  -7.978  -5.942  -5.942  -5.939  -5.939
  5 B     5 A     6 B     6 A     7 B     7 A     8 B     8 A                  
 -5.936  -5.936  -0.900  -0.879  -0.771  -0.746  -0.739  -0.706
  9 B     9 A    10 A    10 B    11 A    11 B    12 A    12 B                  
 -0.603  -0.574  -0.558  -0.535  -0.525  -0.478  -0.418  -0.418
 13 A    13 B    14 A    14 B    15 A    15 B    16 A    16 B                  
 -0.412  -0.406  -0.396  -0.376  -0.375  -0.353  -0.347  -0.264
 17 A    17 B    18 A    19 A    18 B    19 B    20 A    21 A                  
 -0.262  -0.259  -0.226
 22 A    20 B    21 B                                                          
 -- Virtual --                   
 -0.044  -0.020  -0.005  -0.003   0.006   0.011   0.018   0.022
 23 A    22 B    24 A    23 B    25 A    24 B    25 B    26 A                  
  0.028   0.037   0.039   0.039   0.045   0.055   0.061   0.064
 27 A    28 A    26 B    27 B    29 A    28 B    30 A    29 B                  
  0.070   0.075   0.089   0.097   0.104   0.105   0.108   0.109
 30 B    31 A    32 A    31 B    33 A    34 A    32 B    35 A                  
  0.118   0.122   0.127   0.131   0.132   0.134   0.136   0.144
 33 B    34 B    35 B    36 A    36 B    37 A    38 A    37 B                  
  0.145   0.152   0.153   0.164   0.167   0.173   0.178   0.180
 38 B    39 A    40 A    39 B    41 A    40 B    41 B    42 A                  
  0.186   0.188   0.198   0.209   0.212   0.224   0.224   0.233
 43 A    42 B    43 B    44 A    44 B    45 A    45 B    46 A                  
  0.236   0.241   0.261   0.267   0.277   0.284   0.285   0.291
 47 A    46 B    47 B    48 A    49 A    48 B    50 A    49 B                  
  0.312   0.321   0.324   0.337   0.356   0.362   0.378   0.391
 50 B    51 B    51 A    52 A    52 B    53 A    53 B    54 A                  
  0.436   0.463   0.467   0.512   0.522   0.528   0.533   0.574
 54 B    55 B    55 A    56 A    57 A    56 B    57 B    58 B                  
  0.581   0.598   0.617   0.628   0.652   0.659   0.675   0.685
 58 A    59 A    59 B    60 A    60 B    61 B    61 A    62 A                  
  0.697   0.716   0.721   0.726   0.740   0.757   0.763   0.778
 63 A    62 B    63 B    64 A    64 B    65 B    65 A    66 A                  
  0.779   0.806   0.808   0.828   0.836   0.881   0.915   0.940
 66 B    67 B    67 A    68 A    68 B    69 A    69 B    70 A                  
  0.943   0.952   0.962   0.966   0.969   0.987   0.999   1.014
 70 B    71 B    71 A    72 B    72 A    73 A    73 B    74 B                  
  1.018   1.030   1.035   1.072   1.093   1.094   1.102   1.116
 75 B    74 A    75 A    76 A    76 B    77 A    78 A    77 B                  
  1.144   1.180   1.201   1.218   1.262   1.272   1.317   1.350
 78 B    79 A    80 A    79 B    81 A    80 B    81 B    82 A                  
  1.351   1.357   1.367   1.381   1.449   1.471   1.495   1.547
 82 B    83 A    83 B    84 A    85 A    84 B    85 B    86 A                  
  1.550   1.692   1.695   1.765   1.804   1.864   1.878   1.889
 86 B    87 A    87 B    88 A    89 A    88 B    90 A    89 B                  
  1.919   1.928   1.972   1.995   2.004   2.039   2.077   2.098
 90 B    91 A    92 A    91 B    93 A    92 B    93 B    94 A                  
  2.132   2.138   2.184   2.188   2.227   2.263   2.266   2.348
 94 B    95 A    95 B    96 A    96 B    97 A    97 B    98 A                  
  2.369   2.369   2.423   2.438   2.469   2.478   2.498   2.513
 99 A    98 B    99 B   100 A   101 A   100 B   101 B   102 A                  
  2.524   2.525   2.588   2.593   2.600   2.657   2.704   2.711
102 B   103 A   103 B   104 A   104 B   105 A   106 A   105 B                  
  2.756   2.857   2.864   2.900   2.936   3.163   3.194   3.275
106 B   107 A   107 B   108 A   108 B   109 B   109 A   110 B                  
  3.277   3.410   3.432   3.729   3.750   3.974   3.975   4.273
110 A   111 A   111 B   112 A   112 B   113 A   113 B   114 A                  
  4.305   4.321   4.334   4.429   4.538   4.661   4.717
115 A   114 B   115 B   116 A   116 B   117 A   117 B                          
 
 Beta MOs, Restricted
 -- Occupied --                  
-88.919 -88.919 -10.236 -10.235 -10.223 -10.223 -10.203 -10.203
  1 B     1 A     2 A     2 B     3 B     3 A     4 A     4 B                  
-10.202 -10.202  -7.978  -7.978  -5.942  -5.942  -5.939  -5.939
  5 B     5 A     6 B     6 A     7 B     7 A     8 B     8 A                  
 -5.936  -5.936  -0.900  -0.879  -0.771  -0.746  -0.739  -0.706
  9 B     9 A    10 A    10 B    11 A    11 B    12 A    12 B                  
 -0.603  -0.574  -0.558  -0.535  -0.525  -0.478  -0.418  -0.418
 13 A    13 B    14 A    14 B    15 A    15 B    16 A    16 B                  
 -0.412  -0.406  -0.396  -0.376  -0.375  -0.353  -0.347  -0.264
 17 A    17 B    18 A    19 A    18 B    19 B    20 A    21 A                  
 -0.262  -0.259  -0.226
 22 A    20 B    21 B                                                          
 -- Virtual --                   
 -0.044  -0.020  -0.005  -0.003   0.006   0.011   0.018   0.022
 23 A    22 B    24 A    23 B    25 A    24 B    25 B    26 A                  
  0.028   0.037   0.039   0.039   0.045   0.055   0.061   0.064
 27 A    28 A    26 B    27 B    29 A    28 B    30 A    29 B                  
  0.070   0.075   0.089   0.097   0.104   0.105   0.108   0.109
 30 B    31 A    32 A    31 B    33 A    34 A    32 B    35 A                  
  0.118   0.122   0.127   0.131   0.132   0.134   0.136   0.144
 33 B    34 B    35 B    36 A    36 B    37 A    38 A    37 B                  
  0.145   0.152   0.153   0.164   0.167   0.173   0.178   0.180
 38 B    39 A    40 A    39 B    41 A    40 B    41 B    42 A                  
  0.186   0.188   0.198   0.209   0.212   0.224   0.224   0.233
 43 A    42 B    43 B    44 A    44 B    45 A    45 B    46 A                  
  0.236   0.241   0.261   0.267   0.277   0.284   0.285   0.291
 47 A    46 B    47 B    48 A    49 A    48 B    50 A    49 B                  
  0.312   0.321   0.324   0.337   0.356   0.362   0.378   0.391
 50 B    51 B    51 A    52 A    52 B    53 A    53 B    54 A                  
  0.436   0.463   0.467   0.512   0.522   0.528   0.533   0.574
 54 B    55 B    55 A    56 A    57 A    56 B    57 B    58 B                  
  0.581   0.598   0.617   0.628   0.652   0.659   0.675   0.685
 58 A    59 A    59 B    60 A    60 B    61 B    61 A    62 A                  
  0.697   0.716   0.721   0.726   0.740   0.757   0.763   0.778
 63 A    62 B    63 B    64 A    64 B    65 B    65 A    66 A                  
  0.779   0.806   0.808   0.828   0.836   0.881   0.915   0.940
 66 B    67 B    67 A    68 A    68 B    69 A    69 B    70 A                  
  0.943   0.952   0.962   0.966   0.969   0.987   0.999   1.014
 70 B    71 B    71 A    72 B    72 A    73 A    73 B    74 B                  
  1.018   1.030   1.035   1.072   1.093   1.094   1.102   1.116
 75 B    74 A    75 A    76 A    76 B    77 A    78 A    77 B                  
  1.144   1.180   1.201   1.218   1.262   1.272   1.317   1.350
 78 B    79 A    80 A    79 B    81 A    80 B    81 B    82 A                  
  1.351   1.357   1.367   1.381   1.449   1.471   1.495   1.547
 82 B    83 A    83 B    84 A    85 A    84 B    85 B    86 A                  
  1.550   1.692   1.695   1.765   1.804   1.864   1.878   1.889
 86 B    87 A    87 B    88 A    89 A    88 B    90 A    89 B                  
  1.919   1.928   1.972   1.995   2.004   2.039   2.077   2.098
 90 B    91 A    92 A    91 B    93 A    92 B    93 B    94 A                  
  2.132   2.138   2.184   2.188   2.227   2.263   2.266   2.348
 94 B    95 A    95 B    96 A    96 B    97 A    97 B    98 A                  
  2.369   2.369   2.423   2.438   2.469   2.478   2.498   2.513
 99 A    98 B    99 B   100 A   101 A   100 B   101 B   102 A                  
  2.524   2.525   2.588   2.593   2.600   2.657   2.704   2.711
102 B   103 A   103 B   104 A   104 B   105 A   106 A   105 B                  
  2.756   2.857   2.864   2.900   2.936   3.163   3.194   3.275
106 B   107 A   107 B   108 A   108 B   109 B   109 A   110 B                  
  3.277   3.410   3.432   3.729   3.750   3.974   3.975   4.273
110 A   111 A   111 B   112 A   112 B   113 A   113 B   114 A                  
  4.305   4.321   4.334   4.429   4.538   4.661   4.717
115 A   114 B   115 B   116 A   116 B   117 A   117 B                          
 --------------------------------------------------------------
 
          Ground-State Mulliken Net Atomic Charges

     Atom                 Charge (a.u.)
  ----------------------------------------
      1 S                     0.047640
      2 C                    -0.044848
      3 C                    -0.392684
      4 C                     0.254441
      5 C                    -0.303805
      6 H                     0.135181
      7 C                    -0.303805
      8 S                     0.047640
      9 C                     0.254441
     10 C                    -0.044848
     11 C                    -0.392684
     12 H                     0.116844
     13 H                     0.187230
     14 H                     0.116844
     15 H                     0.187230
     16 H                     0.135181
  ----------------------------------------
  Sum of atomic charges =    -0.000000

 -----------------------------------------------------------------
                    Cartesian Multipole Moments
 -----------------------------------------------------------------
    Charge (ESU x 10^10)
                -0.0000
    Dipole Moment (Debye)
         X      -0.0000      Y       0.0000      Z       0.4595
       Tot       0.4595
    Quadrupole Moments (Debye-Ang)
        XX     -61.2552     XY       1.6595     YY     -70.5282
        XZ      -0.0000     YZ      -0.0000     ZZ     -75.9688
    Octopole Moments (Debye-Ang^2)
       XXX       0.0000    XXY       0.0000    XYY      -0.0000
       YYY      -0.0000    XXZ      -6.8809    XYZ      11.6564
       YYZ       6.1152    XZZ       0.0000    YZZ       0.0000
       ZZZ      -3.3777
    Hexadecapole Moments (Debye-Ang^3)
      XXXX   -1882.6455   XXXY     -11.5421   XXYY    -417.4283
      XYYY       8.5489   YYYY    -470.0242   XXXZ      -0.0000
      XXYZ      -0.0000   XYYZ      -0.0000   YYYZ      -0.0000
      XXZZ    -419.0583   XYZZ      -0.6310   YYZZ    -109.3680
      XZZZ      -0.0000   YZZZ      -0.0000   ZZZZ    -230.9076
 -----------------------------------------------------------------
 Calculating analytic gradient of the SCF energy
 Gradient of SCF Energy
            1           2           3           4           5           6
    1  -0.0000740   0.0001877  -0.0013160   0.0012286  -0.0056666   0.0011275
    2   0.0002432   0.0045145  -0.0032408  -0.0029922   0.0016403  -0.0002349
    3   0.0013333   0.0008155   0.0000094   0.0025264  -0.0019256  -0.0016958
            7           8           9          10          11          12
    1   0.0056666   0.0000740  -0.0012286  -0.0001877   0.0013160   0.0010821
    2  -0.0016403  -0.0002432   0.0029922  -0.0045145   0.0032408   0.0010171
    3  -0.0019256   0.0013333   0.0025264   0.0008155   0.0000094  -0.0006281
           13          14          15          16
    1  -0.0018759  -0.0010821   0.0018759  -0.0011275
    2   0.0005890  -0.0010171  -0.0005890   0.0002349
    3  -0.0004351  -0.0006281  -0.0004351  -0.0016958
 Max gradient component =       5.667E-03
 RMS gradient           =       2.055E-03
 Gradient time:  CPU 1.91 s  wall 1.91 s
 Geometry Optimization Parameters
   NAtoms,    NIC,     NZ,  NCons,   NDum,   NFix, NCnnct, MaxDiis
       16     111       0       1       0       0       0       0


** CONSTRAINED OPTIMIZATION IN DELOCALIZED INTERNAL COORDINATES **
   Searching for a Minimum

   Optimization Cycle:   1

                       Coordinates (Angstroms)
     ATOM                X               Y               Z
      1  S         1.7846668329   -1.0760775172   -0.5673666845
      2  C         3.1865756339   -0.1407189645   -0.1653138075
      3  C         2.8545260235    0.9947120029    0.5172959074
      4  C         1.4522760903    1.1325576585    0.7129965878
      5  C         0.7188930381    0.0986784871    0.1792120431
      6  H         0.9954068455    1.9789717492    1.2092630630
      7  C        -0.7188930381   -0.0986784871    0.1792120431
      8  S        -1.7846668329    1.0760775172   -0.5673666845
      9  C        -1.4522760903   -1.1325576585    0.7129965878
     10  C        -3.1865756339    0.1407189645   -0.1653138075
     11  C        -2.8545260235   -0.9947120029    0.5172959074
     12  H        -3.5837298646   -1.7162418729    0.8613458608
     13  H         4.1655077975   -0.4882635003   -0.4578873434
     14  H         3.5837298646    1.7162418729    0.8613458608
     15  H        -4.1655077975    0.4882635003   -0.4578873434
     16  H        -0.9954068455   -1.9789717492    1.2092630630
   Point Group: c2    Number of degrees of freedom:    22


   Energy is  -1104.838527201

              Constraints and their Current Values
                                        Value     Constraint
   Dihedral:        4   5   7   9     -120.000     -120.000

 Attempting to Generate Delocalized Internal Coordinates

 21 Hessian modes will be used to form the next step
  Hessian Eigenvalues:
     0.045000    0.045000    0.045000    0.045002    0.045004    0.045013
     0.159937    0.159990    0.160000    0.221280    0.237833    0.249997
     0.296078    0.314672    0.357149    0.357543    0.360899    0.380793
     0.408411    0.470750    0.505998

 Minimum Search - Taking Simple RFO Step
 Searching for Lamda that Minimizes Along All modes
 Value Taken    Lamda =  -0.00076301
 Step Taken.  Stepsize is  0.096614

                             Maximum     Tolerance    Cnvgd?
         Gradient           0.006964      0.000300      NO
         Displacement       0.058010      0.001200      NO
         Energy change     *********      0.000001      NO


 New Cartesian Coordinates Obtained by Inverse Iteration

 Displacement from previous Coordinates is:  0.204034
 ----------------------------------------------------------------
             Standard Nuclear Orientation (Angstroms)
    I     Atom           X                Y                Z
 ----------------------------------------------------------------
    1      S       1.7982459686    -1.0727266648    -0.5800325565
    2      C       3.1999142893    -0.1490575903    -0.1471512306
    3      C       2.8602183611     1.0017520869     0.5153198613
    4      C       1.4514484984     1.1429180751     0.6920177294
    5      C       0.7235172142     0.1029961017     0.1568418477
    6      H       0.9845592044     1.9851783616     1.1906674659
    7      C      -0.7235172142    -0.1029961017     0.1568418477
    8      S      -1.7982459686     1.0727266648    -0.5800325565
    9      C      -1.4514484984    -1.1429180751     0.6920177294
   10      C      -3.1999142893     0.1490575903    -0.1471512306
   11      C      -2.8602183611    -1.0017520869     0.5153198613
   12      H      -3.5882829944    -1.7217716299     0.8721905138
   13      H       4.1862249290    -0.5071592378    -0.4103080044
   14      H       3.5882829944     1.7217716299     0.8721905138
   15      H      -4.1862249290     0.5071592378    -0.4103080044
   16      H      -0.9845592044    -1.9851783616     1.1906674659
 ----------------------------------------------------------------
 Molecular Point Group                 C2    NOp =  2
 Largest Abelian Subgroup              C2    NOp =  2
 Nuclear Repulsion Energy =   627.8828366226 hartrees
 There are       43 alpha and       43 beta electrons
 Applying Cartesian multipole field
    Component          Value
    ---------          -----
     (2,0,0)        1.00000E-11
     (0,2,0)        2.00000E-11
     (0,0,2)       -3.00000E-11
 Nucleus-field energy     =     0.0000000179 hartrees
 Requested basis set is 6-31++G(d,p)
 There are 76 shells and 234 basis functions
 A cutoff of  1.0D-11 yielded   2490 shell pairs
 There are     24600 function pairs
 Smallest overlap matrix eigenvalue = 1.12E-06

 Q-Chem warning in module /project/projectdirs/jcesr/qchem/qc44/cnl_qc441/compile/cori/qc_src/stvman/mkSTV.C, line 257:

 Overlap eigenvalue is smaller than square root of threshold

 Guess MOs from SCF MO coefficient file
 Reading MOs from coefficient file
 Reading MOs from coefficient file
 A restricted hybrid HF-DFT SCF calculation will be
 performed using Pulay DIIS extrapolation
 Exchange:     0.2000 Hartree-Fock + 0.0800 Slater + 0.7200 B88
 Correlation:  0.1900 VWN1RPA + 0.8100 LYP
 Using SG-1 standard quadrature grid
 SCF converges when DIIS error is below 1.0E-08
 Geometry optimization detected.  Setting ReadMinima to 0
 Setting SaveMinima to 0
 ---------------------------------------
  Cycle       Energy         DIIS Error
 ---------------------------------------
    1   -1104.8200474565      7.97E-04
    2   -1104.8387463240      1.48E-04
    3   -1104.8382379595      2.97E-04
    4   -1104.8389386575      3.63E-05
    5   -1104.8389460473      1.73E-05
    6   -1104.8389482157      4.12E-06
    7   -1104.8389483279      1.71E-06
    8   -1104.8389483462      3.63E-07
    9   -1104.8389483476      7.74E-08
   10   -1104.8389483474      3.59E-08
   11   -1104.8389483489      6.77E-09 Convergence criterion met
 ---------------------------------------
 SCF time:  CPU 5.85 s  wall 5.18 s
 SCF   energy in the final basis set = -1104.8389483489
 Total energy in the final basis set = -1104.8389483489
 
 --------------------------------------------------------------
             Orbital Energies (a.u.) and Symmetries
 --------------------------------------------------------------
 
 Alpha MOs, Restricted
 -- Occupied --                  
-88.920 -88.920 -10.237 -10.237 -10.225 -10.225 -10.204 -10.204
  1 B     1 A     2 A     2 B     3 B     3 A     4 A     4 B                  
-10.203 -10.203  -7.979  -7.979  -5.943  -5.943  -5.939  -5.939
  5 B     5 A     6 B     6 A     7 B     7 A     8 B     8 A                  
 -5.936  -5.936  -0.898  -0.877  -0.769  -0.745  -0.739  -0.705
  9 B     9 A    10 A    10 B    11 A    11 B    12 A    12 B                  
 -0.602  -0.574  -0.558  -0.534  -0.524  -0.478  -0.417  -0.417
 13 A    13 B    14 A    14 B    15 A    15 B    16 A    16 B                  
 -0.410  -0.405  -0.396  -0.376  -0.374  -0.353  -0.347  -0.264
 17 A    17 B    18 A    19 A    18 B    19 B    20 A    21 A                  
 -0.261  -0.259  -0.226
 22 A    20 B    21 B                                                          
 -- Virtual --                   
 -0.045  -0.019  -0.006  -0.003   0.007   0.011   0.018   0.022
 23 A    22 B    24 A    23 B    25 A    24 B    25 B    26 A                  
  0.028   0.036   0.038   0.039   0.044   0.055   0.061   0.063
 27 A    28 A    26 B    27 B    29 A    28 B    30 A    29 B                  
  0.070   0.075   0.089   0.096   0.103   0.104   0.107   0.109
 30 B    31 A    32 A    31 B    33 A    34 A    32 B    35 A                  
  0.118   0.122   0.127   0.131   0.132   0.133   0.135   0.144
 33 B    34 B    35 B    36 A    36 B    37 A    38 A    37 B                  
  0.144   0.152   0.153   0.164   0.165   0.173   0.177   0.180
 38 B    39 A    40 A    39 B    41 A    40 B    41 B    42 A                  
  0.186   0.189   0.197   0.207   0.211   0.224   0.225   0.232
 43 A    42 B    43 B    44 A    44 B    45 B    45 A    46 A                  
  0.235   0.240   0.261   0.266   0.276   0.281   0.286   0.289
 47 A    46 B    47 B    48 A    49 A    48 B    50 A    49 B                  
  0.311   0.318   0.322   0.337   0.356   0.360   0.376   0.389
 50 B    51 B    51 A    52 A    52 B    53 A    53 B    54 A                  
  0.435   0.462   0.467   0.510   0.521   0.527   0.531   0.573
 54 B    55 B    55 A    56 A    57 A    56 B    57 B    58 B                  
  0.581   0.596   0.617   0.627   0.650   0.659   0.675   0.682
 58 A    59 A    59 B    60 A    60 B    61 B    61 A    62 A                  
  0.697   0.715   0.721   0.725   0.737   0.757   0.763   0.778
 63 A    62 B    63 B    64 A    64 B    65 B    65 A    66 B                  
  0.778   0.804   0.806   0.827   0.835   0.878   0.914   0.941
 66 A    67 B    67 A    68 A    68 B    69 A    69 B    70 A                  
  0.944   0.951   0.962   0.965   0.967   0.986   0.998   1.014
 70 B    71 B    71 A    72 B    72 A    73 A    73 B    74 B                  
  1.017   1.029   1.034   1.072   1.091   1.093   1.100   1.114
 75 B    74 A    75 A    76 A    76 B    77 A    78 A    77 B                  
  1.144   1.180   1.200   1.216   1.259   1.269   1.318   1.349
 78 B    79 A    80 A    79 B    81 A    80 B    81 B    82 B                  
  1.350   1.351   1.366   1.384   1.453   1.467   1.489   1.543
 82 A    83 A    83 B    84 A    85 A    84 B    85 B    86 A                  
  1.547   1.689   1.694   1.761   1.798   1.864   1.873   1.885
 86 B    87 A    87 B    88 A    89 A    88 B    90 A    89 B                  
  1.916   1.922   1.965   1.992   2.002   2.033   2.074   2.096
 90 B    91 A    92 A    91 B    93 A    92 B    93 B    94 A                  
  2.129   2.136   2.181   2.183   2.220   2.258   2.261   2.338
 94 B    95 A    95 B    96 A    96 B    97 A    97 B    98 A                  
  2.367   2.367   2.422   2.436   2.467   2.468   2.494   2.507
 99 A    98 B    99 B   100 A   101 A   100 B   101 B   102 A                  
  2.522   2.523   2.582   2.587   2.597   2.651   2.697   2.706
103 A   102 B   103 B   104 A   104 B   105 A   106 A   105 B                  
  2.748   2.848   2.855   2.892   2.930   3.154   3.185   3.269
106 B   107 A   107 B   108 A   108 B   109 B   109 A   110 B                  
  3.271   3.403   3.424   3.720   3.741   3.971   3.975   4.268
110 A   111 A   111 B   112 A   112 B   113 A   113 B   114 A                  
  4.303   4.320   4.330   4.427   4.536   4.657   4.711
115 A   114 B   115 B   116 A   116 B   117 A   117 B                          
 
 Beta MOs, Restricted
 -- Occupied --                  
-88.920 -88.920 -10.237 -10.237 -10.225 -10.225 -10.204 -10.204
  1 B     1 A     2 A     2 B     3 B     3 A     4 A     4 B                  
-10.203 -10.203  -7.979  -7.979  -5.943  -5.943  -5.939  -5.939
  5 B     5 A     6 B     6 A     7 B     7 A     8 B     8 A                  
 -5.936  -5.936  -0.898  -0.877  -0.769  -0.745  -0.739  -0.705
  9 B     9 A    10 A    10 B    11 A    11 B    12 A    12 B                  
 -0.602  -0.574  -0.558  -0.534  -0.524  -0.478  -0.417  -0.417
 13 A    13 B    14 A    14 B    15 A    15 B    16 A    16 B                  
 -0.410  -0.405  -0.396  -0.376  -0.374  -0.353  -0.347  -0.264
 17 A    17 B    18 A    19 A    18 B    19 B    20 A    21 A                  
 -0.261  -0.259  -0.226
 22 A    20 B    21 B                                                          
 -- Virtual --                   
 -0.045  -0.019  -0.006  -0.003   0.007   0.011   0.018   0.022
 23 A    22 B    24 A    23 B    25 A    24 B    25 B    26 A                  
  0.028   0.036   0.038   0.039   0.044   0.055   0.061   0.063
 27 A    28 A    26 B    27 B    29 A    28 B    30 A    29 B                  
  0.070   0.075   0.089   0.096   0.103   0.104   0.107   0.109
 30 B    31 A    32 A    31 B    33 A    34 A    32 B    35 A                  
  0.118   0.122   0.127   0.131   0.132   0.133   0.135   0.144
 33 B    34 B    35 B    36 A    36 B    37 A    38 A    37 B                  
  0.144   0.152   0.153   0.164   0.165   0.173   0.177   0.180
 38 B    39 A    40 A    39 B    41 A    40 B    41 B    42 A                  
  0.186   0.189   0.197   0.207   0.211   0.224   0.225   0.232
 43 A    42 B    43 B    44 A    44 B    45 B    45 A    46 A                  
  0.235   0.240   0.261   0.266   0.276   0.281   0.286   0.289
 47 A    46 B    47 B    48 A    49 A    48 B    50 A    49 B                  
  0.311   0.318   0.322   0.337   0.356   0.360   0.376   0.389
 50 B    51 B    51 A    52 A    52 B    53 A    53 B    54 A                  
  0.435   0.462   0.467   0.510   0.521   0.527   0.531   0.573
 54 B    55 B    55 A    56 A    57 A    56 B    57 B    58 B                  
  0.581   0.596   0.617   0.627   0.650   0.659   0.675   0.682
 58 A    59 A    59 B    60 A    60 B    61 B    61 A    62 A                  
  0.697   0.715   0.721   0.725   0.737   0.757   0.763   0.778
 63 A    62 B    63 B    64 A    64 B    65 B    65 A    66 B                  
  0.778   0.804   0.806   0.827   0.835   0.878   0.914   0.941
 66 A    67 B    67 A    68 A    68 B    69 A    69 B    70 A                  
  0.944   0.951   0.962   0.965   0.967   0.986   0.998   1.014
 70 B    71 B    71 A    72 B    72 A    73 A    73 B    74 B                  
  1.017   1.029   1.034   1.072   1.091   1.093   1.100   1.114
 75 B    74 A    75 A    76 A    76 B    77 A    78 A    77 B                  
  1.144   1.180   1.200   1.216   1.259   1.269   1.318   1.349
 78 B    79 A    80 A    79 B    81 A    80 B    81 B    82 B                  
  1.350   1.351   1.366   1.384   1.453   1.467   1.489   1.543
 82 A    83 A    83 B    84 A    85 A    84 B    85 B    86 A                  
  1.547   1.689   1.694   1.761   1.798   1.864   1.873   1.885
 86 B    87 A    87 B    88 A    89 A    88 B    90 A    89 B                  
  1.916   1.922   1.965   1.992   2.002   2.033   2.074   2.096
 90 B    91 A    92 A    91 B    93 A    92 B    93 B    94 A                  
  2.129   2.136   2.181   2.183   2.220   2.258   2.261   2.338
 94 B    95 A    95 B    96 A    96 B    97 A    97 B    98 A                  
  2.367   2.367   2.422   2.436   2.467   2.468   2.494   2.507
 99 A    98 B    99 B   100 A   101 A   100 B   101 B   102 A                  
  2.522   2.523   2.582   2.587   2.597   2.651   2.697   2.706
103 A   102 B   103 B   104 A   104 B   105 A   106 A   105 B                  
  2.748   2.848   2.855   2.892   2.930   3.154   3.185   3.269
106 B   107 A   107 B   108 A   108 B   109 B   109 A   110 B                  
  3.271   3.403   3.424   3.720   3.741   3.971   3.975   4.268
110 A   111 A   111 B   112 A   112 B   113 A   113 B   114 A                  
  4.303   4.320   4.330   4.427   4.536   4.657   4.711
115 A   114 B   115 B   116 A   116 B   117 A   117 B                          
 --------------------------------------------------------------
 
          Ground-State Mulliken Net Atomic Charges

     Atom                 Charge (a.u.)
  ----------------------------------------
      1 S                     0.047975
      2 C                    -0.046878
      3 C                    -0.385736
      4 C                     0.241883
      5 C                    -0.298548
      6 H                     0.136126
      7 C                    -0.298548
      8 S                     0.047975
      9 C                     0.241883
     10 C                    -0.046878
     11 C                    -0.385736
     12 H                     0.117362
     13 H                     0.187817
     14 H                     0.117362
     15 H                     0.187817
     16 H                     0.136126
  ----------------------------------------
  Sum of atomic charges =    -0.000000

 -----------------------------------------------------------------
                    Cartesian Multipole Moments
 -----------------------------------------------------------------
    Charge (ESU x 10^10)
                -0.0000
    Dipole Moment (Debye)
         X       0.0000      Y      -0.0000      Z       0.5163
       Tot       0.5163
    Quadrupole Moments (Debye-Ang)
        XX     -61.1548     XY       1.4908     YY     -70.5703
        XZ      -0.0000     YZ      -0.0000     ZZ     -76.0822
    Octopole Moments (Debye-Ang^2)
       XXX       0.0000    XXY      -0.0000    XYY      -0.0000
       YYY      -0.0000    XXZ      -4.9114    XYZ      11.6736
       YYZ       6.7344    XZZ       0.0000    YZZ      -0.0000
       ZZZ      -1.6928
    Hexadecapole Moments (Debye-Ang^3)
      XXXX   -1893.1451   XXXY     -14.9283   XXYY    -420.2320
      XYYY       8.7345   YYYY    -472.5381   XXXZ      -0.0000
      XXYZ      -0.0000   XYYZ      -0.0000   YYYZ      -0.0000
      XXZZ    -423.5356   XYZZ      -0.2567   YYZZ    -109.6263
      XZZZ       0.0000   YZZZ      -0.0000   ZZZZ    -229.8476
 -----------------------------------------------------------------
 Calculating analytic gradient of the SCF energy
 Gradient of SCF Energy
            1           2           3           4           5           6
    1   0.0000635   0.0006555  -0.0000213   0.0002970  -0.0012384   0.0000495
    2   0.0001560   0.0003033  -0.0000921  -0.0014890   0.0014510   0.0005268
    3  -0.0005906   0.0002199  -0.0000981   0.0026302  -0.0012335  -0.0006000
            7           8           9          10          11          12
    1   0.0012384  -0.0000635  -0.0002970  -0.0006555   0.0000213  -0.0000933
    2  -0.0014510  -0.0001560   0.0014890  -0.0003033   0.0000921  -0.0001298
    3  -0.0012335  -0.0005906   0.0026302   0.0002199  -0.0000981   0.0000054
           13          14          15          16
    1   0.0000074   0.0000933  -0.0000074  -0.0000495
    2  -0.0001125   0.0001298   0.0001125  -0.0005268
    3  -0.0003334   0.0000054  -0.0003334  -0.0006000
 Max gradient component =       2.630E-03
 RMS gradient           =       8.200E-04
 Gradient time:  CPU 1.91 s  wall 1.89 s
 Geometry Optimization Parameters
   NAtoms,    NIC,     NZ,  NCons,   NDum,   NFix, NCnnct, MaxDiis
       16     111       0       1       0       0       0       0

 Cartesian Hessian Update
 Hessian Updated using BFGS Update


** CONSTRAINED OPTIMIZATION IN DELOCALIZED INTERNAL COORDINATES **
   Searching for a Minimum

   Optimization Cycle:   2

                       Coordinates (Angstroms)
     ATOM                X               Y               Z
      1  S         1.7982459686   -1.0727266648   -0.5800325565
      2  C         3.1999142893   -0.1490575903   -0.1471512306
      3  C         2.8602183611    1.0017520869    0.5153198613
      4  C         1.4514484984    1.1429180751    0.6920177294
      5  C         0.7235172142    0.1029961017    0.1568418477
      6  H         0.9845592044    1.9851783616    1.1906674659
      7  C        -0.7235172142   -0.1029961017    0.1568418477
      8  S        -1.7982459686    1.0727266648   -0.5800325565
      9  C        -1.4514484984   -1.1429180751    0.6920177294
     10  C        -3.1999142893    0.1490575903   -0.1471512306
     11  C        -2.8602183611   -1.0017520869    0.5153198613
     12  H        -3.5882829944   -1.7217716299    0.8721905138
     13  H         4.1862249290   -0.5071592378   -0.4103080044
     14  H         3.5882829944    1.7217716299    0.8721905138
     15  H        -4.1862249290    0.5071592378   -0.4103080044
     16  H        -0.9845592044   -1.9851783616    1.1906674659
   Point Group: c2    Number of degrees of freedom:    22


   Energy is  -1104.838948349

              Constraints and their Current Values
                                        Value     Constraint
   Dihedral:        4   5   7   9     -120.000     -120.000
 Hessian Updated using BFGS Update

 21 Hessian modes will be used to form the next step
  Hessian Eigenvalues:
     0.033236    0.045000    0.045000    0.045002    0.045008    0.048853
     0.158068    0.159990    0.160058    0.221249    0.238061    0.249624
     0.297174    0.314919    0.357290    0.358719    0.362764    0.386718
     0.429461    0.469584    0.528981

 Minimum Search - Taking Simple RFO Step
 Searching for Lamda that Minimizes Along All modes
 Value Taken    Lamda =  -0.00009134
 Step Taken.  Stepsize is  0.048807

                             Maximum     Tolerance    Cnvgd?
         Gradient           0.001254      0.000300      NO
         Displacement       0.027147      0.001200      NO
         Energy change     -0.000421      0.000001      NO


 New Cartesian Coordinates Obtained by Inverse Iteration

 Displacement from previous Coordinates is:  0.104601
 ----------------------------------------------------------------
             Standard Nuclear Orientation (Angstroms)
    I     Atom           X                Y                Z
 ----------------------------------------------------------------
    1      S       1.8014718251    -1.0764530481    -0.5801170907
    2      C       3.1997377265    -0.1527474651    -0.1382606104
    3      C       2.8568562271     1.0031146760     0.5146896028
    4      C       1.4469241224     1.1469930242     0.6785183449
    5      C       0.7238020502     0.1045884741     0.1425798130
    6      H       0.9753715258     1.9855964530     1.1790199265
    7      C      -0.7238020502    -0.1045884741     0.1425798130
    8      S      -1.8014718251     1.0764530481    -0.5801170907
    9      C      -1.4469241224    -1.1469930242     0.6785183449
   10      C      -3.1997377265     0.1527474651    -0.1382606104
   11      C      -2.8568562271    -1.0031146760     0.5146896028
   12      H      -3.5833582842    -1.7213288943     0.8783093810
   13      H       4.1889198896    -0.5146377239    -0.3851937404
   14      H       3.5833582842     1.7213288943     0.8783093810
   15      H      -4.1889198896     0.5146377239    -0.3851937404
   16      H      -0.9753715258    -1.9855964530     1.1790199265
 ----------------------------------------------------------------
 Molecular Point Group                 C2    NOp =  2
 Largest Abelian Subgroup              C2    NOp =  2
 Nuclear Repulsion Energy =   627.9243564930 hartrees
 There are       43 alpha and       43 beta electrons
 Applying Cartesian multipole field
    Component          Value
    ---------          -----
     (2,0,0)        1.00000E-11
     (0,2,0)        2.00000E-11
     (0,0,2)       -3.00000E-11
 Nucleus-field energy     =     0.0000000180 hartrees
 Requested basis set is 6-31++G(d,p)
 There are 76 shells and 234 basis functions
 A cutoff of  1.0D-11 yielded   2494 shell pairs
 There are     24620 function pairs
 Smallest overlap matrix eigenvalue = 1.11E-06

 Q-Chem warning in module /project/projectdirs/jcesr/qchem/qc44/cnl_qc441/compile/cori/qc_src/stvman/mkSTV.C, line 257:

 Overlap eigenvalue is smaller than square root of threshold

 Guess MOs from SCF MO coefficient file
 Reading MOs from coefficient file
 Reading MOs from coefficient file
 A restricted hybrid HF-DFT SCF calculation will be
 performed using Pulay DIIS extrapolation
 Exchange:     0.2000 Hartree-Fock + 0.0800 Slater + 0.7200 B88
 Correlation:  0.1900 VWN1RPA + 0.8100 LYP
 Using SG-1 standard quadrature grid
 SCF converges when DIIS error is below 1.0E-08
 Geometry optimization detected.  Setting ReadMinima to 0
 Setting SaveMinima to 0
 ---------------------------------------
  Cycle       Energy         DIIS Error
 ---------------------------------------
    1   -1104.8401414122      3.69E-04
    2   -1104.8389875861      5.22E-05
    3   -1104.8389393071      9.58E-05
    4   -1104.8390115862      1.44E-05
    5   -1104.8390128583      6.74E-06
    6   -1104.8390131668      2.36E-06
    7   -1104.8390132057      5.07E-07
    8   -1104.8390132073      1.55E-07
    9   -1104.8390132106      2.66E-08
   10   -1104.8390132105      5.32E-09 Convergence criterion met
 ---------------------------------------
 SCF time:  CPU 5.36 s  wall 4.70 s
 SCF   energy in the final basis set = -1104.8390132105
 Total energy in the final basis set = -1104.8390132105
 
 --------------------------------------------------------------
             Orbital Energies (a.u.) and Symmetries
 --------------------------------------------------------------
 
 Alpha MOs, Restricted
 -- Occupied --                  
-88.920 -88.920 -10.237 -10.237 -10.224 -10.224 -10.204 -10.204
  1 B     1 A     2 A     2 B     3 B     3 A     4 A     4 B                  
-10.203 -10.203  -7.979  -7.979  -5.943  -5.943  -5.939  -5.939
  5 B     5 A     6 B     6 A     7 B     7 A     8 B     8 A                  
 -5.936  -5.936  -0.899  -0.878  -0.769  -0.745  -0.739  -0.705
  9 B     9 A    10 A    10 B    11 A    11 B    12 A    12 B                  
 -0.601  -0.574  -0.558  -0.534  -0.524  -0.478  -0.417  -0.417
 13 A    13 B    14 A    14 B    15 A    15 B    16 B    16 A                  
 -0.410  -0.405  -0.396  -0.376  -0.374  -0.354  -0.348  -0.264
 17 A    17 B    18 A    19 A    18 B    19 B    20 A    21 A                  
 -0.261  -0.259  -0.226
 22 A    20 B    21 B                                                          
 -- Virtual --                   
 -0.045  -0.019  -0.006  -0.003   0.006   0.011   0.018   0.022
 23 A    22 B    24 A    23 B    25 A    24 B    25 B    26 A                  
  0.028   0.036   0.039   0.039   0.044   0.055   0.061   0.063
 27 A    28 A    26 B    27 B    29 A    28 B    30 A    29 B                  
  0.070   0.076   0.089   0.096   0.103   0.104   0.107   0.109
 30 B    31 A    32 A    31 B    33 A    34 A    32 B    35 A                  
  0.118   0.122   0.127   0.131   0.132   0.133   0.135   0.143
 33 B    34 B    35 B    36 A    36 B    37 A    38 A    37 B                  
  0.144   0.152   0.153   0.164   0.165   0.173   0.177   0.180
 38 B    39 A    40 A    39 B    41 A    40 B    41 B    42 A                  
  0.186   0.189   0.198   0.207   0.211   0.225   0.226   0.232
 43 A    42 B    43 B    44 A    44 B    45 B    45 A    46 A                  
  0.236   0.240   0.262   0.266   0.275   0.281   0.286   0.288
 47 A    46 B    47 B    48 A    49 A    48 B    50 A    49 B                  
  0.311   0.318   0.321   0.337   0.356   0.360   0.375   0.389
 50 B    51 B    51 A    52 A    52 B    53 A    53 B    54 A                  
  0.436   0.462   0.467   0.511   0.522   0.526   0.531   0.572
 54 B    55 B    55 A    56 A    57 A    56 B    57 B    58 B                  
  0.581   0.596   0.617   0.627   0.650   0.659   0.675   0.682
 58 A    59 A    59 B    60 A    60 B    61 B    61 A    62 A                  
  0.697   0.715   0.721   0.725   0.738   0.758   0.763   0.777
 63 A    62 B    63 B    64 A    64 B    65 B    65 A    66 B                  
  0.779   0.805   0.806   0.827   0.835   0.877   0.914   0.940
 66 A    67 B    67 A    68 A    68 B    69 A    69 B    70 A                  
  0.945   0.950   0.962   0.965   0.967   0.987   0.997   1.014
 70 B    71 B    71 A    72 B    72 A    73 A    73 B    74 B                  
  1.017   1.029   1.033   1.072   1.091   1.093   1.099   1.114
 75 B    74 A    75 A    76 A    76 B    77 A    78 A    77 B                  
  1.145   1.180   1.200   1.215   1.259   1.269   1.319   1.348
 78 B    79 A    80 A    79 B    81 A    80 B    81 B    82 A                  
  1.350   1.352   1.366   1.387   1.457   1.465   1.487   1.542
 82 B    83 A    83 B    84 A    85 A    84 B    85 B    86 A                  
  1.547   1.689   1.694   1.760   1.797   1.867   1.873   1.885
 86 B    87 A    87 B    88 A    89 A    88 B    90 A    89 B                  
  1.918   1.922   1.964   1.992   2.003   2.033   2.075   2.097
 90 B    91 A    92 A    91 B    93 A    92 B    93 B    94 A                  
  2.130   2.135   2.182   2.183   2.220   2.259   2.261   2.337
 94 B    95 A    95 B    96 A    96 B    97 A    97 B    98 A                  
  2.367   2.368   2.423   2.437   2.466   2.467   2.495   2.505
 99 A    98 B    99 B   100 A   100 B   101 A   101 B   102 A                  
  2.523   2.523   2.581   2.586   2.599   2.651   2.696   2.706
103 A   102 B   103 B   104 A   104 B   105 A   106 A   105 B                  
  2.747   2.847   2.854   2.893   2.930   3.153   3.185   3.268
106 B   107 A   107 B   108 A   108 B   109 B   109 A   110 B                  
  3.271   3.403   3.424   3.720   3.741   3.971   3.975   4.268
110 A   111 A   111 B   112 A   112 B   113 A   113 B   114 A                  
  4.303   4.319   4.330   4.426   4.536   4.657   4.711
115 A   114 B   115 B   116 A   116 B   117 A   117 B                          
 
 Beta MOs, Restricted
 -- Occupied --                  
-88.920 -88.920 -10.237 -10.237 -10.224 -10.224 -10.204 -10.204
  1 B     1 A     2 A     2 B     3 B     3 A     4 A     4 B                  
-10.203 -10.203  -7.979  -7.979  -5.943  -5.943  -5.939  -5.939
  5 B     5 A     6 B     6 A     7 B     7 A     8 B     8 A                  
 -5.936  -5.936  -0.899  -0.878  -0.769  -0.745  -0.739  -0.705
  9 B     9 A    10 A    10 B    11 A    11 B    12 A    12 B                  
 -0.601  -0.574  -0.558  -0.534  -0.524  -0.478  -0.417  -0.417
 13 A    13 B    14 A    14 B    15 A    15 B    16 B    16 A                  
 -0.410  -0.405  -0.396  -0.376  -0.374  -0.354  -0.348  -0.264
 17 A    17 B    18 A    19 A    18 B    19 B    20 A    21 A                  
 -0.261  -0.259  -0.226
 22 A    20 B    21 B                                                          
 -- Virtual --                   
 -0.045  -0.019  -0.006  -0.003   0.006   0.011   0.018   0.022
 23 A    22 B    24 A    23 B    25 A    24 B    25 B    26 A                  
  0.028   0.036   0.039   0.039   0.044   0.055   0.061   0.063
 27 A    28 A    26 B    27 B    29 A    28 B    30 A    29 B                  
  0.070   0.076   0.089   0.096   0.103   0.104   0.107   0.109
 30 B    31 A    32 A    31 B    33 A    34 A    32 B    35 A                  
  0.118   0.122   0.127   0.131   0.132   0.133   0.135   0.143
 33 B    34 B    35 B    36 A    36 B    37 A    38 A    37 B                  
  0.144   0.152   0.153   0.164   0.165   0.173   0.177   0.180
 38 B    39 A    40 A    39 B    41 A    40 B    41 B    42 A                  
  0.186   0.189   0.198   0.207   0.211   0.225   0.226   0.232
 43 A    42 B    43 B    44 A    44 B    45 B    45 A    46 A                  
  0.236   0.240   0.262   0.266   0.275   0.281   0.286   0.288
 47 A    46 B    47 B    48 A    49 A    48 B    50 A    49 B                  
  0.311   0.318   0.321   0.337   0.356   0.360   0.375   0.389
 50 B    51 B    51 A    52 A    52 B    53 A    53 B    54 A                  
  0.436   0.462   0.467   0.511   0.522   0.526   0.531   0.572
 54 B    55 B    55 A    56 A    57 A    56 B    57 B    58 B                  
  0.581   0.596   0.617   0.627   0.650   0.659   0.675   0.682
 58 A    59 A    59 B    60 A    60 B    61 B    61 A    62 A                  
  0.697   0.715   0.721   0.725   0.738   0.758   0.763   0.777
 63 A    62 B    63 B    64 A    64 B    65 B    65 A    66 B                  
  0.779   0.805   0.806   0.827   0.835   0.877   0.914   0.940
 66 A    67 B    67 A    68 A    68 B    69 A    69 B    70 A                  
  0.945   0.950   0.962   0.965   0.967   0.987   0.997   1.014
 70 B    71 B    71 A    72 B    72 A    73 A    73 B    74 B                  
  1.017   1.029   1.033   1.072   1.091   1.093   1.099   1.114
 75 B    74 A    75 A    76 A    76 B    77 A    78 A    77 B                  
  1.145   1.180   1.200   1.215   1.259   1.269   1.319   1.348
 78 B    79 A    80 A    79 B    81 A    80 B    81 B    82 A                  
  1.350   1.352   1.366   1.387   1.457   1.465   1.487   1.542
 82 B    83 A    83 B    84 A    85 A    84 B    85 B    86 A                  
  1.547   1.689   1.694   1.760   1.797   1.867   1.873   1.885
 86 B    87 A    87 B    88 A    89 A    88 B    90 A    89 B                  
  1.918   1.922   1.964   1.992   2.003   2.033   2.075   2.097
 90 B    91 A    92 A    91 B    93 A    92 B    93 B    94 A                  
  2.130   2.135   2.182   2.183   2.220   2.259   2.261   2.337
 94 B    95 A    95 B    96 A    96 B    97 A    97 B    98 A                  
  2.367   2.368   2.423   2.437   2.466   2.467   2.495   2.505
 99 A    98 B    99 B   100 A   100 B   101 A   101 B   102 A                  
  2.523   2.523   2.581   2.586   2.599   2.651   2.696   2.706
103 A   102 B   103 B   104 A   104 B   105 A   106 A   105 B                  
  2.747   2.847   2.854   2.893   2.930   3.153   3.185   3.268
106 B   107 A   107 B   108 A   108 B   109 B   109 A   110 B                  
  3.271   3.403   3.424   3.720   3.741   3.971   3.975   4.268
110 A   111 A   111 B   112 A   112 B   113 A   113 B   114 A                  
  4.303   4.319   4.330   4.426   4.536   4.657   4.711
115 A   114 B   115 B   116 A   116 B   117 A   117 B                          
 --------------------------------------------------------------
 
          Ground-State Mulliken Net Atomic Charges

     Atom                 Charge (a.u.)
  ----------------------------------------
      1 S                     0.047876
      2 C                    -0.047476
      3 C                    -0.385342
      4 C                     0.240190
      5 C                    -0.296494
      6 H                     0.136535
      7 C                    -0.296494
      8 S                     0.047876
      9 C                     0.240190
     10 C                    -0.047476
     11 C                    -0.385342
     12 H                     0.117160
     13 H                     0.187552
     14 H                     0.117160
     15 H                     0.187552
     16 H                     0.136535
  ----------------------------------------
  Sum of atomic charges =     0.000000

 -----------------------------------------------------------------
                    Cartesian Multipole Moments
 -----------------------------------------------------------------
    Charge (ESU x 10^10)
                 0.0000
    Dipole Moment (Debye)
         X      -0.0000      Y       0.0000      Z       0.5572
       Tot       0.5572
    Quadrupole Moments (Debye-Ang)
        XX     -61.1880     XY       1.3884     YY     -70.5565
        XZ       0.0000     YZ       0.0000     ZZ     -76.0986
    Octopole Moments (Debye-Ang^2)
       XXX      -0.0000    XXY       0.0000    XYY      -0.0000
       YYY       0.0000    XXZ      -3.8888    XYZ      11.6163
       YYZ       6.9272    XZZ      -0.0000    YZZ      -0.0000
       ZZZ      -1.0429
    Hexadecapole Moments (Debye-Ang^3)
      XXXX   -1892.4992   XXXY     -15.4067   XXYY    -420.3131
      XYYY       9.5963   YYYY    -474.7127   XXXZ       0.0000
      XXYZ      -0.0000   XYYZ      -0.0000   YYYZ      -0.0000
      XXZZ    -423.7098   XYZZ       0.4300   YYZZ    -109.7479
      XZZZ       0.0000   YZZZ      -0.0000   ZZZZ    -227.7085
 -----------------------------------------------------------------
 Calculating analytic gradient of the SCF energy
 Gradient of SCF Energy
            1           2           3           4           5           6
    1   0.0000260  -0.0000287   0.0000120   0.0001113   0.0002158  -0.0000801
    2  -0.0000945  -0.0001961   0.0003950  -0.0012262   0.0018544   0.0003057
    3  -0.0007018  -0.0000071  -0.0001239   0.0021574  -0.0011712  -0.0002217
            7           8           9          10          11          12
    1  -0.0002158  -0.0000260  -0.0001113   0.0000287  -0.0000120  -0.0000728
    2  -0.0018544   0.0000945   0.0012262   0.0001961  -0.0003950  -0.0001091
    3  -0.0011712  -0.0007018   0.0021574  -0.0000071  -0.0001239   0.0001475
           13          14          15          16
    1   0.0001109   0.0000728  -0.0001109   0.0000801
    2  -0.0001031   0.0001091   0.0001031  -0.0003057
    3  -0.0000792   0.0001475  -0.0000792  -0.0002217
 Max gradient component =       2.157E-03
 RMS gradient           =       7.059E-04
 Gradient time:  CPU 1.89 s  wall 1.90 s
 Geometry Optimization Parameters
   NAtoms,    NIC,     NZ,  NCons,   NDum,   NFix, NCnnct, MaxDiis
       16     111       0       1       0       0       0       0

 Cartesian Hessian Update
 Hessian Updated using BFGS Update


** CONSTRAINED OPTIMIZATION IN DELOCALIZED INTERNAL COORDINATES **
   Searching for a Minimum

   Optimization Cycle:   3

                       Coordinates (Angstroms)
     ATOM                X               Y               Z
      1  S         1.8014718251   -1.0764530481   -0.5801170907
      2  C         3.1997377265   -0.1527474651   -0.1382606104
      3  C         2.8568562271    1.0031146760    0.5146896028
      4  C         1.4469241224    1.1469930242    0.6785183449
      5  C         0.7238020502    0.1045884741    0.1425798130
      6  H         0.9753715258    1.9855964530    1.1790199265
      7  C        -0.7238020502   -0.1045884741    0.1425798130
      8  S        -1.8014718251    1.0764530481   -0.5801170907
      9  C        -1.4469241224   -1.1469930242    0.6785183449
     10  C        -3.1997377265    0.1527474651   -0.1382606104
     11  C        -2.8568562271   -1.0031146760    0.5146896028
     12  H        -3.5833582842   -1.7213288943    0.8783093810
     13  H         4.1889198896   -0.5146377239   -0.3851937404
     14  H         3.5833582842    1.7213288943    0.8783093810
     15  H        -4.1889198896    0.5146377239   -0.3851937404
     16  H        -0.9753715258   -1.9855964530    1.1790199265
   Point Group: c2    Number of degrees of freedom:    22


   Energy is  -1104.839013210

              Constraints and their Current Values
                                        Value     Constraint
   Dihedral:        4   5   7   9     -120.000     -120.000
 Hessian Updated using BFGS Update

 21 Hessian modes will be used to form the next step
  Hessian Eigenvalues:
     0.016353    0.045000    0.045001    0.045006    0.045987    0.049907
     0.158109    0.160023    0.160485    0.222088    0.249190    0.262567
     0.295607    0.314483    0.357324    0.358497    0.362301    0.393648
     0.425787    0.479415    0.525737

 Minimum Search - Taking Simple RFO Step
 Searching for Lamda that Minimizes Along All modes
 Value Taken    Lamda =  -0.00005841
 Step Taken.  Stepsize is  0.056960

                             Maximum     Tolerance    Cnvgd?
         Gradient           0.000645      0.000300      NO
         Displacement       0.029892      0.001200      NO
         Energy change     -0.000065      0.000001      NO


 New Cartesian Coordinates Obtained by Inverse Iteration

 Displacement from previous Coordinates is:  0.117404
 ----------------------------------------------------------------
             Standard Nuclear Orientation (Angstroms)
    I     Atom           X                Y                Z
 ----------------------------------------------------------------
    1      S       1.8061171743    -1.0818038006    -0.5744450032
    2      C       3.2012827651    -0.1567638902    -0.1272207029
    3      C       2.8538499709     1.0039364677     0.5141266862
    4      C       1.4425821438     1.1511511741     0.6630131930
    5      C       0.7234424837     0.1064104355     0.1266736890
    6      H       0.9669853995     1.9872695520     1.1633452722
    7      C      -0.7234424837    -0.1064104355     0.1266736890
    8      S      -1.8061171743     1.0818038006    -0.5744450032
    9      C      -1.4425821438    -1.1511511741     0.6630131930
   10      C      -3.2012827651     0.1567638902    -0.1272207029
   11      C      -2.8538499709    -1.0039364677     0.5141266862
   12      H      -3.5783170665    -1.7216307209     0.8821266062
   13      H       4.1929709378    -0.5219399528    -0.3580741137
   14      H       3.5783170665     1.7216307209     0.8821266062
   15      H      -4.1929709378     0.5219399528    -0.3580741137
   16      H      -0.9669853995    -1.9872695520     1.1633452722
 ----------------------------------------------------------------
 Molecular Point Group                 C2    NOp =  2
 Largest Abelian Subgroup              C2    NOp =  2
 Nuclear Repulsion Energy =   628.0098272842 hartrees
 There are       43 alpha and       43 beta electrons
 Applying Cartesian multipole field
    Component          Value
    ---------          -----
     (2,0,0)        1.00000E-11
     (0,2,0)        2.00000E-11
     (0,0,2)       -3.00000E-11
 Nucleus-field energy     =     0.0000000181 hartrees
 Requested basis set is 6-31++G(d,p)
 There are 76 shells and 234 basis functions
 A cutoff of  1.0D-11 yielded   2494 shell pairs
 There are     24620 function pairs
 Smallest overlap matrix eigenvalue = 1.09E-06

 Q-Chem warning in module /project/projectdirs/jcesr/qchem/qc44/cnl_qc441/compile/cori/qc_src/stvman/mkSTV.C, line 257:

 Overlap eigenvalue is smaller than square root of threshold

 Guess MOs from SCF MO coefficient file
 Reading MOs from coefficient file
 Reading MOs from coefficient file
 A restricted hybrid HF-DFT SCF calculation will be
 performed using Pulay DIIS extrapolation
 Exchange:     0.2000 Hartree-Fock + 0.0800 Slater + 0.7200 B88
 Correlation:  0.1900 VWN1RPA + 0.8100 LYP
 Using SG-1 standard quadrature grid
 SCF converges when DIIS error is below 1.0E-08
 Geometry optimization detected.  Setting ReadMinima to 0
 Setting SaveMinima to 0
 ---------------------------------------
  Cycle       Energy         DIIS Error
 ---------------------------------------
    1   -1104.8407021756      4.51E-04
    2   -1104.8390210866      5.32E-05
    3   -1104.8389715405      9.84E-05
    4   -1104.8390468433      1.30E-05
    5   -1104.8390477011      7.71E-06
    6   -1104.8390481025      2.46E-06
    7   -1104.8390481442      6.49E-07
    8   -1104.8390481477      1.81E-07
    9   -1104.8390481502      3.22E-08
   10   -1104.8390481499      1.26E-08
   11   -1104.8390481495      3.98E-09 Convergence criterion met
 ---------------------------------------
 SCF time:  CPU 5.81 s  wall 5.09 s
 SCF   energy in the final basis set = -1104.8390481495
 Total energy in the final basis set = -1104.8390481495
 
 --------------------------------------------------------------
             Orbital Energies (a.u.) and Symmetries
 --------------------------------------------------------------
 
 Alpha MOs, Restricted
 -- Occupied --                  
-88.920 -88.920 -10.237 -10.237 -10.224 -10.224 -10.204 -10.204
  1 B     1 A     2 A     2 B     3 B     3 A     4 A     4 B                  
-10.203 -10.203  -7.979  -7.979  -5.943  -5.943  -5.939  -5.939
  5 B     5 A     6 B     6 A     7 B     7 A     8 B     8 A                  
 -5.936  -5.936  -0.899  -0.878  -0.769  -0.745  -0.739  -0.705
  9 B     9 A    10 A    10 B    11 A    11 B    12 A    12 B                  
 -0.601  -0.574  -0.558  -0.534  -0.524  -0.478  -0.417  -0.417
 13 A    13 B    14 A    14 B    15 A    15 B    16 B    16 A                  
 -0.410  -0.405  -0.396  -0.376  -0.374  -0.354  -0.348  -0.265
 17 A    17 B    18 A    19 A    18 B    19 B    20 A    21 A                  
 -0.262  -0.259  -0.225
 22 A    20 B    21 B                                                          
 -- Virtual --                   
 -0.046  -0.018  -0.006  -0.003   0.007   0.011   0.018   0.022
 23 A    22 B    24 A    23 B    25 A    24 B    25 B    26 A                  
  0.028   0.036   0.039   0.039   0.045   0.055   0.060   0.063
 27 A    28 A    26 B    27 B    29 A    28 B    30 A    29 B                  
  0.070   0.076   0.089   0.095   0.103   0.104   0.107   0.109
 30 B    31 A    32 A    31 B    33 A    34 A    32 B    35 A                  
  0.119   0.122   0.128   0.131   0.133   0.133   0.135   0.143
 33 B    34 B    35 B    36 A    36 B    37 A    38 A    37 B                  
  0.145   0.152   0.154   0.164   0.165   0.172   0.177   0.180
 38 B    39 A    40 A    39 B    41 A    40 B    41 B    42 A                  
  0.186   0.189   0.198   0.206   0.211   0.225   0.226   0.231
 43 A    42 B    43 B    44 A    44 B    45 B    45 A    46 A                  
  0.236   0.240   0.262   0.267   0.275   0.281   0.287   0.287
 47 A    46 B    47 B    48 A    49 A    48 B    50 A    49 B                  
  0.311   0.318   0.321   0.338   0.356   0.360   0.375   0.389
 50 B    51 B    51 A    52 A    52 B    53 A    53 B    54 A                  
  0.436   0.461   0.467   0.512   0.523   0.526   0.531   0.572
 54 B    55 B    55 A    56 A    57 A    56 B    57 B    58 B                  
  0.582   0.596   0.616   0.626   0.651   0.658   0.675   0.681
 58 A    59 A    59 B    60 A    60 B    61 B    61 A    62 A                  
  0.698   0.714   0.721   0.725   0.738   0.759   0.764   0.777
 63 A    62 B    63 B    64 A    64 B    65 B    65 A    66 B                  
  0.780   0.805   0.806   0.828   0.835   0.877   0.914   0.940
 66 A    67 B    67 A    68 A    68 B    69 A    69 B    70 A                  
  0.946   0.950   0.962   0.965   0.968   0.987   0.997   1.013
 70 B    71 B    71 A    72 B    72 A    73 A    73 B    74 B                  
  1.018   1.028   1.033   1.072   1.091   1.093   1.098   1.114
 75 B    74 A    75 A    76 A    76 B    77 A    78 A    77 B                  
  1.147   1.181   1.200   1.214   1.259   1.269   1.318   1.347
 78 B    79 A    80 A    79 B    81 A    80 B    81 B    82 A                  
  1.350   1.352   1.366   1.389   1.460   1.462   1.485   1.541
 82 B    83 A    83 B    84 A    85 A    84 B    85 B    86 A                  
  1.547   1.689   1.694   1.758   1.795   1.868   1.872   1.885
 86 B    87 A    87 B    88 A    89 A    88 B    90 A    89 B                  
  1.920   1.923   1.964   1.992   2.003   2.034   2.076   2.098
 90 B    91 A    92 A    91 B    93 A    92 B    93 B    94 A                  
  2.131   2.135   2.182   2.183   2.220   2.259   2.260   2.337
 94 B    95 A    95 B    96 A    96 B    97 A    97 B    98 A                  
  2.368   2.368   2.423   2.437   2.464   2.467   2.495   2.504
 99 A    98 B    99 B   100 A   100 B   101 A   101 B   102 A                  
  2.524   2.524   2.581   2.586   2.601   2.652   2.696   2.707
102 B   103 A   103 B   104 A   104 B   105 A   106 A   105 B                  
  2.747   2.847   2.854   2.893   2.930   3.154   3.186   3.269
106 B   107 A   107 B   108 A   108 B   109 B   109 A   110 B                  
  3.271   3.403   3.424   3.721   3.741   3.972   3.976   4.268
110 A   111 A   111 B   112 A   112 B   113 A   113 B   114 A                  
  4.304   4.317   4.329   4.426   4.536   4.657   4.710
115 A   114 B   115 B   116 A   116 B   117 A   117 B                          
 
 Beta MOs, Restricted
 -- Occupied --                  
-88.920 -88.920 -10.237 -10.237 -10.224 -10.224 -10.204 -10.204
  1 B     1 A     2 A     2 B     3 B     3 A     4 A     4 B                  
-10.203 -10.203  -7.979  -7.979  -5.943  -5.943  -5.939  -5.939
  5 B     5 A     6 B     6 A     7 B     7 A     8 B     8 A                  
 -5.936  -5.936  -0.899  -0.878  -0.769  -0.745  -0.739  -0.705
  9 B     9 A    10 A    10 B    11 A    11 B    12 A    12 B                  
 -0.601  -0.574  -0.558  -0.534  -0.524  -0.478  -0.417  -0.417
 13 A    13 B    14 A    14 B    15 A    15 B    16 B    16 A                  
 -0.410  -0.405  -0.396  -0.376  -0.374  -0.354  -0.348  -0.265
 17 A    17 B    18 A    19 A    18 B    19 B    20 A    21 A                  
 -0.262  -0.259  -0.225
 22 A    20 B    21 B                                                          
 -- Virtual --                   
 -0.046  -0.018  -0.006  -0.003   0.007   0.011   0.018   0.022
 23 A    22 B    24 A    23 B    25 A    24 B    25 B    26 A                  
  0.028   0.036   0.039   0.039   0.045   0.055   0.060   0.063
 27 A    28 A    26 B    27 B    29 A    28 B    30 A    29 B                  
  0.070   0.076   0.089   0.095   0.103   0.104   0.107   0.109
 30 B    31 A    32 A    31 B    33 A    34 A    32 B    35 A                  
  0.119   0.122   0.128   0.131   0.133   0.133   0.135   0.143
 33 B    34 B    35 B    36 A    36 B    37 A    38 A    37 B                  
  0.145   0.152   0.154   0.164   0.165   0.172   0.177   0.180
 38 B    39 A    40 A    39 B    41 A    40 B    41 B    42 A                  
  0.186   0.189   0.198   0.206   0.211   0.225   0.226   0.231
 43 A    42 B    43 B    44 A    44 B    45 B    45 A    46 A                  
  0.236   0.240   0.262   0.267   0.275   0.281   0.287   0.287
 47 A    46 B    47 B    48 A    49 A    48 B    50 A    49 B                  
  0.311   0.318   0.321   0.338   0.356   0.360   0.375   0.389
 50 B    51 B    51 A    52 A    52 B    53 A    53 B    54 A                  
  0.436   0.461   0.467   0.512   0.523   0.526   0.531   0.572
 54 B    55 B    55 A    56 A    57 A    56 B    57 B    58 B                  
  0.582   0.596   0.616   0.626   0.651   0.658   0.675   0.681
 58 A    59 A    59 B    60 A    60 B    61 B    61 A    62 A                  
  0.698   0.714   0.721   0.725   0.738   0.759   0.764   0.777
 63 A    62 B    63 B    64 A    64 B    65 B    65 A    66 B                  
  0.780   0.805   0.806   0.828   0.835   0.877   0.914   0.940
 66 A    67 B    67 A    68 A    68 B    69 A    69 B    70 A                  
  0.946   0.950   0.962   0.965   0.968   0.987   0.997   1.013
 70 B    71 B    71 A    72 B    72 A    73 A    73 B    74 B                  
  1.018   1.028   1.033   1.072   1.091   1.093   1.098   1.114
 75 B    74 A    75 A    76 A    76 B    77 A    78 A    77 B                  
  1.147   1.181   1.200   1.214   1.259   1.269   1.318   1.347
 78 B    79 A    80 A    79 B    81 A    80 B    81 B    82 A                  
  1.350   1.352   1.366   1.389   1.460   1.462   1.485   1.541
 82 B    83 A    83 B    84 A    85 A    84 B    85 B    86 A                  
  1.547   1.689   1.694   1.758   1.795   1.868   1.872   1.885
 86 B    87 A    87 B    88 A    89 A    88 B    90 A    89 B                  
  1.920   1.923   1.964   1.992   2.003   2.034   2.076   2.098
 90 B    91 A    92 A    91 B    93 A    92 B    93 B    94 A                  
  2.131   2.135   2.182   2.183   2.220   2.259   2.260   2.337
 94 B    95 A    95 B    96 A    96 B    97 A    97 B    98 A                  
  2.368   2.368   2.423   2.437   2.464   2.467   2.495   2.504
 99 A    98 B    99 B   100 A   100 B   101 A   101 B   102 A                  
  2.524   2.524   2.581   2.586   2.601   2.652   2.696   2.707
102 B   103 A   103 B   104 A   104 B   105 A   106 A   105 B                  
  2.747   2.847   2.854   2.893   2.930   3.154   3.186   3.269
106 B   107 A   107 B   108 A   108 B   109 B   109 A   110 B                  
  3.271   3.403   3.424   3.721   3.741   3.972   3.976   4.268
110 A   111 A   111 B   112 A   112 B   113 A   113 B   114 A                  
  4.304   4.317   4.329   4.426   4.536   4.657   4.710
115 A   114 B   115 B   116 A   116 B   117 A   117 B                          
 --------------------------------------------------------------
 
          Ground-State Mulliken Net Atomic Charges

     Atom                 Charge (a.u.)
  ----------------------------------------
      1 S                     0.045642
      2 C                    -0.044882
      3 C                    -0.386927
      4 C                     0.237874
      5 C                    -0.293032
      6 H                     0.136903
      7 C                    -0.293032
      8 S                     0.045642
      9 C                     0.237874
     10 C                    -0.044882
     11 C                    -0.386927
     12 H                     0.116875
     13 H                     0.187546
     14 H                     0.116875
     15 H                     0.187546
     16 H                     0.136903
  ----------------------------------------
  Sum of atomic charges =     0.000000

[...]
  3.271   3.404   3.424   3.721   3.742   3.972   3.976   4.268
110 A   111 A   111 B   112 A   112 B   113 A   113 B   114 A                  
  4.304   4.316   4.328   4.425   4.536   4.657   4.711
115 A   114 B   115 B   116 A   116 B   117 A   117 B                          
 --------------------------------------------------------------
 
          Ground-State Mulliken Net Atomic Charges

     Atom                 Charge (a.u.)
  ----------------------------------------
      1 S                     0.043063
      2 C                    -0.041686
      3 C                    -0.388202
      4 C                     0.233589
      5 C                    -0.288104
      6 H                     0.136954
      7 C                    -0.288104
      8 S                     0.043063
      9 C                     0.233589
     10 C                    -0.041686
     11 C                    -0.388202
     12 H                     0.116615
     13 H                     0.187771
     14 H                     0.116615
     15 H                     0.187771
     16 H                     0.136954
  ----------------------------------------
  Sum of atomic charges =     0.000000

 -----------------------------------------------------------------
                    Cartesian Multipole Moments
 -----------------------------------------------------------------
    Charge (ESU x 10^10)
                 0.0000
    Dipole Moment (Debye)
         X      -0.0000      Y       0.0000      Z       0.5977
       Tot       0.5977
    Quadrupole Moments (Debye-Ang)
        XX     -61.1716     XY       1.2808     YY     -70.4554
        XZ       0.0000     YZ       0.0000     ZZ     -76.2472
    Octopole Moments (Debye-Ang^2)
       XXX      -0.0000    XXY       0.0000    XYY      -0.0000
       YYY       0.0000    XXZ      -2.9351    XYZ      11.3033
       YYZ       6.7435    XZZ      -0.0000    YZZ       0.0000
       ZZZ      -1.5246
    Hexadecapole Moments (Debye-Ang^3)
      XXXX   -1892.2053   XXXY     -14.4709   XXYY    -420.5934
      XYYY      13.1256   YYYY    -480.5877   XXXZ       0.0000
      XXYZ      -0.0000   XYYZ       0.0000   YYYZ       0.0000
      XXZZ    -424.4607   XYZZ       2.0545   YYZZ    -110.2920
      XZZZ      -0.0000   YZZZ       0.0000   ZZZZ    -220.4143
 -----------------------------------------------------------------
 Calculating analytic gradient of the SCF energy
 Gradient of SCF Energy
            1           2           3           4           5           6
    1  -0.0000014   0.0000104  -0.0000529   0.0002337  -0.0005029   0.0000126
    2   0.0000039   0.0000368  -0.0000254  -0.0011631   0.0026046  -0.0000278
    3   0.0000179  -0.0000159   0.0000547   0.0020895  -0.0021742   0.0000497
            7           8           9          10          11          12
    1   0.0005029   0.0000014  -0.0002337  -0.0000104   0.0000529   0.0000049
    2  -0.0026046  -0.0000039   0.0011631  -0.0000368   0.0000254  -0.0000184
    3  -0.0021742   0.0000179   0.0020895  -0.0000159   0.0000547  -0.0000337
           13          14          15          16
    1  -0.0000148  -0.0000049   0.0000148  -0.0000126
    2  -0.0000009   0.0000184   0.0000009   0.0000278
    3   0.0000120  -0.0000337   0.0000120   0.0000497
 Max gradient component =       2.605E-03
 RMS gradient           =       8.552E-04
 Gradient time:  CPU 1.89 s  wall 1.93 s
 Geometry Optimization Parameters
   NAtoms,    NIC,     NZ,  NCons,   NDum,   NFix, NCnnct, MaxDiis
       16     111       0       1       0       0       0       0

 Cartesian Hessian Update
 Hessian Updated using BFGS Update


** CONSTRAINED OPTIMIZATION IN DELOCALIZED INTERNAL COORDINATES **
   Searching for a Minimum

   Optimization Cycle:   7

                       Coordinates (Angstroms)
     ATOM                X               Y               Z
      1  S         1.8094443251   -1.0894479729   -0.5630818163
      2  C         3.2024400745   -0.1625354859   -0.1118217921
      3  C         2.8510970467    1.0043003877    0.5157199479
      4  C         1.4393287940    1.1555162350    0.6506962245
      5  C         0.7224013220    0.1086039360    0.1145141821
      6  H         0.9621873775    1.9970235370    1.1403404985
      7  C        -0.7224013220   -0.1086039360    0.1145141821
      8  S        -1.8094443251    1.0894479729   -0.5630818163
      9  C        -1.4393287940   -1.1555162350    0.6506962245
     10  C        -3.2024400745    0.1625354859   -0.1118217921
     11  C        -2.8510970467   -1.0043003877    0.5157199479
     12  H        -3.5732521135   -1.7267340703    0.8789621588
     13  H         4.1947085161   -0.5300200443   -0.3357837768
     14  H         3.5732521135    1.7267340703    0.8789621588
     15  H        -4.1947085161    0.5300200443   -0.3357837768
     16  H        -0.9621873775   -1.9970235370    1.1403404985
   Point Group: c2    Number of degrees of freedom:    22


   Energy is  -1104.839065642

              Constraints and their Current Values
                                        Value     Constraint
   Dihedral:        4   5   7   9     -120.000     -120.000
 Hessian Updated using BFGS Update

 21 Hessian modes will be used to form the next step
  Hessian Eigenvalues:
     0.009084    0.021716    0.045001    0.045063    0.045525    0.048118
     0.158549    0.160197    0.160265    0.222324    0.247437    0.269817
     0.295752    0.315021    0.357318    0.359339    0.362654    0.387945
     0.431464    0.476375    0.528173

 Minimum Search - Taking Simple RFO Step
 Searching for Lamda that Minimizes Along All modes
 Value Taken    Lamda =   0.00000000
 Step Taken.  Stepsize is  0.003222

                             Maximum     Tolerance    Cnvgd?
         Gradient           0.000076      0.000300     YES
         Displacement       0.001899      0.001200      NO
         Energy change     -0.000001      0.000001     YES

 Final energy is   -1104.83906564170     


 ******************************
 **  OPTIMIZATION CONVERGED  **
 ******************************

                       Coordinates (Angstroms)
     ATOM                X               Y               Z
      1  S         1.8094443251   -1.0894479729   -0.5630818163
      2  C         3.2024400745   -0.1625354859   -0.1118217921
      3  C         2.8510970467    1.0043003877    0.5157199479
      4  C         1.4393287940    1.1555162350    0.6506962245
      5  C         0.7224013220    0.1086039360    0.1145141821
      6  H         0.9621873775    1.9970235370    1.1403404985
      7  C        -0.7224013220   -0.1086039360    0.1145141821
      8  S        -1.8094443251    1.0894479729   -0.5630818163
      9  C        -1.4393287940   -1.1555162350    0.6506962245
     10  C        -3.2024400745    0.1625354859   -0.1118217921
     11  C        -2.8510970467   -1.0043003877    0.5157199479
     12  H        -3.5732521135   -1.7267340703    0.8789621588
     13  H         4.1947085161   -0.5300200443   -0.3357837768
     14  H         3.5732521135    1.7267340703    0.8789621588
     15  H        -4.1947085161    0.5300200443   -0.3357837768
     16  H        -0.9621873775   -1.9970235370    1.1403404985

Z-matrix Print:
$molecule
0 1
S 
C  1 1.732986
H  2 1.081573 1 120.118640
C  2 1.370677 1 111.623090 3 -179.923592 0
H  4 1.084142 2 123.361581 1 -179.929631 0
C  4 1.426245 2 112.787273 1 -0.579243 0
H  6 1.084228 4 124.099773 2 -178.403343 0
C  6 1.377498 4 113.438052 2 0.548094 0
C  8 1.461039 6 128.877744 4 -177.248524 0
C  9 1.377498 8 128.877744 6 120.000027 0
H  10 1.084228 9 122.453536 8 1.722505 0
C  10 1.426245 9 113.438052 8 -177.248524 0
H  12 1.084142 10 123.847732 9 179.894808 0
C  12 1.370677 10 112.787273 9 0.548094 0
H  14 1.081573 12 128.258218 10 179.504926 0
S  14 1.732986 12 111.623090 10 -0.579243 0
$end

 
 --------------------------------------------------------------
             Orbital Energies (a.u.) and Symmetries
 --------------------------------------------------------------
 
 Alpha MOs, Restricted
 -- Occupied --                  
-88.920 -88.920 -10.237 -10.237 -10.224 -10.224 -10.204 -10.204
  1 B     1 A     2 A     2 B     3 B     3 A     4 A     4 B                  
-10.203 -10.203  -7.979  -7.979  -5.943  -5.943  -5.939  -5.939
  5 B     5 A     6 B     6 A     7 B     7 A     8 B     8 A                  
 -5.936  -5.936  -0.899  -0.878  -0.769  -0.745  -0.739  -0.705
  9 B     9 A    10 A    10 B    11 A    11 B    12 A    12 B                  
 -0.602  -0.574  -0.558  -0.534  -0.524  -0.478  -0.418  -0.417
 13 A    13 B    14 A    14 B    15 A    15 B    16 B    16 A                  
 -0.409  -0.405  -0.396  -0.376  -0.374  -0.354  -0.347  -0.265
 17 A    17 B    18 A    19 A    18 B    19 B    20 A    21 A                  
 -0.262  -0.259  -0.225
 22 A    20 B    21 B                                                          
 -- Virtual --                   
 -0.046  -0.017  -0.006  -0.003   0.006   0.011   0.018   0.022
 23 A    22 B    24 A    23 B    25 A    24 B    25 B    26 A                  
  0.028   0.036   0.039   0.039   0.045   0.055   0.060   0.062
 27 A    28 A    26 B    27 B    29 A    28 B    30 A    29 B                  
  0.070   0.076   0.090   0.095   0.103   0.105   0.106   0.109
 30 B    31 A    32 A    31 B    33 A    34 A    32 B    35 A                  
  0.119   0.122   0.128   0.131   0.133   0.133   0.135   0.142
 33 B    34 B    35 B    36 A    36 B    37 A    38 A    37 B                  
  0.145   0.152   0.155   0.164   0.165   0.172   0.178   0.180
 38 B    39 A    40 A    41 A    39 B    40 B    41 B    42 A                  
  0.186   0.190   0.199   0.206   0.210   0.226   0.227   0.231
 43 A    42 B    43 B    44 A    44 B    45 B    45 A    46 A                  
  0.236   0.239   0.262   0.267   0.275   0.282   0.286   0.286
 47 A    46 B    47 B    48 A    49 A    48 B    49 B    50 A                  
  0.312   0.318   0.321   0.338   0.356   0.360   0.374   0.389
 50 B    51 B    51 A    52 A    52 B    53 A    53 B    54 A                  
  0.437   0.461   0.467   0.513   0.524   0.525   0.531   0.571
 54 B    55 B    55 A    56 A    57 A    56 B    57 B    58 B                  
  0.582   0.596   0.616   0.625   0.652   0.658   0.675   0.680
 58 A    59 A    59 B    60 A    60 B    61 B    61 A    62 A                  
  0.698   0.714   0.721   0.725   0.738   0.760   0.764   0.777
 63 A    62 B    63 B    64 A    64 B    65 B    65 A    66 B                  
  0.780   0.806   0.806   0.828   0.835   0.876   0.915   0.938
 66 A    67 A    67 B    68 A    68 B    69 A    69 B    70 A                  
  0.947   0.950   0.963   0.965   0.967   0.988   0.998   1.013
 70 B    71 B    71 A    72 B    72 A    73 A    73 B    74 B                  
  1.019   1.028   1.033   1.072   1.092   1.094   1.097   1.114
 75 B    74 A    75 A    76 A    76 B    77 A    78 A    77 B                  
  1.147   1.181   1.201   1.213   1.259   1.268   1.319   1.349
 78 B    79 A    80 A    79 B    81 A    80 B    81 B    82 A                  
  1.349   1.353   1.364   1.390   1.458   1.462   1.486   1.545
 82 B    83 A    83 B    84 A    85 A    84 B    85 B    86 A                  
  1.545   1.687   1.695   1.757   1.794   1.868   1.872   1.885
 86 B    87 A    87 B    88 A    89 A    88 B    90 A    89 B                  
  1.920   1.922   1.963   1.991   2.003   2.036   2.078   2.098
 90 B    91 A    92 A    91 B    93 A    92 B    93 B    94 A                  
  2.130   2.136   2.181   2.183   2.220   2.258   2.259   2.338
 94 B    95 A    96 A    95 B    96 B    97 B    97 A    98 A                  
  2.368   2.368   2.423   2.438   2.464   2.467   2.496   2.505
 99 A    98 B    99 B   100 A   100 B   101 A   101 B   102 A                  
  2.524   2.524   2.582   2.587   2.603   2.652   2.697   2.706
102 B   103 A   103 B   104 A   104 B   105 A   106 A   105 B                  
  2.748   2.847   2.853   2.894   2.930   3.154   3.186   3.269
106 B   107 A   107 B   108 A   108 B   109 B   109 A   110 B                  
  3.271   3.404   3.424   3.721   3.742   3.972   3.976   4.268
110 A   111 A   111 B   112 A   112 B   113 A   113 B   114 A                  
  4.304   4.316   4.328   4.425   4.536   4.657   4.711
115 A   114 B   115 B   116 A   116 B   117 A   117 B                          
 
 Beta MOs, Restricted
 -- Occupied --                  
-88.920 -88.920 -10.237 -10.237 -10.224 -10.224 -10.204 -10.204
  1 B     1 A     2 A     2 B     3 B     3 A     4 A     4 B                  
-10.203 -10.203  -7.979  -7.979  -5.943  -5.943  -5.939  -5.939
  5 B     5 A     6 B     6 A     7 B     7 A     8 B     8 A                  
 -5.936  -5.936  -0.899  -0.878  -0.769  -0.745  -0.739  -0.705
  9 B     9 A    10 A    10 B    11 A    11 B    12 A    12 B                  
 -0.602  -0.574  -0.558  -0.534  -0.524  -0.478  -0.418  -0.417
 13 A    13 B    14 A    14 B    15 A    15 B    16 B    16 A                  
 -0.409  -0.405  -0.396  -0.376  -0.374  -0.354  -0.347  -0.265
 17 A    17 B    18 A    19 A    18 B    19 B    20 A    21 A                  
 -0.262  -0.259  -0.225
 22 A    20 B    21 B                                                          
 -- Virtual --                   
 -0.046  -0.017  -0.006  -0.003   0.006   0.011   0.018   0.022
 23 A    22 B    24 A    23 B    25 A    24 B    25 B    26 A                  
  0.028   0.036   0.039   0.039   0.045   0.055   0.060   0.062
 27 A    28 A    26 B    27 B    29 A    28 B    30 A    29 B                  
  0.070   0.076   0.090   0.095   0.103   0.105   0.106   0.109
 30 B    31 A    32 A    31 B    33 A    34 A    32 B    35 A                  
  0.119   0.122   0.128   0.131   0.133   0.133   0.135   0.142
 33 B    34 B    35 B    36 A    36 B    37 A    38 A    37 B                  
  0.145   0.152   0.155   0.164   0.165   0.172   0.178   0.180
 38 B    39 A    40 A    41 A    39 B    40 B    41 B    42 A                  
  0.186   0.190   0.199   0.206   0.210   0.226   0.227   0.231
 43 A    42 B    43 B    44 A    44 B    45 B    45 A    46 A                  
  0.236   0.239   0.262   0.267   0.275   0.282   0.286   0.286
 47 A    46 B    47 B    48 A    49 A    48 B    49 B    50 A                  
  0.312   0.318   0.321   0.338   0.356   0.360   0.374   0.389
 50 B    51 B    51 A    52 A    52 B    53 A    53 B    54 A                  
  0.437   0.461   0.467   0.513   0.524   0.525   0.531   0.571
 54 B    55 B    55 A    56 A    57 A    56 B    57 B    58 B                  
  0.582   0.596   0.616   0.625   0.652   0.658   0.675   0.680
 58 A    59 A    59 B    60 A    60 B    61 B    61 A    62 A                  
  0.698   0.714   0.721   0.725   0.738   0.760   0.764   0.777
 63 A    62 B    63 B    64 A    64 B    65 B    65 A    66 B                  
  0.780   0.806   0.806   0.828   0.835   0.876   0.915   0.938
 66 A    67 A    67 B    68 A    68 B    69 A    69 B    70 A                  
  0.947   0.950   0.963   0.965   0.967   0.988   0.998   1.013
 70 B    71 B    71 A    72 B    72 A    73 A    73 B    74 B                  
  1.019   1.028   1.033   1.072   1.092   1.094   1.097   1.114
 75 B    74 A    75 A    76 A    76 B    77 A    78 A    77 B                  
  1.147   1.181   1.201   1.213   1.259   1.268   1.319   1.349
 78 B    79 A    80 A    79 B    81 A    80 B    81 B    82 A                  
  1.349   1.353   1.364   1.390   1.458   1.462   1.486   1.545
 82 B    83 A    83 B    84 A    85 A    84 B    85 B    86 A                  
  1.545   1.687   1.695   1.757   1.794   1.868   1.872   1.885
 86 B    87 A    87 B    88 A    89 A    88 B    90 A    89 B                  
  1.920   1.922   1.963   1.991   2.003   2.036   2.078   2.098
 90 B    91 A    92 A    91 B    93 A    92 B    93 B    94 A                  
  2.130   2.136   2.181   2.183   2.220   2.258   2.259   2.338
 94 B    95 A    96 A    95 B    96 B    97 B    97 A    98 A                  
  2.368   2.368   2.423   2.438   2.464   2.467   2.496   2.505
 99 A    98 B    99 B   100 A   100 B   101 A   101 B   102 A                  
  2.524   2.524   2.582   2.587   2.603   2.652   2.697   2.706
102 B   103 A   103 B   104 A   104 B   105 A   106 A   105 B                  
  2.748   2.847   2.853   2.894   2.930   3.154   3.186   3.269
106 B   107 A   107 B   108 A   108 B   109 B   109 A   110 B                  
  3.271   3.404   3.424   3.721   3.742   3.972   3.976   4.268
110 A   111 A   111 B   112 A   112 B   113 A   113 B   114 A                  
  4.304   4.316   4.328   4.425   4.536   4.657   4.711
115 A   114 B   115 B   116 A   116 B   117 A   117 B                          
 --------------------------------------------------------------
 
          Ground-State Mulliken Net Atomic Charges

     Atom                 Charge (a.u.)
  ----------------------------------------
      1 S                     0.043063
      2 C                    -0.041686
      3 C                    -0.388202
      4 C                     0.233589
      5 C                    -0.288104
      6 H                     0.136954
      7 C                    -0.288104
      8 S                     0.043063
      9 C                     0.233589
     10 C                    -0.041686
     11 C                    -0.388202
     12 H                     0.116615
     13 H                     0.187771
     14 H                     0.116615
     15 H                     0.187771
     16 H                     0.136954
  ----------------------------------------
  Sum of atomic charges =     0.000000

 -----------------------------------------------------------------
                    Cartesian Multipole Moments
 -----------------------------------------------------------------
    Charge (ESU x 10^10)
                 0.0000
    Dipole Moment (Debye)
         X      -0.0000      Y       0.0000      Z       0.5977
       Tot       0.5977
    Quadrupole Moments (Debye-Ang)
        XX     -61.1716     XY       1.2808     YY     -70.4554
        XZ       0.0000     YZ       0.0000     ZZ     -76.2472
    Octopole Moments (Debye-Ang^2)
       XXX      -0.0000    XXY       0.0000    XYY      -0.0000
       YYY       0.0000    XXZ      -2.9351    XYZ      11.3033
       YYZ       6.7435    XZZ      -0.0000    YZZ       0.0000
       ZZZ      -1.5246
    Hexadecapole Moments (Debye-Ang^3)
      XXXX   -1892.2053   XXXY     -14.4709   XXYY    -420.5934
      XYYY      13.1256   YYYY    -480.5877   XXXZ       0.0000
      XXYZ      -0.0000   XYYZ       0.0000   YYYZ       0.0000
      XXZZ    -424.4607   XYZZ       2.0545   YYZZ    -110.2920
      XZZZ      -0.0000   YZZZ       0.0000   ZZZZ    -220.4143
 -----------------------------------------------------------------
Archival summary:
1\1\nid01044\OPT\ProcedureUnspecified\BasisUnspecified\286\FriSep218:36:282016FriSep218:36:282016\0\\#,OPT,ProcedureUnspecified,BasisUnspecified,\\0,1\S\C,1,1.73299\H,2,1.08157,1,120.119\C,2,1.37068,1,111.623,3,-179.924,0\H,4,1.08414,2,123.362,1,-179.93,0\C,4,1.42624,2,112.787,1,-0.579243,0\H,6,1.08423,4,124.1,2,-178.403,0\C,6,1.3775,4,113.438,2,0.548094,0\C,8,1.46104,6,128.878,4,-177.249,0\C,9,1.3775,8,128.878,6,120,0\H,10,1.08423,9,122.454,8,1.72251,0\C,10,1.42624,9,113.438,8,-177.249,0\H,12,1.08414,10,123.848,9,179.895,0\C,12,1.37068,10,112.787,9,0.548094,0\H,14,1.08157,12,128.258,10,179.505,0\S,14,1.73299,12,111.623,10,-0.579243,0\\\@

 Total job time:  76.19s(wall), 86.52s(cpu) 
 Fri Sep  2 18:36:28 2016

        *************************************************************
        *                                                           *
        *  Thank you very much for using Q-Chem.  Have a nice day.  *
        *                                                           *
        *************************************************************


0 sent ACK to 0 
now end server 0 ... 
