srun -N 1 --ntasks-per-node 16 --nodelist nid01044 /global/project/projectdirs/jcesr/qchem/qc44/cnl_qc441/dist/exe/qcprog.cori.exe .pt_dft_150.0.in.46813.qcin.1 /dev/shm/eg_qchem/qchem46813/
Process 1 of 16 is on nid01044 - thread support 0
Process 2 of 16 is on nid01044 - thread support 0
Process 3 of 16 is on nid01044 - thread support 0
Process 4 of 16 is on nid01044 - thread support 0
Process 5 of 16 is on nid01044 - thread support 0
Process 6 of 16 is on nid01044 - thread support 0
Process 0 of 16 is on nid01044 - thread support 0
Process 15 of 16 is on nid01044 - thread support 0
initial socket setup ...start
initial socket setup ...done 
now start server 0 ... 
nid01044 10.128.4
Q-Chem Developer Version! Running on 10.128.4.*
                  Welcome to Q-Chem
     A Quantum Leap Into The Future Of Chemistry


 Q-Chem 4.4, Q-Chem, Inc., Pleasanton, CA (2016)

 Y. Shao,  Z. Gan,  E. Epifanovsky,  A. T. B. Gilbert,  M. Wormit,  
 J. Kussmann,  A. W. Lange,  A. Behn,  J. Deng,  X. Feng,  D. Ghosh,  
 M. Goldey,  P. R. Horn,  L. D. Jacobson,  I. Kaliman,  F.Rob,  
 R. Z. Khaliullin,  T. Kus,  A. Landau,  J. Liu,  E. I. Proynov,  Y. M. Rhee,  
 R. M. Richard,  M. A. Rohrdanz,  R. P. Steele,  E. J. Sundstrom,  
 H. L. Woodcock III,  P. M. Zimmerman,  D. Zuev,  B. Albrecht,  E. Alguire,  
 B. Austin,  S. A. Baeppler,  G. J. O. Beran,  Y. A. Bernard,  E. Berquist,  
 K. Brandhorst,  K. B. Bravaya,  S. T. Brown,  D. Casanova,  C.-M. Chang,  
 Y. Chen,  S. H. Chien,  K. D. Closser,  M. P. Coons,  D. L. Crittenden,  
 S. Dasgupta,  M. Diedenhofen,  R. A. DiStasio Jr.,  H. Do,  A. D. Dutoi,  
 R. G. Edgar,  P.-T. Fang,  S. Fatehi,  Q. Feng,  L. Fusti-Molnar,  
 A. Ghysels,  A. Golubeva-Zadorozhnaya,  J. Gomes,  A. Gunina,  
 M. W. D. Hanson-Heine,  P. H. P. Harbach,  A. W. Hauser,  E. G. Hohenstein,  
 Z. C. Holden,  K. Hui,  T.-C. Jagau,  H. Ji,  B. Kaduk,  K. Khistyaev,  
 Jaehoon Kim,  Jihan Kim,  R. A. King,  P. Klunzinger,  D. Kosenkov,  
 T. Kowalczyk,  C. M. Krauter,  A. Kunitsa,  K. U. Lao,  A. Laurent,  
 K. V. Lawler,  D. Lefrancois,  S. Lehtola,  S. V. Levchenko,  C. Y. Lin,  
 Y.-S. Lin,  F. Liu,  E. Livshits,  R. C. Lochan,  A. Luenser,  P. Manohar,  
 S. F. Manzer,  S.-P. Mao,  Y. Mao,  N. Mardirossian,  A. V. Marenich,  
 L. A. Martinez-Martinez,  S. A. Maurer,  N. J. Mayhall,  J.-M. Mewes,  
 A. F. Morrison,  K. Nanda,  C. M. Oana,  R. Olivares-Amaya,  D. P. O'Neill,  
 J. A. Parkhill,  T. M. Perrine,  R. Peverati,  P. A. Pieniazek,  F. Plasser,  
 A. Prociuk,  D. R. Rehn,  E. Rosta,  N. J. Russ,  N. Sergueev,  
 S. M. Sharada,  S. Sharma,  D. W. Small,  A. Sodt,  T. Stauch,  T. Stein,  
 D. Stuck,  Y.-C. Su,  A. J. W. Thom,  T. Tsuchimochi,  L. Vogt,  O. Vydrov,  
 T. Wang,  M. A. Watson,  J. Wenzel,  A. White,  C. F. Williams,  
 V. Vanovschi,  S. Yeganeh,  S. R. Yost,  Z.-Q. You,  I. Y. Zhang,  X. Zhang,  
 Y. Zhao,  B. R. Brooks,  G. K. L. Chan,  D. M. Chipman,  C. J. Cramer,  
 W. A. Goddard III,  M. S. Gordon,  W. J. Hehre,  A. Klamt,  
 H. F. Schaefer III,  M. W. Schmidt,  C. D. Sherrill,  D. G. Truhlar,  
 A. Warshel,  X. Xu,  A. Aspuru-Guzik,  R. Baer,  A. T. Bell,  N. A. Besley,  
 J.-D. Chai,  A. Dreuw,  B. D. Dunietz,  T. R. Furlani,  S. R. Gwaltney,  
 C.-P. Hsu,  Y. Jung,  J. Kong,  D. S. Lambrecht,  W. Liang,  C. Ochsenfeld,  
 V. A. Rassolov,  L. V. Slipchenko,  J. E. Subotnik,  T. Van Voorhis,  
 J. M. Herbert,  A. I. Krylov,  P. M. W. Gill,  M. Head-Gordon

 Contributors to earlier versions of Q-Chem not listed above: 
 R. D. Adamson,  J. Baker,  E. F. C. Byrd,  A. K. Chakraborty,  C.-L. Cheng,  
 H. Dachsel,  R. J. Doerksen,  G. Hawkins,  A. Heyden,  S. Hirata,  
 G. Kedziora,  F. J. Keil,  C. Kelley,  P. P. Korambath,  W. Kurlancheek,  
 A. M. Lee,  M. S. Lee,  D. Liotard,  I. Lotan,  P. E. Maslen,  N. Nair,  
 D. Neuhauser,  R. Olson,  B. Peters,  J. Ritchie,  N. E. Schultz,  
 N. Shenvi,  A. C. Simmonett,  K. S. Thanthiriwatte,  Q. Wu,  W. Zhang

 Please cite Q-Chem as follows:
 Y. Shao et al., Mol. Phys. 113, 184-215 (2015)
 DOI: 10.1080/00268976.2014.952696

 Q-Chem 4.4.1 for Intel X86 EM64T Linux

 Parts of Q-Chem use Armadillo 5.200.1 (Boston Tea Smuggler).
 http://arma.sourceforge.net/

 Q-Chem begins on Fri Sep  2 18:11:38 2016  

Host: nid01043
0

     Scratch files written to /dev/shm/eg_qchem/qchem46813.0//
 Parallel job on  16  processors

Checking the input file for inconsistencies... 	...done.

--------------------------------------------------------------
User input:
--------------------------------------------------------------
$comment
<SCF Fix Strategy>{
    "current_method_id": 0, 
    "methods": [
        "increase_iter", 
        "diis_gdm", 
        "gwh", 
        "rca", 
        "gdm", 
        "core+gdm", 
        "fon"
    ], 
    "version": 2.0
}</SCF Fix Strategy>
$end


$molecule
 0  1
 S           1.82267924       -1.19997629        0.28714109
 C           3.20006180       -0.17260711        0.06528466
 C           2.82980603        1.10216298       -0.25610036
 C           1.41909100        1.26345446       -0.34254814
 C           0.71738150        0.10901545       -0.08456145
 H           0.93627498        2.19419272       -0.61095402
 C          -0.71741859       -0.10899254       -0.08455524
 S          -1.82059540        1.18606467        0.33868559
 C          -1.42060219       -1.25374626       -0.37909628
 C          -3.19923792        0.16697352        0.08830893
 C          -2.83082098       -1.09571524       -0.27952611
 H          -3.54064687       -1.88642511       -0.48358232
 H           4.19429620       -0.57452886        0.18632814
 H           3.53860725        1.89960515       -0.43610218
 H          -4.19277489        0.56431340        0.22866552
 H          -0.93931178       -2.17446090       -0.68252805
$end


$rem
         jobtype = opt
        exchange = b3lyp
           basis = 6-31++g**
  max_scf_cycles = 200
      mem_static = 100
       mem_total = 1500
   scf_algorithm = diis
       scf_guess = sad
$end


$opt
CONSTRAINT
tors 4 5 7 9 150.0
ENDCONSTRAINT
$end

--------------------------------------------------------------
 Atom   8: ( -1.8351242956,  1.1724517310,  0.3062372246)
         ->( -1.8351244563,  1.1724517852,  0.3062371049)
 Atom  10: ( -3.2013904165,  0.1334913154,  0.0700834961)
         ->( -3.2013904167,  0.1334911360,  0.0700835133)
 Atom  11: ( -2.8176157945, -1.1311588843, -0.2745807969)
         ->( -2.8176156353, -1.1311590233, -0.2745805848)
 Atom   9: ( -1.4054149037, -1.2748264449, -0.3676040948)
         ->( -1.4054147578, -1.2748263273, -0.3676044707)
 Atom   7: ( -0.7161140059, -0.1171557917, -0.0912970012)
         ->( -0.7161139515, -0.1171556679, -0.0912969877)
 Atom  16: ( -0.9128397493, -2.1951640335, -0.6535677050)
         ->( -0.9128395177, -2.1951637677, -0.6535683895)
 Atom  14: (  3.5178352009,  1.9333558148, -0.4666397077)
         ->(  3.5178354589,  1.9333555470, -0.4666400727)
 Atom  15: ( -4.1997705297,  0.5218776604,  0.2008040382)
         ->( -4.1997706059,  0.5218772568,  0.2008041244)
 ----------------------------------------------------------------
             Standard Nuclear Orientation (Angstroms)
    I     Atom           X                Y                Z
 ----------------------------------------------------------------
    1      S       1.8351244563    -1.1724517852     0.3062371049
    2      C       3.2013904167    -0.1334911360     0.0700835133
    3      C       2.8176156353     1.1311590233    -0.2745805848
    4      C       1.4054147578     1.2748263273    -0.3676044707
    5      C       0.7161139515     0.1171556679    -0.0912969877
    6      H       0.9128395177     2.1951637677    -0.6535683895
    7      C      -0.7161139515    -0.1171556679    -0.0912969877
    8      S      -1.8351244563     1.1724517852     0.3062371049
    9      C      -1.4054147578    -1.2748263273    -0.3676044707
   10      C      -3.2013904167     0.1334911360     0.0700835133
   11      C      -2.8176156353    -1.1311590233    -0.2745805848
   12      H      -3.5178354589    -1.9333555470    -0.4666400727
   13      H       4.1997706059    -0.5218772568     0.2008041244
   14      H       3.5178354589     1.9333555470    -0.4666400727
   15      H      -4.1997706059     0.5218772568     0.2008041244
   16      H      -0.9128395177    -2.1951637677    -0.6535683895
 ----------------------------------------------------------------
 Molecular Point Group                 C2    NOp =  2
 Largest Abelian Subgroup              C2    NOp =  2
 Nuclear Repulsion Energy =   630.0246772662 hartrees
 There are       43 alpha and       43 beta electrons
 Requested basis set is 6-31++G(d,p)
 There are 76 shells and 234 basis functions

 Total QAlloc Memory Limit   1500 MB
 Mega-Array Size        98 MB
 MEM_STATIC part       100 MB
 A cutoff of  1.0D-11 yielded   2493 shell pairs
 There are     24631 function pairs
 
 -------------------------------------------------------
 OpenMP Integral Computing Module                       
 Release: version 1.0, May 2013, Q-Chem Inc. Pittsburgh 
 -------------------------------------------------------
 Integral Job Info:
 Integral job number is                      11
 Integral operator is                         1
 short-range coefficients                     0
 long-range coefficients              100000000
 Omega coefficients                           0
 if combine SR and LR in K                    0
 Integral screening is                        0
 Integral computing path is                   2
 max size of driver memory is            800000
 size of driver memory is                593474
 size of scratch memory is             15166112
 max col of scratch BK array               1296
 max len of scratch array in speh3          155
 max len of scratch index in speh4           18
 max int batch size is                      520
 min int batch size is                       52
 fixed nKL is                                52
 max L of basis functions is                  2
 order of int derivative is                   0
 number of shells is                         76
 number of basis is                         234
 number of cartesian basis is               234
 number of contracted shell pairs          2493
 number of primitive shell pairs           8074
 maxK2 (contraction) of shell pair           36
 max number of K2 of shell pair               1
 max number of CS2 of shell pair            262
 max number of PS2 of shell pair           1536
 mem total for path MDJ                   51606
 -------------------------------------------------------
 Smallest overlap matrix eigenvalue = 9.95E-07

 Q-Chem warning in module /project/projectdirs/jcesr/qchem/qc44/cnl_qc441/compile/cori/qc_src/stvman/mkSTV.C, line 257:

 Overlap eigenvalue is smaller than square root of threshold

 Linear dependence detected in AO basis
 Number of orthogonalized atomic orbitals = 233
 Maximum deviation from orthogonality = 5.335E-11

 Scale SEOQF with 1.000000e-01/1.000000e-01/1.000000e-01

 Standard Electronic Orientation quadrupole field applied
 Nucleus-field energy     =     0.0000000211 hartrees
 Guess from superposition of atomic densities
 Warning:  Energy on first SCF cycle will be non-variational
 A restricted hybrid HF-DFT SCF calculation will be
 performed using Pulay DIIS extrapolation
 Exchange:     0.2000 Hartree-Fock + 0.0800 Slater + 0.7200 B88
 Correlation:  0.1900 VWN1RPA + 0.8100 LYP
 Using SG-1 standard quadrature grid
 SCF converges when DIIS error is below 1.0E-08
 ---------------------------------------
  Cycle       Energy         DIIS Error
 ---------------------------------------
    1   -1107.2309677715      4.46E-02
    2    -986.8633339204      5.41E-01
    3    -994.2058667052      5.63E-01
    4   -1003.2730760494      7.31E-01
    5   -1013.5490137628      8.48E-01
    6   -1027.9994335732      7.20E-01
    7   -1029.9238859846      1.28E+00
    8   -1226.6526124950      9.02E-01
    9   -1210.2618885265      7.65E-01
   10   -1219.4812477899      9.39E-01
   11   -1192.2878559670      6.43E-01
   12   -1088.6828622120      5.96E-01
   13   -1093.2815023219      6.51E-01
   14   -1091.4659193599      2.60E-01
   15   -1101.8706576405      7.66E-02
   16   -1100.7809653661      1.02E-01
   17   -1101.3090233056      1.29E-02
   18   -1104.3003048175      8.16E-03
   19   -1104.6667714873      4.74E-03
   20   -1104.7694816955      2.94E-03
   21   -1104.8335156111      8.96E-04
   22   -1104.8383597577      5.31E-04
   23   -1104.8404114177      1.49E-04
   24   -1104.8405587404      5.40E-05
   25   -1104.8405761897      7.63E-06
   26   -1104.8405780373      1.31E-06
   27   -1104.8405766644      6.13E-07
   28   -1104.8405776207      1.79E-07
   29   -1104.8405783096      8.36E-08
   30   -1104.8405781785      9.12E-08
   31   -1104.8405781951      5.62E-08
   32   -1104.8405776100      5.11E-08
   33   -1104.8405777014      3.99E-08
   34   -1104.8405782662      5.41E-08
   35   -1104.8405782595      3.34E-08
   36   -1104.8405782282      2.46E-08
   37   -1104.8405784415      1.53E-08
   38   -1104.8405784818      1.33E-08
   39   -1104.8405784169      7.86E-09 Convergence criterion met
 ---------------------------------------
 SCF time:  CPU 16.58 s  wall 14.06 s
 SCF   energy in the final basis set = -1104.8405784169
 Total energy in the final basis set = -1104.8405784169
 
 --------------------------------------------------------------
             Orbital Energies (a.u.) and Symmetries
 --------------------------------------------------------------
 
 Alpha MOs, Restricted
 -- Occupied --                  
-88.919 -88.919 -10.238 -10.237 -10.224 -10.224 -10.203 -10.203
  1 B     1 A     2 A     2 B     3 B     3 A     4 A     4 B                  
-10.202 -10.202  -7.979  -7.979  -5.943  -5.943  -5.939  -5.939
  5 B     5 A     6 A     6 B     7 A     7 B     8 B     8 A                  
 -5.936  -5.936  -0.901  -0.879  -0.772  -0.749  -0.738  -0.706
  9 B     9 A    10 A    10 B    11 A    11 B    12 A    12 B                  
 -0.604  -0.580  -0.553  -0.535  -0.527  -0.479  -0.420  -0.419
 13 A    13 B    14 A    14 B    15 A    15 B    16 B    16 A                  
 -0.409  -0.405  -0.400  -0.378  -0.375  -0.356  -0.345  -0.278
 17 A    17 B    18 A    19 A    18 B    19 B    20 A    21 A                  
 -0.263  -0.260  -0.216
 20 B    22 A    21 B                                                          
 -- Virtual --                   
 -0.055  -0.006  -0.006  -0.002   0.007   0.009   0.017   0.022
 23 A    24 A    22 B    23 B    25 A    24 B    25 B    26 A                  
  0.031   0.035   0.038   0.047   0.049   0.052   0.060   0.064
 27 A    28 A    26 B    29 A    27 B    30 A    28 B    29 B                  
  0.073   0.082   0.089   0.096   0.102   0.102   0.107   0.109
 30 B    31 A    31 B    32 A    33 A    32 B    34 A    35 A                  
  0.122   0.125   0.130   0.132   0.134   0.137   0.138   0.139
 33 B    34 B    36 A    37 A    35 B    36 B    38 A    37 B                  
  0.149   0.156   0.163   0.165   0.165   0.176   0.179   0.182
 39 A    38 B    39 B    40 A    41 A    40 B    42 A    41 B                  
  0.186   0.202   0.206   0.210   0.213   0.221   0.226   0.227
 43 A    42 B    43 B    44 A    44 B    45 A    46 A    45 B                  
  0.247   0.252   0.260   0.264   0.266   0.277   0.284   0.293
 46 B    47 A    47 B    48 B    48 A    49 A    49 B    50 A                  
  0.317   0.321   0.343   0.351   0.355   0.375   0.390   0.409
 51 A    50 B    52 A    51 B    53 A    52 B    54 A    53 B                  
  0.456   0.465   0.518   0.519   0.541   0.544   0.567   0.583
 54 B    55 A    56 A    55 B    57 A    56 B    57 B    58 A                  
  0.610   0.611   0.619   0.650   0.657   0.664   0.680   0.680
 58 B    59 A    60 A    59 B    60 B    61 A    62 A    61 B                  
  0.700   0.720   0.727   0.730   0.741   0.753   0.774   0.785
 63 A    62 B    64 A    63 B    64 B    65 A    66 A    65 B                  
  0.816   0.817   0.828   0.843   0.869   0.920   0.942   0.948
 66 B    67 A    67 B    68 A    69 A    68 B    70 A    69 B                  
  0.953   0.957   0.963   0.966   0.980   0.990   0.998   1.019
 70 B    71 A    72 A    71 B    72 B    73 A    73 B    74 B                  
  1.032   1.048   1.067   1.091   1.101   1.116   1.139   1.145
 74 A    75 A    76 A    77 A    75 B    76 B    78 A    77 B                  
  1.167   1.178   1.196   1.246   1.265   1.316   1.343   1.349
 78 B    79 A    80 A    81 A    79 B    80 B    82 A    81 B                  
  1.352   1.360   1.377   1.463   1.467   1.516   1.530   1.570
 83 A    82 B    84 A    83 B    85 A    84 B    85 B    86 A                  
  1.686   1.694   1.740   1.804   1.867   1.868   1.884   1.922
 87 A    86 B    88 A    89 A    90 A    87 B    88 B    89 B                  
  1.923   1.948   1.975   2.008   2.048   2.077   2.096   2.113
 91 A    92 A    90 B    93 A    91 B    94 A    92 B    93 B                  
  2.161   2.180   2.183   2.238   2.242   2.260   2.338   2.366
 95 A    96 A    94 B    97 A    95 B    96 B    98 A    97 B                  
  2.369   2.419   2.457   2.460   2.468   2.496   2.509   2.530
 99 A    98 B   100 A    99 B   101 A   100 B   102 A   101 B                  
  2.532   2.576   2.590   2.607   2.666   2.697   2.724   2.747
103 A   102 B   104 A   103 B   105 A   106 A   104 B   105 B                  
  2.861   2.870   2.924   2.937   3.153   3.209   3.273   3.278
107 A   106 B   108 A   107 B   108 B   109 A   109 B   110 A                  
  3.407   3.432   3.729   3.750   3.974   3.979   4.247   4.294
111 A   110 B   112 A   111 B   112 B   113 A   114 A   113 B                  
  4.308   4.323   4.414   4.534   4.660   4.718
115 A   114 B   116 A   115 B   117 A   116 B                                  
 
 Beta MOs, Restricted
 -- Occupied --                  
-88.919 -88.919 -10.238 -10.237 -10.224 -10.224 -10.203 -10.203
  1 B     1 A     2 A     2 B     3 B     3 A     4 A     4 B                  
-10.202 -10.202  -7.979  -7.979  -5.943  -5.943  -5.939  -5.939
  5 B     5 A     6 A     6 B     7 A     7 B     8 B     8 A                  
 -5.936  -5.936  -0.901  -0.879  -0.772  -0.749  -0.738  -0.706
  9 B     9 A    10 A    10 B    11 A    11 B    12 A    12 B                  
 -0.604  -0.580  -0.553  -0.535  -0.527  -0.479  -0.420  -0.419
 13 A    13 B    14 A    14 B    15 A    15 B    16 B    16 A                  
 -0.409  -0.405  -0.400  -0.378  -0.375  -0.356  -0.345  -0.278
 17 A    17 B    18 A    19 A    18 B    19 B    20 A    21 A                  
 -0.263  -0.260  -0.216
 20 B    22 A    21 B                                                          
 -- Virtual --                   
 -0.055  -0.006  -0.006  -0.002   0.007   0.009   0.017   0.022
 23 A    24 A    22 B    23 B    25 A    24 B    25 B    26 A                  
  0.031   0.035   0.038   0.047   0.049   0.052   0.060   0.064
 27 A    28 A    26 B    29 A    27 B    30 A    28 B    29 B                  
  0.073   0.082   0.089   0.096   0.102   0.102   0.107   0.109
 30 B    31 A    31 B    32 A    33 A    32 B    34 A    35 A                  
  0.122   0.125   0.130   0.132   0.134   0.137   0.138   0.139
 33 B    34 B    36 A    37 A    35 B    36 B    38 A    37 B                  
  0.149   0.156   0.163   0.165   0.165   0.176   0.179   0.182
 39 A    38 B    39 B    40 A    41 A    40 B    42 A    41 B                  
  0.186   0.202   0.206   0.210   0.213   0.221   0.226   0.227
 43 A    42 B    43 B    44 A    44 B    45 A    46 A    45 B                  
  0.247   0.252   0.260   0.264   0.266   0.277   0.284   0.293
 46 B    47 A    47 B    48 B    48 A    49 A    49 B    50 A                  
  0.317   0.321   0.343   0.351   0.355   0.375   0.390   0.409
 51 A    50 B    52 A    51 B    53 A    52 B    54 A    53 B                  
  0.456   0.465   0.518   0.519   0.541   0.544   0.567   0.583
 54 B    55 A    56 A    55 B    57 A    56 B    57 B    58 A                  
  0.610   0.611   0.619   0.650   0.657   0.664   0.680   0.680
 58 B    59 A    60 A    59 B    60 B    61 A    62 A    61 B                  
  0.700   0.720   0.727   0.730   0.741   0.753   0.774   0.785
 63 A    62 B    64 A    63 B    64 B    65 A    66 A    65 B                  
  0.816   0.817   0.828   0.843   0.869   0.920   0.942   0.948
 66 B    67 A    67 B    68 A    69 A    68 B    70 A    69 B                  
  0.953   0.957   0.963   0.966   0.980   0.990   0.998   1.019
 70 B    71 A    72 A    71 B    72 B    73 A    73 B    74 B                  
  1.032   1.048   1.067   1.091   1.101   1.116   1.139   1.145
 74 A    75 A    76 A    77 A    75 B    76 B    78 A    77 B                  
  1.167   1.178   1.196   1.246   1.265   1.316   1.343   1.349
 78 B    79 A    80 A    81 A    79 B    80 B    82 A    81 B                  
  1.352   1.360   1.377   1.463   1.467   1.516   1.530   1.570
 83 A    82 B    84 A    83 B    85 A    84 B    85 B    86 A                  
  1.686   1.694   1.740   1.804   1.867   1.868   1.884   1.922
 87 A    86 B    88 A    89 A    90 A    87 B    88 B    89 B                  
  1.923   1.948   1.975   2.008   2.048   2.077   2.096   2.113
 91 A    92 A    90 B    93 A    91 B    94 A    92 B    93 B                  
  2.161   2.180   2.183   2.238   2.242   2.260   2.338   2.366
 95 A    96 A    94 B    97 A    95 B    96 B    98 A    97 B                  
  2.369   2.419   2.457   2.460   2.468   2.496   2.509   2.530
 99 A    98 B   100 A    99 B   101 A   100 B   102 A   101 B                  
  2.532   2.576   2.590   2.607   2.666   2.697   2.724   2.747
103 A   102 B   104 A   103 B   105 A   106 A   104 B   105 B                  
  2.861   2.870   2.924   2.937   3.153   3.209   3.273   3.278
107 A   106 B   108 A   107 B   108 B   109 A   109 B   110 A                  
  3.407   3.432   3.729   3.750   3.974   3.979   4.247   4.294
111 A   110 B   112 A   111 B   112 B   113 A   114 A   113 B                  
  4.308   4.323   4.414   4.534   4.660   4.718
115 A   114 B   116 A   115 B   117 A   116 B                                  
 --------------------------------------------------------------
 
          Ground-State Mulliken Net Atomic Charges

     Atom                 Charge (a.u.)
  ----------------------------------------
      1 S                    -0.066986
      2 C                     0.022817
      3 C                    -0.379536
      4 C                     0.346050
      5 C                    -0.363491
      6 H                     0.128433
      7 C                    -0.363491
      8 S                    -0.066986
      9 C                     0.346050
     10 C                     0.022817
     11 C                    -0.379536
     12 H                     0.118144
     13 H                     0.194569
     14 H                     0.118144
     15 H                     0.194569
     16 H                     0.128433
  ----------------------------------------
  Sum of atomic charges =     0.000000

 -----------------------------------------------------------------
                    Cartesian Multipole Moments
 -----------------------------------------------------------------
    Charge (ESU x 10^10)
                -0.0000
    Dipole Moment (Debye)
         X      -0.0000      Y      -0.0000      Z      -0.3204
       Tot       0.3204
    Quadrupole Moments (Debye-Ang)
        XX     -61.1639     XY       1.5442     YY     -68.7495
        XZ       0.0000     YZ       0.0000     ZZ     -78.0186
    Octopole Moments (Debye-Ang^2)
       XXX      -0.0000    XXY      -0.0000    XYY      -0.0000
       YYY      -0.0000    XXZ       2.9430    XYZ      -6.6522
       YYZ      -4.4556    XZZ      -0.0000    YZZ      -0.0000
       ZZZ       2.5930
    Hexadecapole Moments (Debye-Ang^3)
      XXXX   -1882.4023   XXXY     -21.8105   XXYY    -419.3725
      XYYY      15.6202   YYYY    -539.6398   XXXZ       0.0000
      XXYZ       0.0000   XYYZ       0.0000   YYYZ       0.0000
      XXZZ    -423.8660   XYZZ      -5.7254   YYZZ    -120.2365
      XZZZ       0.0000   YZZZ       0.0000   ZZZZ    -140.0297
 -----------------------------------------------------------------
 Calculating analytic gradient of the SCF energy
 Gradient of SCF Energy
            1           2           3           4           5           6
    1   0.0003963  -0.0005875  -0.0006634   0.0000274   0.0004289   0.0007180
    2   0.0016179   0.0031023  -0.0028141  -0.0025575   0.0024186  -0.0012283
    3  -0.0002627  -0.0007619   0.0005981   0.0004984  -0.0006034   0.0003756
            7           8           9          10          11          12
    1  -0.0004289  -0.0003963  -0.0000274   0.0005875   0.0006634   0.0009144
    2  -0.0024186  -0.0016179   0.0025575  -0.0031023   0.0028141   0.0011384
    3  -0.0006034  -0.0002627   0.0004984  -0.0007619   0.0005981   0.0002992
           13          14          15          16
    1  -0.0015738  -0.0009144   0.0015738  -0.0007180
    2   0.0003439  -0.0011384  -0.0003439   0.0012283
    3  -0.0001433   0.0002992  -0.0001433   0.0003756
 Max gradient component =       3.102E-03
 RMS gradient           =       1.328E-03
 Gradient time:  CPU 1.96 s  wall 1.91 s
 Geometry Optimization Parameters
   NAtoms,    NIC,     NZ,  NCons,   NDum,   NFix, NCnnct, MaxDiis
       16     111       0       1       0       0       0       0


** CONSTRAINED OPTIMIZATION IN DELOCALIZED INTERNAL COORDINATES **
   Searching for a Minimum

   Optimization Cycle:   1

                       Coordinates (Angstroms)
     ATOM                X               Y               Z
      1  S         1.8351244563   -1.1724517852    0.3062371049
      2  C         3.2013904167   -0.1334911360    0.0700835133
      3  C         2.8176156353    1.1311590233   -0.2745805848
      4  C         1.4054147578    1.2748263273   -0.3676044707
      5  C         0.7161139515    0.1171556679   -0.0912969877
      6  H         0.9128395177    2.1951637677   -0.6535683895
      7  C        -0.7161139515   -0.1171556679   -0.0912969877
      8  S        -1.8351244563    1.1724517852    0.3062371049
      9  C        -1.4054147578   -1.2748263273   -0.3676044707
     10  C        -3.2013904167    0.1334911360    0.0700835133
     11  C        -2.8176156353   -1.1311590233   -0.2745805848
     12  H        -3.5178354589   -1.9333555470   -0.4666400727
     13  H         4.1997706059   -0.5218772568    0.2008041244
     14  H         3.5178354589    1.9333555470   -0.4666400727
     15  H        -4.1997706059    0.5218772568    0.2008041244
     16  H        -0.9128395177   -2.1951637677   -0.6535683895
   Point Group: c2    Number of degrees of freedom:    22


   Energy is  -1104.840578417

              Constraints and their Current Values
                                        Value     Constraint
   Dihedral:        4   5   7   9      150.000      150.000

 Attempting to Generate Delocalized Internal Coordinates

 21 Hessian modes will be used to form the next step
  Hessian Eigenvalues:
     0.045000    0.045000    0.045000    0.045002    0.045004    0.045013
     0.159937    0.159990    0.160000    0.221280    0.237833    0.249997
     0.296078    0.314672    0.357149    0.357543    0.360899    0.380793
     0.408411    0.470750    0.505998

 Minimum Search - Taking Simple RFO Step
 Searching for Lamda that Minimizes Along All modes
 Value Taken    Lamda =  -0.00025181
 Step Taken.  Stepsize is  0.025579

                             Maximum     Tolerance    Cnvgd?
         Gradient           0.005938      0.000300      NO
         Displacement       0.015071      0.001200      NO
         Energy change     *********      0.000001      NO


 New Cartesian Coordinates Obtained by Inverse Iteration

 Displacement from previous Coordinates is:  0.051175
 ----------------------------------------------------------------
             Standard Nuclear Orientation (Angstroms)
    I     Atom           X                Y                Z
 ----------------------------------------------------------------
    1      S       1.8384060113    -1.1745404895     0.3052513812
    2      C       3.2073248125    -0.1353644451     0.0684517291
    3      C       2.8235874573     1.1346081480    -0.2746938912
    4      C       1.4080963417     1.2791905925    -0.3658772572
    5      C       0.7176058449     0.1174343407    -0.0885518068
    6      H       0.9137652793     2.2014695020    -0.6507813057
    7      C      -0.7176058449    -0.1174343407    -0.0885518068
    8      S      -1.8384060113     1.1745404895     0.3052513812
    9      C      -1.4080963417    -1.2791905925    -0.3658772572
   10      C      -3.2073248125     0.1353644451     0.0684517291
   11      C      -2.8235874573    -1.1346081480    -0.2746938912
   12      H      -3.5253800025    -1.9382490212    -0.4673669052
   13      H       4.2082043332    -0.5245597650     0.1970022932
   14      H       3.5253800025     1.9382490212    -0.4673669052
   15      H      -4.2082043332     0.5245597650     0.1970022932
   16      H      -0.9137652793    -2.2014695020    -0.6507813057
 ----------------------------------------------------------------
 Molecular Point Group                 C2    NOp =  2
 Largest Abelian Subgroup              C2    NOp =  2
 Nuclear Repulsion Energy =   628.7674966612 hartrees
 There are       43 alpha and       43 beta electrons
 Applying Cartesian multipole field
    Component          Value
    ---------          -----
     (2,0,0)        1.00000E-11
     (0,2,0)        2.00000E-11
     (0,0,2)       -3.00000E-11
 Nucleus-field energy     =     0.0000000212 hartrees
 Requested basis set is 6-31++G(d,p)
 There are 76 shells and 234 basis functions
 A cutoff of  1.0D-11 yielded   2493 shell pairs
 There are     24631 function pairs
 Smallest overlap matrix eigenvalue = 1.02E-06

 Q-Chem warning in module /project/projectdirs/jcesr/qchem/qc44/cnl_qc441/compile/cori/qc_src/stvman/mkSTV.C, line 257:

 Overlap eigenvalue is smaller than square root of threshold

 No. of orbitals has changed due to linear dependencies.  Generating new SCF guess.
 Guess from superposition of atomic densities
 Warning:  Energy on first SCF cycle will be non-variational
 A restricted hybrid HF-DFT SCF calculation will be
 performed using Pulay DIIS extrapolation
 Exchange:     0.2000 Hartree-Fock + 0.0800 Slater + 0.7200 B88
 Correlation:  0.1900 VWN1RPA + 0.8100 LYP
 Using SG-1 standard quadrature grid
 SCF converges when DIIS error is below 1.0E-08
 Geometry optimization detected.  Setting ReadMinima to 0
 Setting SaveMinima to 0
 ---------------------------------------
  Cycle       Energy         DIIS Error
 ---------------------------------------
    1   -1107.1797399874      4.40E-02
    2   -1104.6775972252      4.56E-03
    3   -1104.4680658130      6.75E-03
    4   -1104.8327275446      9.96E-04
    5   -1104.8379945060      6.06E-04
    6   -1104.8404405895      1.90E-04
    7   -1104.8406921081      7.73E-05
    8   -1104.8407342842      1.15E-05
    9   -1104.8407352252      2.04E-06
   10   -1104.8407352563      7.90E-07
   11   -1104.8407352620      2.70E-07
   12   -1104.8407352601      5.28E-08
   13   -1104.8407352602      4.74E-08
   14   -1104.8407352600      3.86E-09 Convergence criterion met
 ---------------------------------------
 SCF time:  CPU 7.31 s  wall 6.39 s
 SCF   energy in the final basis set = -1104.8407352600
 Total energy in the final basis set = -1104.8407352600
 
 --------------------------------------------------------------
             Orbital Energies (a.u.) and Symmetries
 --------------------------------------------------------------
 
 Alpha MOs, Restricted
 -- Occupied --                  
-88.920 -88.920 -10.239 -10.239 -10.225 -10.225 -10.205 -10.205
  1 B     1 A     2 A     2 B     3 B     3 A     4 B     4 A                  
-10.203 -10.203  -7.979  -7.979  -5.943  -5.943  -5.940  -5.940
  5 B     5 A     6 A     6 B     7 A     7 B     8 B     8 A                  
 -5.936  -5.936  -0.900  -0.878  -0.771  -0.748  -0.737  -0.706
  9 B     9 A    10 A    10 B    11 A    11 B    12 A    12 B                  
 -0.604  -0.579  -0.553  -0.534  -0.526  -0.478  -0.420  -0.418
 13 A    13 B    14 A    14 B    15 A    15 B    16 B    16 A                  
 -0.408  -0.405  -0.400  -0.378  -0.374  -0.357  -0.345  -0.278
 17 A    17 B    18 A    19 A    18 B    19 B    20 A    21 A                  
 -0.263  -0.260  -0.215
 20 B    22 A    21 B                                                          
 -- Virtual --                   
 -0.055  -0.007  -0.006  -0.003   0.007   0.009   0.017   0.022
 23 A    22 B    24 A    23 B    25 A    24 B    25 B    26 A                  
  0.031   0.035   0.038   0.047   0.048   0.051   0.059   0.061
 27 A    28 A    26 B    29 A    27 B    30 A    28 B    29 B                  
  0.072   0.081   0.088   0.096   0.099   0.102   0.107   0.108
 30 B    31 A    31 B    32 A    32 B    33 A    34 A    35 A                  
  0.119   0.123   0.129   0.132   0.134   0.137   0.138   0.138
 33 B    34 B    36 A    37 A    35 B    36 B    38 A    37 B                  
  0.148   0.155   0.162   0.164   0.165   0.174   0.179   0.181
 39 A    38 B    39 B    40 A    41 A    40 B    42 A    41 B                  
  0.186   0.192   0.205   0.209   0.213   0.221   0.222   0.226
 43 A    42 B    43 B    44 A    44 B    45 A    45 B    46 A                  
  0.240   0.252   0.257   0.263   0.266   0.276   0.283   0.293
 46 B    47 A    47 B    48 B    48 A    49 A    49 B    50 A                  
  0.312   0.316   0.328   0.342   0.354   0.354   0.378   0.388
 50 B    51 A    51 B    52 A    53 A    52 B    53 B    54 A                  
  0.431   0.454   0.465   0.517   0.519   0.540   0.546   0.567
 54 B    55 B    55 A    56 A    56 B    57 A    57 B    58 B                  
  0.581   0.611   0.615   0.618   0.650   0.658   0.663   0.679
 58 A    59 A    59 B    60 A    60 B    61 B    61 A    62 A                  
  0.680   0.699   0.720   0.727   0.728   0.741   0.753   0.772
 62 B    63 A    63 B    64 A    64 B    65 B    65 A    66 A                  
  0.788   0.817   0.819   0.832   0.842   0.867   0.918   0.941
 66 B    67 A    67 B    68 B    68 A    69 A    69 B    70 A                  
  0.949   0.957   0.957   0.961   0.968   0.990   0.997   1.014
 70 B    71 B    71 A    72 A    72 B    73 A    73 B    74 B                  
  1.018   1.031   1.047   1.066   1.090   1.100   1.116   1.138
 75 B    74 A    75 A    76 A    77 A    76 B    77 B    78 A                  
  1.146   1.177   1.195   1.223   1.245   1.267   1.318   1.342
 78 B    79 A    80 A    79 B    81 A    80 B    81 B    82 A                  
  1.349   1.352   1.360   1.376   1.462   1.466   1.513   1.527
 82 B    83 A    83 B    84 A    84 B    85 A    85 B    86 B                  
  1.568   1.684   1.693   1.738   1.802   1.865   1.867   1.890
 86 A    87 A    87 B    88 A    89 A    90 A    88 B    89 B                  
  1.919   1.920   1.943   1.972   2.006   2.044   2.072   2.093
 91 A    90 B    92 A    91 B    93 A    92 B    94 A    93 B                  
  2.111   2.159   2.176   2.182   2.234   2.243   2.257   2.332
 94 B    95 A    96 A    95 B    97 A    96 B    97 B    98 A                  
  2.364   2.367   2.420   2.451   2.455   2.466   2.493   2.506
 98 B    99 A    99 B   100 A   100 B   101 A   101 B   102 A                  
  2.528   2.533   2.575   2.585   2.603   2.661   2.692   2.718
103 A   102 B   103 B   104 A   104 B   105 A   106 A   105 B                  
  2.746   2.854   2.864   2.917   2.932   3.145   3.200   3.269
106 B   107 A   107 B   108 A   108 B   109 B   109 A   110 B                  
  3.273   3.401   3.427   3.720   3.742   3.973   3.977   4.245
110 A   111 A   111 B   112 A   112 B   113 B   113 A   114 A                  
  4.305   4.317   4.331   4.413   4.538   4.657   4.713
115 A   114 B   115 B   116 A   116 B   117 A   117 B                          
 
 Beta MOs, Restricted
 -- Occupied --                  
-88.920 -88.920 -10.239 -10.239 -10.225 -10.225 -10.205 -10.205
  1 B     1 A     2 A     2 B     3 B     3 A     4 B     4 A                  
-10.203 -10.203  -7.979  -7.979  -5.943  -5.943  -5.940  -5.940
  5 B     5 A     6 A     6 B     7 A     7 B     8 B     8 A                  
 -5.936  -5.936  -0.900  -0.878  -0.771  -0.748  -0.737  -0.706
  9 B     9 A    10 A    10 B    11 A    11 B    12 A    12 B                  
 -0.604  -0.579  -0.553  -0.534  -0.526  -0.478  -0.420  -0.418
 13 A    13 B    14 A    14 B    15 A    15 B    16 B    16 A                  
 -0.408  -0.405  -0.400  -0.378  -0.374  -0.357  -0.345  -0.278
 17 A    17 B    18 A    19 A    18 B    19 B    20 A    21 A                  
 -0.263  -0.260  -0.215
 20 B    22 A    21 B                                                          
 -- Virtual --                   
 -0.055  -0.007  -0.006  -0.003   0.007   0.009   0.017   0.022
 23 A    22 B    24 A    23 B    25 A    24 B    25 B    26 A                  
  0.031   0.035   0.038   0.047   0.048   0.051   0.059   0.061
 27 A    28 A    26 B    29 A    27 B    30 A    28 B    29 B                  
  0.072   0.081   0.088   0.096   0.099   0.102   0.107   0.108
 30 B    31 A    31 B    32 A    32 B    33 A    34 A    35 A                  
  0.119   0.123   0.129   0.132   0.134   0.137   0.138   0.138
 33 B    34 B    36 A    37 A    35 B    36 B    38 A    37 B                  
  0.148   0.155   0.162   0.164   0.165   0.174   0.179   0.181
 39 A    38 B    39 B    40 A    41 A    40 B    42 A    41 B                  
  0.186   0.192   0.205   0.209   0.213   0.221   0.222   0.226
 43 A    42 B    43 B    44 A    44 B    45 A    45 B    46 A                  
  0.240   0.252   0.257   0.263   0.266   0.276   0.283   0.293
 46 B    47 A    47 B    48 B    48 A    49 A    49 B    50 A                  
  0.312   0.316   0.328   0.342   0.354   0.354   0.378   0.388
 50 B    51 A    51 B    52 A    53 A    52 B    53 B    54 A                  
  0.431   0.454   0.465   0.517   0.519   0.540   0.546   0.567
 54 B    55 B    55 A    56 A    56 B    57 A    57 B    58 B                  
  0.581   0.611   0.615   0.618   0.650   0.658   0.663   0.679
 58 A    59 A    59 B    60 A    60 B    61 B    61 A    62 A                  
  0.680   0.699   0.720   0.727   0.728   0.741   0.753   0.772
 62 B    63 A    63 B    64 A    64 B    65 B    65 A    66 A                  
  0.788   0.817   0.819   0.832   0.842   0.867   0.918   0.941
 66 B    67 A    67 B    68 B    68 A    69 A    69 B    70 A                  
  0.949   0.957   0.957   0.961   0.968   0.990   0.997   1.014
 70 B    71 B    71 A    72 A    72 B    73 A    73 B    74 B                  
  1.018   1.031   1.047   1.066   1.090   1.100   1.116   1.138
 75 B    74 A    75 A    76 A    77 A    76 B    77 B    78 A                  
  1.146   1.177   1.195   1.223   1.245   1.267   1.318   1.342
 78 B    79 A    80 A    79 B    81 A    80 B    81 B    82 A                  
  1.349   1.352   1.360   1.376   1.462   1.466   1.513   1.527
 82 B    83 A    83 B    84 A    84 B    85 A    85 B    86 B                  
  1.568   1.684   1.693   1.738   1.802   1.865   1.867   1.890
 86 A    87 A    87 B    88 A    89 A    90 A    88 B    89 B                  
  1.919   1.920   1.943   1.972   2.006   2.044   2.072   2.093
 91 A    90 B    92 A    91 B    93 A    92 B    94 A    93 B                  
  2.111   2.159   2.176   2.182   2.234   2.243   2.257   2.332
 94 B    95 A    96 A    95 B    97 A    96 B    97 B    98 A                  
  2.364   2.367   2.420   2.451   2.455   2.466   2.493   2.506
 98 B    99 A    99 B   100 A   100 B   101 A   101 B   102 A                  
  2.528   2.533   2.575   2.585   2.603   2.661   2.692   2.718
103 A   102 B   103 B   104 A   104 B   105 A   106 A   105 B                  
  2.746   2.854   2.864   2.917   2.932   3.145   3.200   3.269
106 B   107 A   107 B   108 A   108 B   109 B   109 A   110 B                  
  3.273   3.401   3.427   3.720   3.742   3.973   3.977   4.245
110 A   111 A   111 B   112 A   112 B   113 B   113 A   114 A                  
  4.305   4.317   4.331   4.413   4.538   4.657   4.713
115 A   114 B   115 B   116 A   116 B   117 A   117 B                          
 --------------------------------------------------------------
 
          Ground-State Mulliken Net Atomic Charges

     Atom                 Charge (a.u.)
  ----------------------------------------
      1 S                    -0.057310
      2 C                    -0.037679
      3 C                    -0.393481
      4 C                     0.306684
      5 C                    -0.250467
      6 H                     0.129080
      7 C                    -0.250467
      8 S                    -0.057310
      9 C                     0.306684
     10 C                    -0.037679
     11 C                    -0.393481
     12 H                     0.114995
     13 H                     0.188177
     14 H                     0.114995
     15 H                     0.188177
     16 H                     0.129080
  ----------------------------------------
  Sum of atomic charges =    -0.000000

 -----------------------------------------------------------------
                    Cartesian Multipole Moments
 -----------------------------------------------------------------
    Charge (ESU x 10^10)
                -0.0000
    Dipole Moment (Debye)
         X       0.0000      Y      -0.0000      Z      -0.3230
       Tot       0.3230
    Quadrupole Moments (Debye-Ang)
        XX     -61.1450     XY       1.5301     YY     -68.7211
        XZ       0.0000     YZ       0.0000     ZZ     -78.1222
    Octopole Moments (Debye-Ang^2)
       XXX       0.0000    XXY      -0.0000    XYY      -0.0000
       YYY      -0.0000    XXZ       2.8283    XYZ      -6.7131
       YYZ      -4.5020    XZZ      -0.0000    YZZ      -0.0000
       ZZZ       2.6368
    Hexadecapole Moments (Debye-Ang^3)
      XXXX   -1889.0017   XXXY     -22.1225   XXYY    -420.7870
      XYYY      15.5302   YYYY    -541.7492   XXXZ       0.0000
      XXYZ       0.0000   XYYZ       0.0000   YYYZ       0.0000
      XXZZ    -426.0514   XYZZ      -5.8928   YYZZ    -120.7509
      XZZZ       0.0000   YZZZ       0.0000   ZZZZ    -140.0366
 -----------------------------------------------------------------
 Calculating analytic gradient of the SCF energy
 Gradient of SCF Energy
            1           2           3           4           5           6
    1   0.0000867   0.0000874   0.0002155  -0.0001254  -0.0000364  -0.0000017
    2  -0.0001492   0.0000109   0.0000691  -0.0000557   0.0001802   0.0001072
    3   0.0001526   0.0000391  -0.0000388  -0.0002122   0.0001005  -0.0000527
            7           8           9          10          11          12
    1   0.0000364  -0.0000868   0.0001254  -0.0000873  -0.0002155  -0.0000710
    2  -0.0001801   0.0001491   0.0000557  -0.0000109  -0.0000690  -0.0001022
    3   0.0001005   0.0001526  -0.0002122   0.0000391  -0.0000388  -0.0000137
           13          14          15          16
    1   0.0000534   0.0000710  -0.0000533   0.0000017
    2  -0.0001318   0.0001022   0.0001318  -0.0001072
    3   0.0000252  -0.0000137   0.0000252  -0.0000527
 Max gradient component =       2.155E-04
 RMS gradient           =       1.068E-04
 Gradient time:  CPU 1.92 s  wall 1.90 s
 Geometry Optimization Parameters
   NAtoms,    NIC,     NZ,  NCons,   NDum,   NFix, NCnnct, MaxDiis
       16     111       0       1       0       0       0       0

 Cartesian Hessian Update
 Hessian Updated using BFGS Update


** CONSTRAINED OPTIMIZATION IN DELOCALIZED INTERNAL COORDINATES **
   Searching for a Minimum

   Optimization Cycle:   2

                       Coordinates (Angstroms)
     ATOM                X               Y               Z
      1  S         1.8384060113   -1.1745404895    0.3052513812
      2  C         3.2073248125   -0.1353644451    0.0684517291
      3  C         2.8235874573    1.1346081480   -0.2746938912
      4  C         1.4080963417    1.2791905925   -0.3658772572
      5  C         0.7176058449    0.1174343407   -0.0885518068
      6  H         0.9137652793    2.2014695020   -0.6507813057
      7  C        -0.7176058449   -0.1174343407   -0.0885518068
      8  S        -1.8384060113    1.1745404895    0.3052513812
      9  C        -1.4080963417   -1.2791905925   -0.3658772572
     10  C        -3.2073248125    0.1353644451    0.0684517291
     11  C        -2.8235874573   -1.1346081480   -0.2746938912
     12  H        -3.5253800025   -1.9382490212   -0.4673669052
     13  H         4.2082043332   -0.5245597650    0.1970022932
     14  H         3.5253800025    1.9382490212   -0.4673669052
     15  H        -4.2082043332    0.5245597650    0.1970022932
     16  H        -0.9137652793   -2.2014695020   -0.6507813057
   Point Group: c2    Number of degrees of freedom:    22


   Energy is  -1104.840735260

              Constraints and their Current Values
                                        Value     Constraint
   Dihedral:        4   5   7   9      150.000      150.000
 Hessian Updated using BFGS Update

 21 Hessian modes will be used to form the next step
  Hessian Eigenvalues:
     0.044180    0.045000    0.045001    0.045004    0.045005    0.045013
     0.159054    0.159947    0.160028    0.221312    0.237292    0.249678
     0.297455    0.314974    0.357292    0.358935    0.362118    0.384267
     0.423782    0.471793    0.518825

 Minimum Search - Taking Simple RFO Step
 Searching for Lamda that Minimizes Along All modes
 Value Taken    Lamda =  -0.00000358
 Step Taken.  Stepsize is  0.006170

                             Maximum     Tolerance    Cnvgd?
         Gradient           0.000662      0.000300      NO
         Displacement       0.003670      0.001200      NO
         Energy change     -0.000157      0.000001      NO


 New Cartesian Coordinates Obtained by Inverse Iteration

 Displacement from previous Coordinates is:  0.016201
 ----------------------------------------------------------------
             Standard Nuclear Orientation (Angstroms)
    I     Atom           X                Y                Z
 ----------------------------------------------------------------
    1      S       1.8380559934    -1.1752148508     0.3042272244
    2      C       3.2066099070    -0.1359144657     0.0667414768
    3      C       2.8225784648     1.1342903908    -0.2746929225
    4      C       1.4073819569     1.2791370245    -0.3641927076
    5      C       0.7174021142     0.1173075228    -0.0867962576
    6      H       0.9125472076     2.2013825023    -0.6478318862
    7      C      -0.7174021142    -0.1173075228    -0.0867962576
    8      S      -1.8380559934     1.1752148508     0.3042272244
    9      C      -1.4073819569    -1.2791370245    -0.3641927076
   10      C      -3.2066099070     0.1359144657     0.0667414768
   11      C      -2.8225784648    -1.1342903908    -0.2746929225
   12      H      -3.5242456648    -1.9377805922    -0.4675838163
   13      H       4.2077661906    -0.5246611499     0.1935631260
   14      H       3.5242456648     1.9377805922    -0.4675838163
   15      H      -4.2077661906     0.5246611499     0.1935631260
   16      H      -0.9125472076    -2.2013825023    -0.6478318862
 ----------------------------------------------------------------
 Molecular Point Group                 C2    NOp =  2
 Largest Abelian Subgroup              C2    NOp =  2
 Nuclear Repulsion Energy =   628.8839679188 hartrees
 There are       43 alpha and       43 beta electrons
 Applying Cartesian multipole field
    Component          Value
    ---------          -----
     (2,0,0)        1.00000E-11
     (0,2,0)        2.00000E-11
     (0,0,2)       -3.00000E-11
 Nucleus-field energy     =     0.0000000212 hartrees
 Requested basis set is 6-31++G(d,p)
 There are 76 shells and 234 basis functions
 A cutoff of  1.0D-11 yielded   2493 shell pairs
 There are     24631 function pairs
 Smallest overlap matrix eigenvalue = 1.01E-06

 Q-Chem warning in module /project/projectdirs/jcesr/qchem/qc44/cnl_qc441/compile/cori/qc_src/stvman/mkSTV.C, line 257:

 Overlap eigenvalue is smaller than square root of threshold

 Guess MOs from SCF MO coefficient file
 Reading MOs from coefficient file
 Reading MOs from coefficient file
 A restricted hybrid HF-DFT SCF calculation will be
 performed using Pulay DIIS extrapolation
 Exchange:     0.2000 Hartree-Fock + 0.0800 Slater + 0.7200 B88
 Correlation:  0.1900 VWN1RPA + 0.8100 LYP
 Using SG-1 standard quadrature grid
 SCF converges when DIIS error is below 1.0E-08
 Geometry optimization detected.  Setting ReadMinima to 0
 Setting SaveMinima to 0
 ---------------------------------------
  Cycle       Energy         DIIS Error
 ---------------------------------------
    1   -1104.8418523083      6.07E-05
    2   -1104.8407375487      4.34E-06
    3   -1104.8407376000      4.51E-06
    4   -1104.8407377467      1.60E-06
    5   -1104.8407377636      6.93E-07
    6   -1104.8407377658      2.44E-07
    7   -1104.8407377655      7.02E-08
    8   -1104.8407377669      2.21E-08
    9   -1104.8407377663      4.69E-09 Convergence criterion met
 ---------------------------------------
 SCF time:  CPU 4.69 s  wall 4.10 s
 SCF   energy in the final basis set = -1104.8407377663
 Total energy in the final basis set = -1104.8407377663
 
 --------------------------------------------------------------
             Orbital Energies (a.u.) and Symmetries
 --------------------------------------------------------------
 
 Alpha MOs, Restricted
 -- Occupied --                  
-88.920 -88.920 -10.239 -10.238 -10.225 -10.225 -10.204 -10.204
  1 B     1 A     2 A     2 B     3 B     3 A     4 B     4 A                  
-10.203 -10.203  -7.979  -7.979  -5.943  -5.943  -5.940  -5.940
  5 B     5 A     6 A     6 B     7 A     7 B     8 B     8 A                  
 -5.936  -5.936  -0.900  -0.878  -0.771  -0.749  -0.738  -0.706
  9 B     9 A    10 A    10 B    11 A    11 B    12 A    12 B                  
 -0.604  -0.579  -0.553  -0.534  -0.526  -0.478  -0.420  -0.418
 13 A    13 B    14 A    14 B    15 A    15 B    16 B    16 A                  
 -0.408  -0.405  -0.400  -0.378  -0.374  -0.357  -0.345  -0.278
 17 A    17 B    18 A    19 A    18 B    19 B    20 A    21 A                  
 -0.263  -0.260  -0.215
 20 B    22 A    21 B                                                          
 -- Virtual --                   
 -0.055  -0.006  -0.006  -0.003   0.007   0.009   0.017   0.022
 23 A    22 B    24 A    23 B    25 A    24 B    25 B    26 A                  
  0.031   0.035   0.038   0.047   0.048   0.051   0.059   0.061
 27 A    28 A    26 B    29 A    27 B    30 A    28 B    29 B                  
  0.072   0.081   0.088   0.096   0.099   0.102   0.107   0.108
 30 B    31 A    31 B    32 A    32 B    33 A    34 A    35 A                  
  0.119   0.123   0.129   0.132   0.134   0.137   0.138   0.138
 33 B    34 B    36 A    37 A    35 B    36 B    38 A    37 B                  
  0.148   0.155   0.162   0.164   0.165   0.174   0.179   0.181
 39 A    38 B    39 B    40 A    41 A    40 B    42 A    41 B                  
  0.186   0.192   0.205   0.209   0.213   0.221   0.222   0.226
 43 A    42 B    43 B    44 A    44 B    45 A    45 B    46 A                  
  0.240   0.253   0.257   0.263   0.266   0.276   0.283   0.293
 46 B    47 A    47 B    48 B    48 A    49 A    49 B    50 A                  
  0.312   0.316   0.328   0.342   0.354   0.354   0.378   0.388
 50 B    51 A    51 B    52 A    53 A    52 B    53 B    54 A                  
  0.431   0.454   0.465   0.517   0.519   0.540   0.546   0.567
 54 B    55 B    55 A    56 A    56 B    57 A    57 B    58 B                  
  0.582   0.611   0.616   0.618   0.650   0.658   0.663   0.679
 58 A    59 A    59 B    60 A    60 B    61 B    61 A    62 A                  
  0.680   0.699   0.720   0.727   0.729   0.741   0.753   0.773
 62 B    63 A    63 B    64 A    64 B    65 B    65 A    66 A                  
  0.788   0.817   0.819   0.832   0.843   0.867   0.918   0.941
 66 B    67 A    67 B    68 B    68 A    69 A    69 B    70 A                  
  0.949   0.957   0.957   0.961   0.968   0.990   0.997   1.014
 70 B    71 B    71 A    72 A    72 B    73 A    73 B    74 B                  
  1.018   1.031   1.047   1.066   1.090   1.100   1.116   1.138
 75 B    74 A    75 A    76 A    77 A    76 B    77 B    78 A                  
  1.147   1.177   1.195   1.224   1.245   1.268   1.318   1.342
 78 B    79 A    80 A    79 B    81 A    80 B    81 B    82 A                  
  1.349   1.352   1.360   1.377   1.462   1.466   1.513   1.527
 82 B    83 A    83 B    84 A    84 B    85 A    85 B    86 B                  
  1.568   1.684   1.693   1.738   1.802   1.865   1.868   1.891
 86 A    87 A    87 B    88 A    89 A    90 A    88 B    89 B                  
  1.919   1.920   1.943   1.972   2.006   2.044   2.073   2.093
 91 A    90 B    92 A    91 B    93 A    92 B    94 A    93 B                  
  2.111   2.159   2.176   2.182   2.235   2.243   2.257   2.333
 94 B    95 A    96 A    95 B    97 A    96 B    97 B    98 A                  
  2.364   2.367   2.421   2.452   2.455   2.466   2.493   2.506
 98 B    99 A    99 B   100 A   100 B   101 A   101 B   102 A                  
  2.528   2.534   2.575   2.585   2.603   2.662   2.692   2.719
103 A   102 B   103 B   104 A   104 B   105 A   106 A   105 B                  
  2.747   2.854   2.864   2.918   2.933   3.145   3.201   3.269
106 B   107 A   107 B   108 A   108 B   109 B   109 A   110 B                  
  3.273   3.401   3.427   3.720   3.742   3.973   3.977   4.245
110 A   111 A   111 B   112 A   112 B   113 B   113 A   114 A                  
  4.305   4.317   4.331   4.413   4.538   4.657   4.713
115 A   114 B   115 B   116 A   116 B   117 A   117 B                          
 
 Beta MOs, Restricted
 -- Occupied --                  
-88.920 -88.920 -10.239 -10.238 -10.225 -10.225 -10.204 -10.204
  1 B     1 A     2 A     2 B     3 B     3 A     4 B     4 A                  
-10.203 -10.203  -7.979  -7.979  -5.943  -5.943  -5.940  -5.940
  5 B     5 A     6 A     6 B     7 A     7 B     8 B     8 A                  
 -5.936  -5.936  -0.900  -0.878  -0.771  -0.749  -0.738  -0.706
  9 B     9 A    10 A    10 B    11 A    11 B    12 A    12 B                  
 -0.604  -0.579  -0.553  -0.534  -0.526  -0.478  -0.420  -0.418
 13 A    13 B    14 A    14 B    15 A    15 B    16 B    16 A                  
 -0.408  -0.405  -0.400  -0.378  -0.374  -0.357  -0.345  -0.278
 17 A    17 B    18 A    19 A    18 B    19 B    20 A    21 A                  
 -0.263  -0.260  -0.215
 20 B    22 A    21 B                                                          
 -- Virtual --                   
 -0.055  -0.006  -0.006  -0.003   0.007   0.009   0.017   0.022
 23 A    22 B    24 A    23 B    25 A    24 B    25 B    26 A                  
  0.031   0.035   0.038   0.047   0.048   0.051   0.059   0.061
 27 A    28 A    26 B    29 A    27 B    30 A    28 B    29 B                  
  0.072   0.081   0.088   0.096   0.099   0.102   0.107   0.108
 30 B    31 A    31 B    32 A    32 B    33 A    34 A    35 A                  
  0.119   0.123   0.129   0.132   0.134   0.137   0.138   0.138
 33 B    34 B    36 A    37 A    35 B    36 B    38 A    37 B                  
  0.148   0.155   0.162   0.164   0.165   0.174   0.179   0.181
 39 A    38 B    39 B    40 A    41 A    40 B    42 A    41 B                  
  0.186   0.192   0.205   0.209   0.213   0.221   0.222   0.226
 43 A    42 B    43 B    44 A    44 B    45 A    45 B    46 A                  
  0.240   0.253   0.257   0.263   0.266   0.276   0.283   0.293
 46 B    47 A    47 B    48 B    48 A    49 A    49 B    50 A                  
  0.312   0.316   0.328   0.342   0.354   0.354   0.378   0.388
 50 B    51 A    51 B    52 A    53 A    52 B    53 B    54 A                  
  0.431   0.454   0.465   0.517   0.519   0.540   0.546   0.567
 54 B    55 B    55 A    56 A    56 B    57 A    57 B    58 B                  
  0.582   0.611   0.616   0.618   0.650   0.658   0.663   0.679
 58 A    59 A    59 B    60 A    60 B    61 B    61 A    62 A                  
  0.680   0.699   0.720   0.727   0.729   0.741   0.753   0.773
 62 B    63 A    63 B    64 A    64 B    65 B    65 A    66 A                  
  0.788   0.817   0.819   0.832   0.843   0.867   0.918   0.941
 66 B    67 A    67 B    68 B    68 A    69 A    69 B    70 A                  
  0.949   0.957   0.957   0.961   0.968   0.990   0.997   1.014
 70 B    71 B    71 A    72 A    72 B    73 A    73 B    74 B                  
  1.018   1.031   1.047   1.066   1.090   1.100   1.116   1.138
 75 B    74 A    75 A    76 A    77 A    76 B    77 B    78 A                  
  1.147   1.177   1.195   1.224   1.245   1.268   1.318   1.342
 78 B    79 A    80 A    79 B    81 A    80 B    81 B    82 A                  
  1.349   1.352   1.360   1.377   1.462   1.466   1.513   1.527
 82 B    83 A    83 B    84 A    84 B    85 A    85 B    86 B                  
  1.568   1.684   1.693   1.738   1.802   1.865   1.868   1.891
 86 A    87 A    87 B    88 A    89 A    90 A    88 B    89 B                  
  1.919   1.920   1.943   1.972   2.006   2.044   2.073   2.093
 91 A    90 B    92 A    91 B    93 A    92 B    94 A    93 B                  
  2.111   2.159   2.176   2.182   2.235   2.243   2.257   2.333
 94 B    95 A    96 A    95 B    97 A    96 B    97 B    98 A                  
  2.364   2.367   2.421   2.452   2.455   2.466   2.493   2.506
 98 B    99 A    99 B   100 A   100 B   101 A   101 B   102 A                  
  2.528   2.534   2.575   2.585   2.603   2.662   2.692   2.719
103 A   102 B   103 B   104 A   104 B   105 A   106 A   105 B                  
  2.747   2.854   2.864   2.918   2.933   3.145   3.201   3.269
106 B   107 A   107 B   108 A   108 B   109 B   109 A   110 B                  
  3.273   3.401   3.427   3.720   3.742   3.973   3.977   4.245
110 A   111 A   111 B   112 A   112 B   113 B   113 A   114 A                  
  4.305   4.317   4.331   4.413   4.538   4.657   4.713
115 A   114 B   115 B   116 A   116 B   117 A   117 B                          
 --------------------------------------------------------------
 
          Ground-State Mulliken Net Atomic Charges

     Atom                 Charge (a.u.)
  ----------------------------------------
      1 S                    -0.057453
      2 C                    -0.038051
      3 C                    -0.393492
      4 C                     0.307252
      5 C                    -0.250196
      6 H                     0.128966
      7 C                    -0.250196
      8 S                    -0.057453
      9 C                     0.307252
     10 C                    -0.038051
     11 C                    -0.393492
     12 H                     0.114938
     13 H                     0.188036
     14 H                     0.114938
     15 H                     0.188036
     16 H                     0.128966
  ----------------------------------------
  Sum of atomic charges =    -0.000000

 -----------------------------------------------------------------
                    Cartesian Multipole Moments
 -----------------------------------------------------------------
    Charge (ESU x 10^10)
                -0.0000
    Dipole Moment (Debye)
         X       0.0000      Y      -0.0000      Z      -0.3252
       Tot       0.3252
    Quadrupole Moments (Debye-Ang)
        XX     -61.1542     XY       1.5242     YY     -68.7160
        XZ       0.0000     YZ       0.0000     ZZ     -78.1219
    Octopole Moments (Debye-Ang^2)
       XXX       0.0000    XXY      -0.0000    XYY      -0.0000
       YYY      -0.0000    XXZ       2.7428    XYZ      -6.6848
       YYZ      -4.4811    XZZ       0.0000    YZZ      -0.0000
       ZZZ       2.6623
    Hexadecapole Moments (Debye-Ang^3)
      XXXX   -1888.0787   XXXY     -21.9439   XXYY    -420.6477
      XYYY      15.7208   YYYY    -541.8789   XXXZ       0.0000
      XXYZ       0.0000   XYYZ       0.0000   YYYZ       0.0000
      XXZZ    -425.8410   XYZZ      -5.7834   YYZZ    -120.7656
      XZZZ      -0.0000   YZZZ       0.0000   ZZZZ    -139.7503
 -----------------------------------------------------------------
 Calculating analytic gradient of the SCF energy
 Gradient of SCF Energy
            1           2           3           4           5           6
    1   0.0000193  -0.0000134   0.0000500  -0.0000520  -0.0000170   0.0000142
    2  -0.0000958   0.0000463   0.0000055  -0.0001048   0.0002038   0.0000232
    3   0.0001055   0.0000193  -0.0000024  -0.0002466   0.0001526  -0.0000274
            7           8           9          10          11          12
    1   0.0000170  -0.0000193   0.0000520   0.0000134  -0.0000500   0.0000032
    2  -0.0002038   0.0000958   0.0001048  -0.0000463  -0.0000055  -0.0000176
    3   0.0001526   0.0001055  -0.0002466   0.0000193  -0.0000024  -0.0000008
           13          14          15          16
    1   0.0000021  -0.0000032  -0.0000021  -0.0000142
    2  -0.0000573   0.0000176   0.0000573  -0.0000232
    3  -0.0000003  -0.0000008  -0.0000003  -0.0000274
 Max gradient component =       2.466E-04
 RMS gradient           =       8.431E-05
 Gradient time:  CPU 1.90 s  wall 1.90 s
 Geometry Optimization Parameters
   NAtoms,    NIC,     NZ,  NCons,   NDum,   NFix, NCnnct, MaxDiis
       16     111       0       1       0       0       0       0

 Cartesian Hessian Update
 Hessian Updated using BFGS Update


** CONSTRAINED OPTIMIZATION IN DELOCALIZED INTERNAL COORDINATES **
   Searching for a Minimum

   Optimization Cycle:   3

                       Coordinates (Angstroms)
     ATOM                X               Y               Z
      1  S         1.8380559934   -1.1752148508    0.3042272244
      2  C         3.2066099070   -0.1359144657    0.0667414768
      3  C         2.8225784648    1.1342903908   -0.2746929225
      4  C         1.4073819569    1.2791370245   -0.3641927076
      5  C         0.7174021142    0.1173075228   -0.0867962576
      6  H         0.9125472076    2.2013825023   -0.6478318862
      7  C        -0.7174021142   -0.1173075228   -0.0867962576
      8  S        -1.8380559934    1.1752148508    0.3042272244
      9  C        -1.4073819569   -1.2791370245   -0.3641927076
     10  C        -3.2066099070    0.1359144657    0.0667414768
     11  C        -2.8225784648   -1.1342903908   -0.2746929225
     12  H        -3.5242456648   -1.9377805922   -0.4675838163
     13  H         4.2077661906   -0.5246611499    0.1935631260
     14  H         3.5242456648    1.9377805922   -0.4675838163
     15  H        -4.2077661906    0.5246611499    0.1935631260
     16  H        -0.9125472076   -2.2013825023   -0.6478318862
   Point Group: c2    Number of degrees of freedom:    22


   Energy is  -1104.840737766

              Constraints and their Current Values
                                        Value     Constraint
   Dihedral:        4   5   7   9      150.000      150.000
 Hessian Updated using BFGS Update

 20 Hessian modes will be used to form the next step
  Hessian Eigenvalues:
     0.022353    0.045000    0.045001    0.045013    0.045123    0.152987
     0.159947    0.160239    0.220575    0.246341    0.251589    0.293603
     0.314126    0.357090    0.359001    0.361377    0.389499    0.441939
     0.481364    0.578972

 Minimum Search - Taking Simple RFO Step
 Searching for Lamda that Minimizes Along All modes
 Value Taken    Lamda =  -0.00000235
 Step Taken.  Stepsize is  0.009979

                             Maximum     Tolerance    Cnvgd?
         Gradient           0.000136      0.000300     YES
         Displacement       0.005309      0.001200      NO
         Energy change     -0.000003      0.000001      NO


 New Cartesian Coordinates Obtained by Inverse Iteration

 Displacement from previous Coordinates is:  0.025454
 ----------------------------------------------------------------
             Standard Nuclear Orientation (Angstroms)
    I     Atom           X                Y                Z
 ----------------------------------------------------------------
    1      S       1.8384214753    -1.1758565806     0.3024403967
    2      C       3.2066939543    -0.1365870788     0.0638127566
    3      C       2.8220799535     1.1341119638    -0.2748260911
    4      C       1.4069256545     1.2793349766    -0.3612923831
    5      C       0.7173273617     0.1172988687    -0.0838259277
    6      H       0.9113953318     2.2017718788    -0.6427360801
    7      C      -0.7173273617    -0.1172988687    -0.0838259277
    8      S      -1.8384214753     1.1758565806     0.3024403967
    9      C      -1.4069256545    -1.2793349766    -0.3612923831
   10      C      -3.2066939543     0.1365870788     0.0638127566
   11      C      -2.8220799535    -1.1341119638    -0.2748260911
   12      H      -3.5236527233    -1.9374980856    -0.4680706094
   13      H       4.2082517503    -0.5249773320     0.1879321754
   14      H       3.5236527233     1.9374980856    -0.4680706094
   15      H      -4.2082517503     0.5249773320     0.1879321754
   16      H      -0.9113953318    -2.2017718788    -0.6427360801
 ----------------------------------------------------------------
 Molecular Point Group                 C2    NOp =  2
 Largest Abelian Subgroup              C2    NOp =  2
 Nuclear Repulsion Energy =   628.9352491899 hartrees
 There are       43 alpha and       43 beta electrons
 Applying Cartesian multipole field
    Component          Value
    ---------          -----
     (2,0,0)        1.00000E-11
     (0,2,0)        2.00000E-11
     (0,0,2)       -3.00000E-11
 Nucleus-field energy     =     0.0000000212 hartrees
 Requested basis set is 6-31++G(d,p)
 There are 76 shells and 234 basis functions
 A cutoff of  1.0D-11 yielded   2493 shell pairs
 There are     24631 function pairs
 Smallest overlap matrix eigenvalue = 1.01E-06

 Q-Chem warning in module /project/projectdirs/jcesr/qchem/qc44/cnl_qc441/compile/cori/qc_src/stvman/mkSTV.C, line 257:

 Overlap eigenvalue is smaller than square root of threshold

 Guess MOs from SCF MO coefficient file
 Reading MOs from coefficient file
 Reading MOs from coefficient file
 A restricted hybrid HF-DFT SCF calculation will be
 performed using Pulay DIIS extrapolation
 Exchange:     0.2000 Hartree-Fock + 0.0800 Slater + 0.7200 B88
 Correlation:  0.1900 VWN1RPA + 0.8100 LYP
 Using SG-1 standard quadrature grid
 SCF converges when DIIS error is below 1.0E-08
 Geometry optimization detected.  Setting ReadMinima to 0
 Setting SaveMinima to 0
 ---------------------------------------
  Cycle       Energy         DIIS Error
 ---------------------------------------
    1   -1104.8410067074      9.29E-05
    2   -1104.8407387894      5.98E-06
    3   -1104.8407383399      1.07E-05
    4   -1104.8407392213      1.71E-06
    5   -1104.8407392342      1.25E-06
    6   -1104.8407392444      3.21E-07
    7   -1104.8407392423      6.89E-08
    8   -1104.8407392440      1.49E-08
    9   -1104.8407392420      6.06E-09 Convergence criterion met
 ---------------------------------------
 SCF time:  CPU 4.72 s  wall 4.13 s
 SCF   energy in the final basis set = -1104.8407392420
 Total energy in the final basis set = -1104.8407392420
 
 --------------------------------------------------------------
             Orbital Energies (a.u.) and Symmetries
 --------------------------------------------------------------
 
 Alpha MOs, Restricted
 -- Occupied --                  
-88.920 -88.920 -10.239 -10.238 -10.225 -10.225 -10.204 -10.204
  1 B     1 A     2 A     2 B     3 B     3 A     4 B     4 A                  
-10.203 -10.203  -7.979  -7.979  -5.943  -5.943  -5.940  -5.940
  5 B     5 A     6 A     6 B     7 A     7 B     8 B     8 A                  
 -5.936  -5.936  -0.900  -0.878  -0.771  -0.749  -0.738  -0.706
  9 B     9 A    10 A    10 B    11 A    11 B    12 A    12 B                  
 -0.604  -0.579  -0.553  -0.534  -0.526  -0.478  -0.420  -0.418
 13 A    13 B    14 A    14 B    15 A    15 B    16 B    16 A                  
 -0.408  -0.405  -0.400  -0.378  -0.374  -0.357  -0.345  -0.278
 17 A    17 B    18 A    19 A    18 B    19 B    20 A    21 A                  
 -0.263  -0.260  -0.215
 20 B    22 A    21 B                                                          
 -- Virtual --                   
 -0.055  -0.006  -0.006  -0.003   0.007   0.009   0.017   0.022
 23 A    22 B    24 A    23 B    25 A    24 B    25 B    26 A                  
  0.031   0.035   0.038   0.047   0.049   0.051   0.059   0.061
 27 A    28 A    26 B    29 A    27 B    30 A    28 B    29 B                  
  0.072   0.082   0.088   0.096   0.099   0.102   0.107   0.108
 30 B    31 A    31 B    32 A    32 B    33 A    34 A    35 A                  
  0.119   0.123   0.129   0.132   0.134   0.137   0.138   0.138
 33 B    34 B    36 A    37 A    35 B    36 B    38 A    37 B                  
  0.148   0.155   0.162   0.164   0.165   0.174   0.179   0.181
 39 A    38 B    39 B    40 A    41 A    40 B    42 A    41 B                  
  0.186   0.192   0.205   0.209   0.213   0.221   0.222   0.226
 43 A    42 B    43 B    44 A    44 B    45 A    45 B    46 A                  
  0.241   0.253   0.257   0.263   0.266   0.277   0.283   0.292
 46 B    47 A    47 B    48 B    48 A    49 A    49 B    50 A                  
  0.312   0.316   0.328   0.342   0.354   0.354   0.378   0.389
 50 B    51 A    51 B    52 A    53 A    52 B    53 B    54 A                  
  0.431   0.454   0.465   0.518   0.519   0.540   0.546   0.567
 54 B    55 B    55 A    56 A    56 B    57 A    57 B    58 B                  
  0.582   0.611   0.616   0.618   0.650   0.658   0.663   0.679
 58 A    59 A    59 B    60 A    60 B    61 B    61 A    62 A                  
  0.679   0.699   0.720   0.727   0.729   0.741   0.753   0.773
 62 B    63 A    63 B    64 A    64 B    65 B    65 A    66 A                  
  0.788   0.817   0.819   0.832   0.843   0.867   0.918   0.941
 66 B    67 A    67 B    68 B    68 A    69 A    69 B    70 A                  
  0.949   0.957   0.957   0.961   0.968   0.990   0.997   1.014
 70 B    71 A    71 B    72 A    72 B    73 A    73 B    74 B                  
  1.018   1.031   1.047   1.066   1.091   1.100   1.116   1.138
 75 B    74 A    75 A    76 A    77 A    76 B    77 B    78 A                  
  1.147   1.177   1.196   1.224   1.245   1.267   1.318   1.342
 78 B    79 A    80 A    79 B    81 A    80 B    81 B    82 A                  
  1.349   1.352   1.360   1.377   1.463   1.466   1.513   1.526
 82 B    83 A    83 B    84 A    84 B    85 A    85 B    86 B                  
  1.569   1.684   1.693   1.738   1.802   1.865   1.868   1.891
 86 A    87 A    87 B    88 A    89 A    90 A    88 B    89 B                  
  1.919   1.921   1.943   1.972   2.006   2.044   2.073   2.093
 91 A    90 B    92 A    91 B    93 A    92 B    94 A    93 B                  
  2.112   2.159   2.176   2.182   2.235   2.243   2.257   2.333
 94 B    95 A    96 A    95 B    97 A    96 B    97 B    98 A                  
  2.364   2.367   2.421   2.452   2.455   2.466   2.493   2.506
 98 B    99 A    99 B   100 A   100 B   101 A   101 B   102 A                  
  2.528   2.534   2.576   2.585   2.603   2.662   2.692   2.719
103 A   102 B   103 B   104 A   104 B   105 A   106 A   105 B                  
  2.747   2.854   2.864   2.918   2.933   3.146   3.201   3.269
106 B   107 A   107 B   108 A   108 B   109 B   109 A   110 B                  
  3.273   3.401   3.427   3.721   3.743   3.973   3.977   4.245
110 A   111 A   111 B   112 A   112 B   113 B   113 A   114 A                  
  4.306   4.317   4.331   4.413   4.538   4.657   4.714
115 A   114 B   115 B   116 A   116 B   117 A   117 B                          
 
 Beta MOs, Restricted
 -- Occupied --                  
-88.920 -88.920 -10.239 -10.238 -10.225 -10.225 -10.204 -10.204
  1 B     1 A     2 A     2 B     3 B     3 A     4 B     4 A                  
-10.203 -10.203  -7.979  -7.979  -5.943  -5.943  -5.940  -5.940
  5 B     5 A     6 A     6 B     7 A     7 B     8 B     8 A                  
 -5.936  -5.936  -0.900  -0.878  -0.771  -0.749  -0.738  -0.706
  9 B     9 A    10 A    10 B    11 A    11 B    12 A    12 B                  
 -0.604  -0.579  -0.553  -0.534  -0.526  -0.478  -0.420  -0.418
 13 A    13 B    14 A    14 B    15 A    15 B    16 B    16 A                  
 -0.408  -0.405  -0.400  -0.378  -0.374  -0.357  -0.345  -0.278
 17 A    17 B    18 A    19 A    18 B    19 B    20 A    21 A                  
 -0.263  -0.260  -0.215
 20 B    22 A    21 B                                                          
 -- Virtual --                   
 -0.055  -0.006  -0.006  -0.003   0.007   0.009   0.017   0.022
 23 A    22 B    24 A    23 B    25 A    24 B    25 B    26 A                  
  0.031   0.035   0.038   0.047   0.049   0.051   0.059   0.061
 27 A    28 A    26 B    29 A    27 B    30 A    28 B    29 B                  
  0.072   0.082   0.088   0.096   0.099   0.102   0.107   0.108
 30 B    31 A    31 B    32 A    32 B    33 A    34 A    35 A                  
  0.119   0.123   0.129   0.132   0.134   0.137   0.138   0.138
 33 B    34 B    36 A    37 A    35 B    36 B    38 A    37 B                  
  0.148   0.155   0.162   0.164   0.165   0.174   0.179   0.181
 39 A    38 B    39 B    40 A    41 A    40 B    42 A    41 B                  
  0.186   0.192   0.205   0.209   0.213   0.221   0.222   0.226
 43 A    42 B    43 B    44 A    44 B    45 A    45 B    46 A                  
  0.241   0.253   0.257   0.263   0.266   0.277   0.283   0.292
 46 B    47 A    47 B    48 B    48 A    49 A    49 B    50 A                  
  0.312   0.316   0.328   0.342   0.354   0.354   0.378   0.389
 50 B    51 A    51 B    52 A    53 A    52 B    53 B    54 A                  
  0.431   0.454   0.465   0.518   0.519   0.540   0.546   0.567
 54 B    55 B    55 A    56 A    56 B    57 A    57 B    58 B                  
  0.582   0.611   0.616   0.618   0.650   0.658   0.663   0.679
 58 A    59 A    59 B    60 A    60 B    61 B    61 A    62 A                  
  0.679   0.699   0.720   0.727   0.729   0.741   0.753   0.773
 62 B    63 A    63 B    64 A    64 B    65 B    65 A    66 A                  
  0.788   0.817   0.819   0.832   0.843   0.867   0.918   0.941
 66 B    67 A    67 B    68 B    68 A    69 A    69 B    70 A                  
  0.949   0.957   0.957   0.961   0.968   0.990   0.997   1.014
 70 B    71 A    71 B    72 A    72 B    73 A    73 B    74 B                  
  1.018   1.031   1.047   1.066   1.091   1.100   1.116   1.138
 75 B    74 A    75 A    76 A    77 A    76 B    77 B    78 A                  
  1.147   1.177   1.196   1.224   1.245   1.267   1.318   1.342
 78 B    79 A    80 A    79 B    81 A    80 B    81 B    82 A                  
  1.349   1.352   1.360   1.377   1.463   1.466   1.513   1.526
 82 B    83 A    83 B    84 A    84 B    85 A    85 B    86 B                  
  1.569   1.684   1.693   1.738   1.802   1.865   1.868   1.891
 86 A    87 A    87 B    88 A    89 A    90 A    88 B    89 B                  
  1.919   1.921   1.943   1.972   2.006   2.044   2.073   2.093
 91 A    90 B    92 A    91 B    93 A    92 B    94 A    93 B                  
  2.112   2.159   2.176   2.182   2.235   2.243   2.257   2.333
 94 B    95 A    96 A    95 B    97 A    96 B    97 B    98 A                  
  2.364   2.367   2.421   2.452   2.455   2.466   2.493   2.506
 98 B    99 A    99 B   100 A   100 B   101 A   101 B   102 A                  
  2.528   2.534   2.576   2.585   2.603   2.662   2.692   2.719
103 A   102 B   103 B   104 A   104 B   105 A   106 A   105 B                  
  2.747   2.854   2.864   2.918   2.933   3.146   3.201   3.269
106 B   107 A   107 B   108 A   108 B   109 B   109 A   110 B                  
  3.273   3.401   3.427   3.721   3.743   3.973   3.977   4.245
110 A   111 A   111 B   112 A   112 B   113 B   113 A   114 A                  
  4.306   4.317   4.331   4.413   4.538   4.657   4.714
115 A   114 B   115 B   116 A   116 B   117 A   117 B                          
 --------------------------------------------------------------
 
          Ground-State Mulliken Net Atomic Charges

     Atom                 Charge (a.u.)
  ----------------------------------------
      1 S                    -0.057790
      2 C                    -0.038381
      3 C                    -0.393081
      4 C                     0.306949
      5 C                    -0.249341
      6 H                     0.128789
      7 C                    -0.249341
      8 S                    -0.057790
      9 C                     0.306949
     10 C                    -0.038381
     11 C                    -0.393081
     12 H                     0.114919
     13 H                     0.187935
     14 H                     0.114919
     15 H                     0.187935
     16 H                     0.128789
  ----------------------------------------
  Sum of atomic charges =    -0.000000

 -----------------------------------------------------------------
                    Cartesian Multipole Moments
 -----------------------------------------------------------------
    Charge (ESU x 10^10)
                -0.0000
    Dipole Moment (Debye)
         X       0.0000      Y      -0.0000      Z      -0.3287
       Tot       0.3287
    Quadrupole Moments (Debye-Ang)
        XX     -61.1486     XY       1.5183     YY     -68.7143
        XZ       0.0000     YZ      -0.0000     ZZ     -78.1295
    Octopole Moments (Debye-Ang^2)
       XXX       0.0000    XXY      -0.0000    XYY      -0.0000
       YYY      -0.0000    XXZ       2.6078    XYZ      -6.6415
       YYZ      -4.4479    XZZ       0.0000    YZZ       0.0000
       ZZZ       2.7178
    Hexadecapole Moments (Debye-Ang^3)
      XXXX   -1887.7016   XXXY     -21.7990   XXYY    -420.6870
      XYYY      15.9366   YYYY    -542.0950   XXXZ       0.0000
      XXYZ      -0.0000   XYYZ       0.0000   YYYZ       0.0000
      XXZZ    -425.8404   XYZZ      -5.6605   YYZZ    -120.8012
      XZZZ       0.0000   YZZZ      -0.0000   ZZZZ    -139.2941
 -----------------------------------------------------------------
 Calculating analytic gradient of the SCF energy
 Gradient of SCF Energy
            1           2           3           4           5           6
    1  -0.0000324  -0.0000080  -0.0000309   0.0000303  -0.0000294   0.0000086
    2   0.0000544   0.0000126  -0.0000467  -0.0001107   0.0001516  -0.0000459
    3   0.0000164   0.0000185   0.0000288  -0.0003040   0.0002646  -0.0000053
            7           8           9          10          11          12
    1   0.0000294   0.0000324  -0.0000303   0.0000080   0.0000309   0.0000198
    2  -0.0001516  -0.0000544   0.0001107  -0.0000126   0.0000467   0.0000428
    3   0.0002646   0.0000164  -0.0003040   0.0000185   0.0000288   0.0000048
           13          14          15          16
    1  -0.0000126  -0.0000198   0.0000126  -0.0000086
    2   0.0000219  -0.0000428  -0.0000219   0.0000459
    3  -0.0000239   0.0000048  -0.0000239  -0.0000053
 Max gradient component =       3.040E-04
 RMS gradient           =       9.442E-05
 Gradient time:  CPU 1.89 s  wall 1.90 s
 Geometry Optimization Parameters
   NAtoms,    NIC,     NZ,  NCons,   NDum,   NFix, NCnnct, MaxDiis
       16     111       0       1       0       0       0       0

[...]
  3.273   3.401   3.427   3.721   3.743   3.973   3.977   4.245
110 A   111 A   111 B   112 A   112 B   113 B   113 A   114 A                  
  4.306   4.317   4.331   4.413   4.538   4.657   4.713
115 A   114 B   115 B   116 A   116 B   117 A   117 B                          
 --------------------------------------------------------------
 
          Ground-State Mulliken Net Atomic Charges

     Atom                 Charge (a.u.)
  ----------------------------------------
      1 S                    -0.057960
      2 C                    -0.038736
      3 C                    -0.392603
      4 C                     0.306445
      5 C                    -0.248672
      6 H                     0.128692
      7 C                    -0.248672
      8 S                    -0.057960
      9 C                     0.306445
     10 C                    -0.038736
     11 C                    -0.392603
     12 H                     0.114925
     13 H                     0.187908
     14 H                     0.114925
     15 H                     0.187908
     16 H                     0.128692
  ----------------------------------------
  Sum of atomic charges =    -0.000000

 -----------------------------------------------------------------
                    Cartesian Multipole Moments
 -----------------------------------------------------------------
    Charge (ESU x 10^10)
                -0.0000
    Dipole Moment (Debye)
         X      -0.0000      Y      -0.0000      Z      -0.3303
       Tot       0.3303
    Quadrupole Moments (Debye-Ang)
        XX     -61.1487     XY       1.5144     YY     -68.7086
        XZ       0.0000     YZ      -0.0000     ZZ     -78.1373
    Octopole Moments (Debye-Ang^2)
       XXX      -0.0000    XXY      -0.0000    XYY      -0.0000
       YYY      -0.0000    XXZ       2.5341    XYZ      -6.6190
       YYZ      -4.4255    XZZ      -0.0000    YZZ      -0.0000
       ZZZ       2.7617
    Hexadecapole Moments (Debye-Ang^3)
      XXXX   -1887.7981   XXXY     -21.7594   XXYY    -420.7223
      XYYY      16.0573   YYYY    -542.2947   XXXZ       0.0000
      XXYZ      -0.0000   XYYZ       0.0000   YYYZ      -0.0000
      XXZZ    -425.8887   XYZZ      -5.6001   YYZZ    -120.8455
      XZZZ      -0.0000   YZZZ      -0.0000   ZZZZ    -139.0269
 -----------------------------------------------------------------
 Calculating analytic gradient of the SCF energy
 Gradient of SCF Energy
            1           2           3           4           5           6
    1  -0.0000319  -0.0000213  -0.0000484   0.0000635  -0.0000122  -0.0000009
    2   0.0000353  -0.0000384  -0.0000049  -0.0000706   0.0001285  -0.0000273
    3  -0.0000036   0.0000229   0.0000131  -0.0003454   0.0003380  -0.0000038
            7           8           9          10          11          12
    1   0.0000122   0.0000319  -0.0000635   0.0000213   0.0000484   0.0000012
    2  -0.0001285  -0.0000353   0.0000706   0.0000384   0.0000049   0.0000281
    3   0.0003380  -0.0000036  -0.0003454   0.0000229   0.0000131  -0.0000005
           13          14          15          16
    1  -0.0000048  -0.0000012   0.0000048   0.0000009
    2   0.0000235  -0.0000281  -0.0000235   0.0000273
    3  -0.0000207  -0.0000005  -0.0000207  -0.0000038
 Max gradient component =       3.454E-04
 RMS gradient           =       1.059E-04
 Gradient time:  CPU 1.98 s  wall 1.90 s
 Geometry Optimization Parameters
   NAtoms,    NIC,     NZ,  NCons,   NDum,   NFix, NCnnct, MaxDiis
       16     111       0       1       0       0       0       0

 Cartesian Hessian Update
 Hessian Updated using BFGS Update


** CONSTRAINED OPTIMIZATION IN DELOCALIZED INTERNAL COORDINATES **
   Searching for a Minimum

   Optimization Cycle:   5

                       Coordinates (Angstroms)
     ATOM                X               Y               Z
      1  S         1.8387567692   -1.1762974447    0.3013273814
      2  C         3.2068205026   -0.1369532028    0.0619176080
      3  C         2.8219593255    1.1341848238   -0.2750243092
      4  C         1.4067211964    1.2796678118   -0.3594973327
      5  C         0.7173311674    0.1174063864   -0.0819960443
      6  H         0.9109103175    2.2024309572   -0.6394719871
      7  C        -0.7173311674   -0.1174063864   -0.0819960443
      8  S        -1.8387567692    1.1762974447    0.3013273814
      9  C        -1.4067211964   -1.2796678118   -0.3594973327
     10  C        -3.2068205026    0.1369532028    0.0619176080
     11  C        -2.8219593255   -1.1341848238   -0.2750243092
     12  H        -3.5234635617   -1.9376393034   -0.4684125290
     13  H         4.2085026739   -0.5255097021    0.1845914501
     14  H         3.5234635617    1.9376393034   -0.4684125290
     15  H        -4.2085026739    0.5255097021    0.1845914501
     16  H        -0.9109103175   -2.2024309572   -0.6394719871
   Point Group: c2    Number of degrees of freedom:    22


   Energy is  -1104.840739684

              Constraints and their Current Values
                                        Value     Constraint
   Dihedral:        4   5   7   9      150.000      150.000
 Hessian Updated using BFGS Update

 21 Hessian modes will be used to form the next step
  Hessian Eigenvalues:
     0.010604    0.044902    0.045001    0.045004    0.045008    0.045120
     0.157613    0.159958    0.160206    0.221626    0.249221    0.261060
     0.296402    0.314550    0.357351    0.359828    0.362290    0.389309
     0.445323    0.481337    0.572188

 Minimum Search - Taking Simple RFO Step
 Searching for Lamda that Minimizes Along All modes
 Value Taken    Lamda =   0.00000000
 Step Taken.  Stepsize is  0.003103

                             Maximum     Tolerance    Cnvgd?
         Gradient           0.000094      0.000300     YES
         Displacement       0.001809      0.001200      NO
         Energy change     -0.000000      0.000001     YES

 Final energy is   -1104.84073968399     


 ******************************
 **  OPTIMIZATION CONVERGED  **
 ******************************

                       Coordinates (Angstroms)
     ATOM                X               Y               Z
      1  S         1.8387567692   -1.1762974447    0.3013273814
      2  C         3.2068205026   -0.1369532028    0.0619176080
      3  C         2.8219593255    1.1341848238   -0.2750243092
      4  C         1.4067211964    1.2796678118   -0.3594973327
      5  C         0.7173311674    0.1174063864   -0.0819960443
      6  H         0.9109103175    2.2024309572   -0.6394719871
      7  C        -0.7173311674   -0.1174063864   -0.0819960443
      8  S        -1.8387567692    1.1762974447    0.3013273814
      9  C        -1.4067211964   -1.2796678118   -0.3594973327
     10  C        -3.2068205026    0.1369532028    0.0619176080
     11  C        -2.8219593255   -1.1341848238   -0.2750243092
     12  H        -3.5234635617   -1.9376393034   -0.4684125290
     13  H         4.2085026739   -0.5255097021    0.1845914501
     14  H         3.5234635617    1.9376393034   -0.4684125290
     15  H        -4.2085026739    0.5255097021    0.1845914501
     16  H        -0.9109103175   -2.2024309572   -0.6394719871

Z-matrix Print:
$molecule
0 1
S 
C  1 1.734691
H  2 1.081384 1 119.972425
C  2 1.370197 1 111.608273 3 179.957462 0
H  4 1.083996 2 123.347260 1 179.958455 0
C  4 1.425202 2 112.841969 1 0.696782 0
H  6 1.084300 4 123.796338 2 178.267377 0
C  6 1.379535 4 113.472469 2 -0.187840 0
C  8 1.453751 6 128.994596 4 179.354448 0
C  9 1.379535 8 128.994596 6 -149.999983 0
H  10 1.084300 9 122.712325 8 0.880179 0
C  10 1.425202 9 113.472469 8 179.354448 0
H  12 1.083996 10 123.806363 9 -179.445575 0
C  12 1.370197 10 112.841969 9 -0.187840 0
H  14 1.081384 12 128.419286 10 -179.350251 0
S  14 1.734691 12 111.608273 10 0.696782 0
$end

 
 --------------------------------------------------------------
             Orbital Energies (a.u.) and Symmetries
 --------------------------------------------------------------
 
 Alpha MOs, Restricted
 -- Occupied --                  
-88.920 -88.920 -10.239 -10.238 -10.225 -10.225 -10.204 -10.204
  1 B     1 A     2 A     2 B     3 B     3 A     4 B     4 A                  
-10.203 -10.203  -7.979  -7.979  -5.943  -5.943  -5.940  -5.940
  5 B     5 A     6 A     6 B     7 A     7 B     8 B     8 A                  
 -5.936  -5.936  -0.900  -0.878  -0.771  -0.749  -0.738  -0.706
  9 B     9 A    10 A    10 B    11 A    11 B    12 A    12 B                  
 -0.604  -0.579  -0.553  -0.534  -0.526  -0.478  -0.420  -0.418
 13 A    13 B    14 A    14 B    15 A    15 B    16 B    16 A                  
 -0.408  -0.405  -0.400  -0.378  -0.374  -0.357  -0.345  -0.278
 17 A    17 B    18 A    19 A    18 B    19 B    20 A    21 A                  
 -0.263  -0.260  -0.215
 20 B    22 A    21 B                                                          
 -- Virtual --                   
 -0.055  -0.006  -0.006  -0.003   0.007   0.009   0.017   0.022
 23 A    22 B    24 A    23 B    25 A    24 B    25 B    26 A                  
  0.031   0.035   0.038   0.047   0.049   0.051   0.059   0.061
 27 A    28 A    26 B    29 A    27 B    30 A    28 B    29 B                  
  0.072   0.082   0.088   0.096   0.099   0.102   0.107   0.109
 30 B    31 A    31 B    32 A    32 B    33 A    34 A    35 A                  
  0.119   0.123   0.129   0.132   0.134   0.137   0.138   0.138
 33 B    34 B    36 A    37 A    35 B    36 B    38 A    37 B                  
  0.148   0.156   0.162   0.164   0.165   0.173   0.179   0.182
 39 A    38 B    39 B    40 A    41 A    40 B    42 A    41 B                  
  0.186   0.192   0.205   0.209   0.213   0.221   0.222   0.226
 43 A    42 B    43 B    44 A    44 B    45 A    45 B    46 A                  
  0.241   0.253   0.257   0.263   0.266   0.277   0.283   0.292
 46 B    47 A    47 B    48 B    48 A    49 A    49 B    50 A                  
  0.312   0.316   0.328   0.342   0.354   0.354   0.378   0.389
 50 B    51 A    51 B    52 A    53 A    52 B    53 B    54 A                  
  0.431   0.454   0.465   0.518   0.519   0.540   0.546   0.567
 54 B    55 B    55 A    56 A    56 B    57 A    57 B    58 B                  
  0.582   0.612   0.616   0.617   0.650   0.658   0.663   0.679
 58 A    59 A    59 B    60 A    60 B    61 B    61 A    62 A                  
  0.679   0.699   0.720   0.727   0.729   0.741   0.753   0.773
 62 B    63 A    63 B    64 A    64 B    65 B    65 A    66 A                  
  0.788   0.817   0.819   0.832   0.843   0.867   0.918   0.941
 66 B    67 A    67 B    68 B    68 A    69 A    69 B    70 A                  
  0.949   0.957   0.958   0.961   0.968   0.990   0.997   1.014
 70 B    71 A    71 B    72 A    72 B    73 A    73 B    74 B                  
  1.018   1.031   1.046   1.066   1.091   1.100   1.116   1.138
 75 B    74 A    75 A    76 A    77 A    76 B    77 B    78 A                  
  1.147   1.177   1.196   1.224   1.245   1.267   1.318   1.342
 78 B    79 A    80 A    79 B    81 A    80 B    81 B    82 A                  
  1.349   1.352   1.360   1.377   1.463   1.466   1.513   1.526
 82 B    83 A    83 B    84 A    84 B    85 A    85 B    86 B                  
  1.569   1.684   1.693   1.738   1.801   1.865   1.868   1.891
 86 A    87 A    87 B    88 A    89 A    90 A    88 B    89 B                  
  1.919   1.921   1.943   1.972   2.006   2.044   2.073   2.093
 91 A    90 B    92 A    91 B    93 A    92 B    94 A    93 B                  
  2.112   2.159   2.176   2.182   2.235   2.243   2.257   2.333
 94 B    95 A    96 A    95 B    97 A    96 B    97 B    98 A                  
  2.364   2.367   2.421   2.452   2.455   2.466   2.493   2.506
 98 B    99 A    99 B   100 A   100 B   101 A   101 B   102 A                  
  2.528   2.534   2.576   2.585   2.603   2.662   2.692   2.719
103 A   102 B   103 B   104 A   104 B   105 A   106 A   105 B                  
  2.747   2.854   2.864   2.918   2.933   3.146   3.201   3.269
106 B   107 A   107 B   108 A   108 B   109 B   109 A   110 B                  
  3.273   3.401   3.427   3.721   3.743   3.973   3.977   4.245
110 A   111 A   111 B   112 A   112 B   113 B   113 A   114 A                  
  4.306   4.317   4.331   4.413   4.538   4.657   4.713
115 A   114 B   115 B   116 A   116 B   117 A   117 B                          
 
 Beta MOs, Restricted
 -- Occupied --                  
-88.920 -88.920 -10.239 -10.238 -10.225 -10.225 -10.204 -10.204
  1 B     1 A     2 A     2 B     3 B     3 A     4 B     4 A                  
-10.203 -10.203  -7.979  -7.979  -5.943  -5.943  -5.940  -5.940
  5 B     5 A     6 A     6 B     7 A     7 B     8 B     8 A                  
 -5.936  -5.936  -0.900  -0.878  -0.771  -0.749  -0.738  -0.706
  9 B     9 A    10 A    10 B    11 A    11 B    12 A    12 B                  
 -0.604  -0.579  -0.553  -0.534  -0.526  -0.478  -0.420  -0.418
 13 A    13 B    14 A    14 B    15 A    15 B    16 B    16 A                  
 -0.408  -0.405  -0.400  -0.378  -0.374  -0.357  -0.345  -0.278
 17 A    17 B    18 A    19 A    18 B    19 B    20 A    21 A                  
 -0.263  -0.260  -0.215
 20 B    22 A    21 B                                                          
 -- Virtual --                   
 -0.055  -0.006  -0.006  -0.003   0.007   0.009   0.017   0.022
 23 A    22 B    24 A    23 B    25 A    24 B    25 B    26 A                  
  0.031   0.035   0.038   0.047   0.049   0.051   0.059   0.061
 27 A    28 A    26 B    29 A    27 B    30 A    28 B    29 B                  
  0.072   0.082   0.088   0.096   0.099   0.102   0.107   0.109
 30 B    31 A    31 B    32 A    32 B    33 A    34 A    35 A                  
  0.119   0.123   0.129   0.132   0.134   0.137   0.138   0.138
 33 B    34 B    36 A    37 A    35 B    36 B    38 A    37 B                  
  0.148   0.156   0.162   0.164   0.165   0.173   0.179   0.182
 39 A    38 B    39 B    40 A    41 A    40 B    42 A    41 B                  
  0.186   0.192   0.205   0.209   0.213   0.221   0.222   0.226
 43 A    42 B    43 B    44 A    44 B    45 A    45 B    46 A                  
  0.241   0.253   0.257   0.263   0.266   0.277   0.283   0.292
 46 B    47 A    47 B    48 B    48 A    49 A    49 B    50 A                  
  0.312   0.316   0.328   0.342   0.354   0.354   0.378   0.389
 50 B    51 A    51 B    52 A    53 A    52 B    53 B    54 A                  
  0.431   0.454   0.465   0.518   0.519   0.540   0.546   0.567
 54 B    55 B    55 A    56 A    56 B    57 A    57 B    58 B                  
  0.582   0.612   0.616   0.617   0.650   0.658   0.663   0.679
 58 A    59 A    59 B    60 A    60 B    61 B    61 A    62 A                  
  0.679   0.699   0.720   0.727   0.729   0.741   0.753   0.773
 62 B    63 A    63 B    64 A    64 B    65 B    65 A    66 A                  
  0.788   0.817   0.819   0.832   0.843   0.867   0.918   0.941
 66 B    67 A    67 B    68 B    68 A    69 A    69 B    70 A                  
  0.949   0.957   0.958   0.961   0.968   0.990   0.997   1.014
 70 B    71 A    71 B    72 A    72 B    73 A    73 B    74 B                  
  1.018   1.031   1.046   1.066   1.091   1.100   1.116   1.138
 75 B    74 A    75 A    76 A    77 A    76 B    77 B    78 A                  
  1.147   1.177   1.196   1.224   1.245   1.267   1.318   1.342
 78 B    79 A    80 A    79 B    81 A    80 B    81 B    82 A                  
  1.349   1.352   1.360   1.377   1.463   1.466   1.513   1.526
 82 B    83 A    83 B    84 A    84 B    85 A    85 B    86 B                  
  1.569   1.684   1.693   1.738   1.801   1.865   1.868   1.891
 86 A    87 A    87 B    88 A    89 A    90 A    88 B    89 B                  
  1.919   1.921   1.943   1.972   2.006   2.044   2.073   2.093
 91 A    90 B    92 A    91 B    93 A    92 B    94 A    93 B                  
  2.112   2.159   2.176   2.182   2.235   2.243   2.257   2.333
 94 B    95 A    96 A    95 B    97 A    96 B    97 B    98 A                  
  2.364   2.367   2.421   2.452   2.455   2.466   2.493   2.506
 98 B    99 A    99 B   100 A   100 B   101 A   101 B   102 A                  
  2.528   2.534   2.576   2.585   2.603   2.662   2.692   2.719
103 A   102 B   103 B   104 A   104 B   105 A   106 A   105 B                  
  2.747   2.854   2.864   2.918   2.933   3.146   3.201   3.269
106 B   107 A   107 B   108 A   108 B   109 B   109 A   110 B                  
  3.273   3.401   3.427   3.721   3.743   3.973   3.977   4.245
110 A   111 A   111 B   112 A   112 B   113 B   113 A   114 A                  
  4.306   4.317   4.331   4.413   4.538   4.657   4.713
115 A   114 B   115 B   116 A   116 B   117 A   117 B                          
 --------------------------------------------------------------
 
          Ground-State Mulliken Net Atomic Charges

     Atom                 Charge (a.u.)
  ----------------------------------------
      1 S                    -0.057960
      2 C                    -0.038736
      3 C                    -0.392603
      4 C                     0.306445
      5 C                    -0.248672
      6 H                     0.128692
      7 C                    -0.248672
      8 S                    -0.057960
      9 C                     0.306445
     10 C                    -0.038736
     11 C                    -0.392603
     12 H                     0.114925
     13 H                     0.187908
     14 H                     0.114925
     15 H                     0.187908
     16 H                     0.128692
  ----------------------------------------
  Sum of atomic charges =    -0.000000

 -----------------------------------------------------------------
                    Cartesian Multipole Moments
 -----------------------------------------------------------------
    Charge (ESU x 10^10)
                -0.0000
    Dipole Moment (Debye)
         X      -0.0000      Y      -0.0000      Z      -0.3303
       Tot       0.3303
    Quadrupole Moments (Debye-Ang)
        XX     -61.1487     XY       1.5144     YY     -68.7086
        XZ       0.0000     YZ      -0.0000     ZZ     -78.1373
    Octopole Moments (Debye-Ang^2)
       XXX      -0.0000    XXY      -0.0000    XYY      -0.0000
       YYY      -0.0000    XXZ       2.5341    XYZ      -6.6190
       YYZ      -4.4255    XZZ      -0.0000    YZZ      -0.0000
       ZZZ       2.7617
    Hexadecapole Moments (Debye-Ang^3)
      XXXX   -1887.7981   XXXY     -21.7594   XXYY    -420.7223
      XYYY      16.0573   YYYY    -542.2947   XXXZ       0.0000
      XXYZ      -0.0000   XYYZ       0.0000   YYYZ      -0.0000
      XXZZ    -425.8887   XYZZ      -5.6001   YYZZ    -120.8455
      XZZZ      -0.0000   YZZZ      -0.0000   ZZZZ    -139.0269
 -----------------------------------------------------------------
Archival summary:
1\1\nid01044\OPT\ProcedureUnspecified\BasisUnspecified\286\FriSep218:12:212016FriSep218:12:212016\0\\#,OPT,ProcedureUnspecified,BasisUnspecified,\\0,1\S\C,1,1.73469\H,2,1.08138,1,119.972\C,2,1.3702,1,111.608,3,179.957,0\H,4,1.084,2,123.347,1,179.958,0\C,4,1.4252,2,112.842,1,0.696782,0\H,6,1.0843,4,123.796,2,178.267,0\C,6,1.37954,4,113.472,2,-0.18784,0\C,8,1.45375,6,128.995,4,179.354,0\C,9,1.37954,8,128.995,6,-150,0\H,10,1.0843,9,122.712,8,0.880179,0\C,10,1.4252,9,113.472,8,179.354,0\H,12,1.084,10,123.806,9,-179.446,0\C,12,1.3702,10,112.842,9,-0.18784,0\H,14,1.08138,12,128.419,10,-179.35,0\S,14,1.73469,12,111.608,10,0.696782,0\\\@

 Total job time:  43.08s(wall), 48.35s(cpu) 
 Fri Sep  2 18:12:21 2016

        *************************************************************
        *                                                           *
        *  Thank you very much for using Q-Chem.  Have a nice day.  *
        *                                                           *
        *************************************************************


0 sent ACK to 0 
now end server 0 ... 
