srun -N 1 --ntasks-per-node 16 --nodelist nid01043 /global/project/projectdirs/jcesr/qchem/qc44/cnl_qc441/dist/exe/qcprog.cori.exe .pt_dft_-140.0.in.65300.qcin.1 /dev/shm/eg_qchem/qchem65300/
Process 0 of 16 is on nid01043 - thread support 0
Process 1 of 16 is on nid01043 - thread support 0
Process 2 of 16 is on nid01043 - thread support 0
Process 3 of 16 is on nid01043 - thread support 0
Process 4 of 16 is on nid01043 - thread support 0
Process 5 of 16 is on nid01043 - thread support 0
Process 6 of 16 is on nid01043 - thread support 0
initial socket setup ...start
Process 15 of 16 is on nid01043 - thread support 0
initial socket setup ...done 
now start server 0 ... 
nid01043 10.128.4
Q-Chem Developer Version! Running on 10.128.4.*
                  Welcome to Q-Chem
     A Quantum Leap Into The Future Of Chemistry


 Q-Chem 4.4, Q-Chem, Inc., Pleasanton, CA (2016)

 Y. Shao,  Z. Gan,  E. Epifanovsky,  A. T. B. Gilbert,  M. Wormit,  
 J. Kussmann,  A. W. Lange,  A. Behn,  J. Deng,  X. Feng,  D. Ghosh,  
 M. Goldey,  P. R. Horn,  L. D. Jacobson,  I. Kaliman,  F.Rob,  
 R. Z. Khaliullin,  T. Kus,  A. Landau,  J. Liu,  E. I. Proynov,  Y. M. Rhee,  
 R. M. Richard,  M. A. Rohrdanz,  R. P. Steele,  E. J. Sundstrom,  
 H. L. Woodcock III,  P. M. Zimmerman,  D. Zuev,  B. Albrecht,  E. Alguire,  
 B. Austin,  S. A. Baeppler,  G. J. O. Beran,  Y. A. Bernard,  E. Berquist,  
 K. Brandhorst,  K. B. Bravaya,  S. T. Brown,  D. Casanova,  C.-M. Chang,  
 Y. Chen,  S. H. Chien,  K. D. Closser,  M. P. Coons,  D. L. Crittenden,  
 S. Dasgupta,  M. Diedenhofen,  R. A. DiStasio Jr.,  H. Do,  A. D. Dutoi,  
 R. G. Edgar,  P.-T. Fang,  S. Fatehi,  Q. Feng,  L. Fusti-Molnar,  
 A. Ghysels,  A. Golubeva-Zadorozhnaya,  J. Gomes,  A. Gunina,  
 M. W. D. Hanson-Heine,  P. H. P. Harbach,  A. W. Hauser,  E. G. Hohenstein,  
 Z. C. Holden,  K. Hui,  T.-C. Jagau,  H. Ji,  B. Kaduk,  K. Khistyaev,  
 Jaehoon Kim,  Jihan Kim,  R. A. King,  P. Klunzinger,  D. Kosenkov,  
 T. Kowalczyk,  C. M. Krauter,  A. Kunitsa,  K. U. Lao,  A. Laurent,  
 K. V. Lawler,  D. Lefrancois,  S. Lehtola,  S. V. Levchenko,  C. Y. Lin,  
 Y.-S. Lin,  F. Liu,  E. Livshits,  R. C. Lochan,  A. Luenser,  P. Manohar,  
 S. F. Manzer,  S.-P. Mao,  Y. Mao,  N. Mardirossian,  A. V. Marenich,  
 L. A. Martinez-Martinez,  S. A. Maurer,  N. J. Mayhall,  J.-M. Mewes,  
 A. F. Morrison,  K. Nanda,  C. M. Oana,  R. Olivares-Amaya,  D. P. O'Neill,  
 J. A. Parkhill,  T. M. Perrine,  R. Peverati,  P. A. Pieniazek,  F. Plasser,  
 A. Prociuk,  D. R. Rehn,  E. Rosta,  N. J. Russ,  N. Sergueev,  
 S. M. Sharada,  S. Sharma,  D. W. Small,  A. Sodt,  T. Stauch,  T. Stein,  
 D. Stuck,  Y.-C. Su,  A. J. W. Thom,  T. Tsuchimochi,  L. Vogt,  O. Vydrov,  
 T. Wang,  M. A. Watson,  J. Wenzel,  A. White,  C. F. Williams,  
 V. Vanovschi,  S. Yeganeh,  S. R. Yost,  Z.-Q. You,  I. Y. Zhang,  X. Zhang,  
 Y. Zhao,  B. R. Brooks,  G. K. L. Chan,  D. M. Chipman,  C. J. Cramer,  
 W. A. Goddard III,  M. S. Gordon,  W. J. Hehre,  A. Klamt,  
 H. F. Schaefer III,  M. W. Schmidt,  C. D. Sherrill,  D. G. Truhlar,  
 A. Warshel,  X. Xu,  A. Aspuru-Guzik,  R. Baer,  A. T. Bell,  N. A. Besley,  
 J.-D. Chai,  A. Dreuw,  B. D. Dunietz,  T. R. Furlani,  S. R. Gwaltney,  
 C.-P. Hsu,  Y. Jung,  J. Kong,  D. S. Lambrecht,  W. Liang,  C. Ochsenfeld,  
 V. A. Rassolov,  L. V. Slipchenko,  J. E. Subotnik,  T. Van Voorhis,  
 J. M. Herbert,  A. I. Krylov,  P. M. W. Gill,  M. Head-Gordon

 Contributors to earlier versions of Q-Chem not listed above: 
 R. D. Adamson,  J. Baker,  E. F. C. Byrd,  A. K. Chakraborty,  C.-L. Cheng,  
 H. Dachsel,  R. J. Doerksen,  G. Hawkins,  A. Heyden,  S. Hirata,  
 G. Kedziora,  F. J. Keil,  C. Kelley,  P. P. Korambath,  W. Kurlancheek,  
 A. M. Lee,  M. S. Lee,  D. Liotard,  I. Lotan,  P. E. Maslen,  N. Nair,  
 D. Neuhauser,  R. Olson,  B. Peters,  J. Ritchie,  N. E. Schultz,  
 N. Shenvi,  A. C. Simmonett,  K. S. Thanthiriwatte,  Q. Wu,  W. Zhang

 Please cite Q-Chem as follows:
 Y. Shao et al., Mol. Phys. 113, 184-215 (2015)
 DOI: 10.1080/00268976.2014.952696

 Q-Chem 4.4.1 for Intel X86 EM64T Linux

 Parts of Q-Chem use Armadillo 5.200.1 (Boston Tea Smuggler).
 http://arma.sourceforge.net/

 Q-Chem begins on Fri Sep  2 18:57:23 2016  

Host: nid01043
0

     Scratch files written to /dev/shm/eg_qchem/qchem65300.0//
 Parallel job on  16  processors

Checking the input file for inconsistencies... 	...done.

--------------------------------------------------------------
User input:
--------------------------------------------------------------
$comment
<SCF Fix Strategy>{
    "current_method_id": 0, 
    "methods": [
        "increase_iter", 
        "rca_diis", 
        "gwh", 
        "gdm", 
        "rca", 
        "core+rca", 
        "fon"
    ], 
    "version": 2.0
}</SCF Fix Strategy>
$end


$molecule
 0  1
 S           1.82267924       -1.19997629        0.28714109
 C           3.20006180       -0.17260711        0.06528466
 C           2.82980603        1.10216298       -0.25610036
 C           1.41909100        1.26345446       -0.34254814
 C           0.71738150        0.10901545       -0.08456145
 H           0.93627498        2.19419272       -0.61095402
 C          -0.71741859       -0.10899254       -0.08455524
 S          -1.73741424        0.63856867       -1.29866650
 C          -1.48044346       -0.85987328        0.77895727
 C          -3.15982414       -0.09244534       -0.63213887
 C          -2.86833709       -0.84878500        0.46713461
 H          -3.61608314       -1.38990488        1.03173975
 H           4.19429620       -0.57452886        0.18632814
 H           3.53860725        1.89960515       -0.43610218
 H          -4.11959609        0.08265599       -1.09351938
 H          -1.05343404       -1.42331042        1.59848657
$end


$rem
         jobtype = opt
        exchange = b3lyp
           basis = 6-31++g**
  max_scf_cycles = 200
      mem_static = 100
       mem_total = 1500
   scf_algorithm = diis
       scf_guess = sad
$end


$opt
CONSTRAINT
tors 4 5 7 9 -140.0
ENDCONSTRAINT
$end

--------------------------------------------------------------
 Atom   8: ( -1.8206662211,  1.1521713965, -0.3850204591)
         ->( -1.8206663749,  1.1521714153, -0.3850205595)
 Atom  10: ( -3.1964597795,  0.1337480819, -0.1168851856)
         ->( -3.1964597816,  0.1337479822, -0.1168850765)
 Atom  11: ( -2.8284887510, -1.0950695125,  0.3521789969)
         ->( -2.8284886281, -1.0950694766,  0.3521792387)
 Atom   9: ( -1.4195181799, -1.2362714422,  0.4880796751)
         ->( -1.4195180083, -1.2362715165,  0.4880793222)
 Atom   7: ( -0.7169966892, -0.1116265956,  0.1229492643)
         ->( -0.7169966379, -0.1116264444,  0.1229492517)
 Atom  16: ( -0.9363079782, -2.1459384912,  0.8204055544)
         ->( -0.9363076920, -2.1459386302,  0.8204048654)
 Atom  14: (  3.5368104371,  1.8794224783,  0.5840939274)
         ->(  3.5368106482,  1.8794224890,  0.5840935115)
 Atom  15: ( -4.1881996905,  0.5066159536, -0.3221073725)
         ->( -4.1881997880,  0.5066157018, -0.3221071092)
 ----------------------------------------------------------------
             Standard Nuclear Orientation (Angstroms)
    I     Atom           X                Y                Z
 ----------------------------------------------------------------
    1      S       1.8206663749    -1.1521714153    -0.3850205595
    2      C       3.1964597816    -0.1337479822    -0.1168850765
    3      C       2.8284886281     1.0950694766     0.3521792387
    4      C       1.4195180083     1.2362715165     0.4880793222
    5      C       0.7169966379     0.1116264444     0.1229492517
    6      H       0.9363076920     2.1459386302     0.8204048654
    7      C      -0.7169966379    -0.1116264444     0.1229492517
    8      S      -1.8206663749     1.1521714153    -0.3850205595
    9      C      -1.4195180083    -1.2362715165     0.4880793222
   10      C      -3.1964597816     0.1337479822    -0.1168850765
   11      C      -2.8284886281    -1.0950694766     0.3521792387
   12      H      -3.5368106482    -1.8794224890     0.5840935115
   13      H       4.1881997880    -0.5066157018    -0.3221071092
   14      H       3.5368106482     1.8794224890     0.5840935115
   15      H      -4.1881997880     0.5066157018    -0.3221071092
   16      H      -0.9363076920    -2.1459386302     0.8204048654
 ----------------------------------------------------------------
 Molecular Point Group                 C2    NOp =  2
 Largest Abelian Subgroup              C2    NOp =  2
 Nuclear Repulsion Energy =   629.8382733733 hartrees
 There are       43 alpha and       43 beta electrons
 Requested basis set is 6-31++G(d,p)
 There are 76 shells and 234 basis functions

 Total QAlloc Memory Limit   1500 MB
 Mega-Array Size        98 MB
 MEM_STATIC part       100 MB
 A cutoff of  1.0D-11 yielded   2495 shell pairs
 There are     24643 function pairs
 
 -------------------------------------------------------
 OpenMP Integral Computing Module                       
 Release: version 1.0, May 2013, Q-Chem Inc. Pittsburgh 
 -------------------------------------------------------
 Integral Job Info:
 Integral job number is                      11
 Integral operator is                         1
 short-range coefficients                     0
 long-range coefficients              100000000
 Omega coefficients                           0
 if combine SR and LR in K                    0
 Integral screening is                        0
 Integral computing path is                   2
 max size of driver memory is            800000
 size of driver memory is                593474
 size of scratch memory is             15166112
 max col of scratch BK array               1296
 max len of scratch array in speh3          155
 max len of scratch index in speh4           18
 max int batch size is                      520
 min int batch size is                       52
 fixed nKL is                                52
 max L of basis functions is                  2
 order of int derivative is                   0
 number of shells is                         76
 number of basis is                         234
 number of cartesian basis is               234
 number of contracted shell pairs          2495
 number of primitive shell pairs           8070
 maxK2 (contraction) of shell pair           36
 max number of K2 of shell pair               1
 max number of CS2 of shell pair            262
 max number of PS2 of shell pair           1536
 mem total for path MDJ                   51992
 -------------------------------------------------------
 Smallest overlap matrix eigenvalue = 1.05E-06

 Q-Chem warning in module /project/projectdirs/jcesr/qchem/qc44/cnl_qc441/compile/cori/qc_src/stvman/mkSTV.C, line 257:

 Overlap eigenvalue is smaller than square root of threshold


 Scale SEOQF with 1.000000e-01/1.000000e-01/1.000000e-01

 Standard Electronic Orientation quadrupole field applied
 Nucleus-field energy     =     0.0000000202 hartrees
 Guess from superposition of atomic densities
 Warning:  Energy on first SCF cycle will be non-variational
 A restricted hybrid HF-DFT SCF calculation will be
 performed using Pulay DIIS extrapolation
 Exchange:     0.2000 Hartree-Fock + 0.0800 Slater + 0.7200 B88
 Correlation:  0.1900 VWN1RPA + 0.8100 LYP
 Using SG-1 standard quadrature grid
 SCF converges when DIIS error is below 1.0E-08
 ---------------------------------------
  Cycle       Energy         DIIS Error
 ---------------------------------------
    1   -1107.2281819682      4.44E-02
    2   -1120.2006857222      2.06E-01
    3   -1165.6532977386      2.08E-01
    4   -1137.3630156537      7.63E-02
    5   -1097.3489940551      1.79E-01
    6   -1098.1913992158      1.72E-01
    7   -1085.6892073441      1.92E-01
    8   -1092.7626876141      1.84E-01
    9   -1111.6844902082      2.22E-01
   10   -1145.4395499449      1.67E-01
   11   -1029.5533039764      1.32E-01
   12   -2626.4723326599      5.72E+00
   13   -1192.2407530476      4.27E-01
   14   -1186.7658012024      3.50E-01
   15   -1502.2563738806      1.30E+00
   16   -1487.3411015165      1.25E+00
   17   -2694.0494715876      3.86E+00
   18   -1069.2358675917      1.76E-01
   19   -1075.6502185071      5.36E-02
   20   -1102.7094704581      2.75E-01
   21   -1052.0753791346      8.14E-01
   22   -1117.6709521133      6.10E-01
   23   -1144.9950492291      1.81E-01
   24   -1068.4742831492      2.60E-01
   25   -1102.7525954504      1.64E-01
   26   -1100.3118779045      1.05E-01
   27   -1085.7859625989      2.39E-01
   28   -1072.9552175718      2.35E-01
   29   -1043.0773126292      2.60E-01
   30   -1048.7620694182      2.33E-01
   31   -1010.3761812255      4.58E-01
   32    -971.3714692234      7.99E-01
   33    -969.8335871648      1.08E+00
   34   -1022.7859789397      6.58E-01
   35   -1130.1959969856      1.80E-01
   36   -1126.8048195875      1.35E-01
   37   -1125.5190980783      1.66E-01
   38   -1113.4281465991      1.11E-01
   39   -1113.8191571761      1.16E-01
   40   -1112.0783537744      1.07E-01
   41   -1104.5919998064      7.48E-02
   42   -1098.1875709067      2.07E-02
   43   -1101.9219768394      1.85E-02
   44   -1104.5914446291      5.81E-03
   45   -1104.6914249108      4.60E-03
   46   -1104.8321701307      1.00E-03
   47   -1104.8392207609      3.06E-04
   48   -1104.8398471099      1.29E-04
   49   -1104.8399720360      2.27E-05
   50   -1104.8399732106      7.61E-06
   51   -1104.8399731561      1.91E-06
   52   -1104.8399745960      3.39E-07
   53   -1104.8399759943      1.34E-07
   54   -1104.8399756450      4.98E-08
   55   -1104.8399752860      1.47E-07
   56   -1104.8399752257      1.14E-07
   57   -1104.8399756105      6.87E-08
   58   -1104.8399755924      6.45E-08
   59   -1104.8399754771      7.11E-08
   60   -1104.8399755028      6.90E-08
   61   -1104.8399745539      2.04E-07
   62   -1104.8399747963      2.16E-07
   63   -1104.8399745223      2.08E-07
   64   -1104.8399745459      1.92E-07
   65   -1104.8399742162      2.15E-07
   66   -1104.8399740364      2.62E-07
   67   -1104.8399740967      2.49E-07
   68   -1104.8399749495      7.54E-08
   69   -1104.8399749803      5.45E-08
   70   -1104.8399745756      5.96E-08
   71   -1104.8399746076      4.87E-08
   72   -1104.8399745186      5.39E-08
   73   -1104.8399748293      2.17E-08
   74   -1104.8399748915      2.30E-08
   75   -1104.8399747923      1.91E-08
   76   -1104.8399748113      1.62E-08
   77   -1104.8399748738      2.63E-08
   78   -1104.8399749461      6.07E-08
   79   -1104.8399749469      2.63E-08
   80   -1104.8399747259      3.93E-08
   81   -1104.8399748929      2.24E-09 Convergence criterion met
 ---------------------------------------
 SCF time:  CPU 34.33 s  wall 29.12 s
 SCF   energy in the final basis set = -1104.8399748929
 Total energy in the final basis set = -1104.8399748929
 
 --------------------------------------------------------------
             Orbital Energies (a.u.) and Symmetries
 --------------------------------------------------------------
 
 Alpha MOs, Restricted
 -- Occupied --                  
-88.919 -88.919 -10.237 -10.237 -10.224 -10.224 -10.203 -10.203
  1 B     1 A     2 A     2 B     3 B     3 A     4 B     4 A                  
-10.202 -10.202  -7.979  -7.979  -5.943  -5.943  -5.939  -5.939
  5 B     5 A     6 B     6 A     7 A     7 B     8 B     8 A                  
 -5.936  -5.936  -0.901  -0.879  -0.772  -0.748  -0.738  -0.706
  9 B     9 A    10 A    10 B    11 A    11 B    12 A    12 B                  
 -0.604  -0.578  -0.555  -0.535  -0.526  -0.478  -0.419  -0.418
 13 A    13 B    14 A    14 B    15 A    15 B    16 B    16 A                  
 -0.410  -0.405  -0.399  -0.377  -0.375  -0.356  -0.346  -0.274
 17 A    17 B    18 A    19 A    18 B    19 B    20 A    21 A                  
 -0.262  -0.261  -0.218
 20 B    22 A    21 B                                                          
 -- Virtual --                   
 -0.051  -0.010  -0.006  -0.003   0.007   0.010   0.017   0.022
 23 A    22 B    24 A    23 B    25 A    24 B    25 B    26 A                  
  0.030   0.036   0.038   0.046   0.046   0.055   0.058   0.062
 27 A    28 A    26 B    27 B    29 A    30 A    28 B    29 B                  
  0.071   0.079   0.091   0.094   0.102   0.102   0.106   0.109
 30 B    31 A    31 B    32 A    33 A    32 B    34 A    35 A                  
  0.121   0.123   0.130   0.132   0.134   0.136   0.137   0.138
 33 B    34 B    36 A    37 A    35 B    36 B    38 A    37 B                  
  0.150   0.151   0.161   0.165   0.166   0.175   0.177   0.179
 39 A    38 B    40 A    41 A    39 B    40 B    41 B    42 A                  
  0.186   0.190   0.205   0.209   0.210   0.224   0.224   0.231
 43 A    42 B    43 B    44 A    44 B    45 B    45 A    46 A                  
  0.237   0.246   0.260   0.269   0.274   0.276   0.283   0.288
 46 B    47 A    47 B    48 A    48 B    49 A    49 B    50 A                  
  0.313   0.318   0.327   0.340   0.355   0.358   0.379   0.390
 50 B    51 A    51 B    52 A    52 B    53 A    53 B    54 A                  
  0.434   0.457   0.466   0.517   0.523   0.539   0.541   0.569
 54 B    55 B    55 A    56 A    56 B    57 A    57 B    58 B                  
  0.582   0.605   0.614   0.626   0.651   0.659   0.667   0.681
 58 A    59 A    59 B    60 A    60 B    61 B    61 A    62 A                  
  0.694   0.699   0.720   0.728   0.734   0.744   0.756   0.772
 62 B    63 A    63 B    64 A    64 B    65 B    65 A    66 A                  
  0.786   0.813   0.813   0.832   0.837   0.872   0.917   0.942
 66 B    67 B    67 A    68 B    68 A    69 A    69 B    70 A                  
  0.951   0.954   0.957   0.965   0.969   0.989   1.003   1.014
 70 B    71 B    71 A    72 A    72 B    73 A    73 B    74 B                  
  1.019   1.033   1.050   1.069   1.087   1.097   1.115   1.117
 75 B    74 A    75 A    76 A    77 A    76 B    78 A    77 B                  
  1.148   1.178   1.192   1.220   1.253   1.274   1.317   1.348
 78 B    79 A    80 A    79 B    81 A    80 B    81 B    82 B                  
  1.348   1.355   1.362   1.378   1.451   1.470   1.507   1.532
 82 A    83 A    83 B    84 A    85 A    84 B    85 B    86 B                  
  1.568   1.689   1.695   1.749   1.803   1.867   1.872   1.892
 86 A    87 A    87 B    88 A    89 A    88 B    90 A    89 B                  
  1.920   1.926   1.955   1.983   2.008   2.048   2.080   2.100
 90 B    91 A    92 A    91 B    93 A    92 B    94 A    93 B                  
  2.112   2.155   2.181   2.186   2.240   2.247   2.262   2.342
 94 B    95 A    96 A    95 B    96 B    97 A    97 B    98 A                  
  2.367   2.370   2.422   2.447   2.468   2.471   2.496   2.512
 98 B    99 A    99 B   100 A   100 B   101 A   101 B   102 A                  
  2.527   2.529   2.586   2.591   2.602   2.662   2.700   2.719
103 A   102 B   103 B   104 A   104 B   105 A   106 A   105 B                  
  2.752   2.860   2.867   2.916   2.935   3.156   3.204   3.275
106 B   107 A   107 B   108 A   108 B   109 B   109 A   110 B                  
  3.277   3.408   3.433   3.728   3.751   3.974   3.976   4.255
110 A   111 A   111 B   112 A   112 B   113 B   113 A   114 A                  
  4.307   4.319   4.334   4.419   4.539   4.660   4.718
115 A   114 B   115 B   116 A   116 B   117 A   117 B                          
 
 Beta MOs, Restricted
 -- Occupied --                  
-88.919 -88.919 -10.237 -10.237 -10.224 -10.224 -10.203 -10.203
  1 B     1 A     2 A     2 B     3 B     3 A     4 B     4 A                  
-10.202 -10.202  -7.979  -7.979  -5.943  -5.943  -5.939  -5.939
  5 B     5 A     6 B     6 A     7 A     7 B     8 B     8 A                  
 -5.936  -5.936  -0.901  -0.879  -0.772  -0.748  -0.738  -0.706
  9 B     9 A    10 A    10 B    11 A    11 B    12 A    12 B                  
 -0.604  -0.578  -0.555  -0.535  -0.526  -0.478  -0.419  -0.418
 13 A    13 B    14 A    14 B    15 A    15 B    16 B    16 A                  
 -0.410  -0.405  -0.399  -0.377  -0.375  -0.356  -0.346  -0.274
 17 A    17 B    18 A    19 A    18 B    19 B    20 A    21 A                  
 -0.262  -0.261  -0.218
 20 B    22 A    21 B                                                          
 -- Virtual --                   
 -0.051  -0.010  -0.006  -0.003   0.007   0.010   0.017   0.022
 23 A    22 B    24 A    23 B    25 A    24 B    25 B    26 A                  
  0.030   0.036   0.038   0.046   0.046   0.055   0.058   0.062
 27 A    28 A    26 B    27 B    29 A    30 A    28 B    29 B                  
  0.071   0.079   0.091   0.094   0.102   0.102   0.106   0.109
 30 B    31 A    31 B    32 A    33 A    32 B    34 A    35 A                  
  0.121   0.123   0.130   0.132   0.134   0.136   0.137   0.138
 33 B    34 B    36 A    37 A    35 B    36 B    38 A    37 B                  
  0.150   0.151   0.161   0.165   0.166   0.175   0.177   0.179
 39 A    38 B    40 A    41 A    39 B    40 B    41 B    42 A                  
  0.186   0.190   0.205   0.209   0.210   0.224   0.224   0.231
 43 A    42 B    43 B    44 A    44 B    45 B    45 A    46 A                  
  0.237   0.246   0.260   0.269   0.274   0.276   0.283   0.288
 46 B    47 A    47 B    48 A    48 B    49 A    49 B    50 A                  
  0.313   0.318   0.327   0.340   0.355   0.358   0.379   0.390
 50 B    51 A    51 B    52 A    52 B    53 A    53 B    54 A                  
  0.434   0.457   0.466   0.517   0.523   0.539   0.541   0.569
 54 B    55 B    55 A    56 A    56 B    57 A    57 B    58 B                  
  0.582   0.605   0.614   0.626   0.651   0.659   0.667   0.681
 58 A    59 A    59 B    60 A    60 B    61 B    61 A    62 A                  
  0.694   0.699   0.720   0.728   0.734   0.744   0.756   0.772
 62 B    63 A    63 B    64 A    64 B    65 B    65 A    66 A                  
  0.786   0.813   0.813   0.832   0.837   0.872   0.917   0.942
 66 B    67 B    67 A    68 B    68 A    69 A    69 B    70 A                  
  0.951   0.954   0.957   0.965   0.969   0.989   1.003   1.014
 70 B    71 B    71 A    72 A    72 B    73 A    73 B    74 B                  
  1.019   1.033   1.050   1.069   1.087   1.097   1.115   1.117
 75 B    74 A    75 A    76 A    77 A    76 B    78 A    77 B                  
  1.148   1.178   1.192   1.220   1.253   1.274   1.317   1.348
 78 B    79 A    80 A    79 B    81 A    80 B    81 B    82 B                  
  1.348   1.355   1.362   1.378   1.451   1.470   1.507   1.532
 82 A    83 A    83 B    84 A    85 A    84 B    85 B    86 B                  
  1.568   1.689   1.695   1.749   1.803   1.867   1.872   1.892
 86 A    87 A    87 B    88 A    89 A    88 B    90 A    89 B                  
  1.920   1.926   1.955   1.983   2.008   2.048   2.080   2.100
 90 B    91 A    92 A    91 B    93 A    92 B    94 A    93 B                  
  2.112   2.155   2.181   2.186   2.240   2.247   2.262   2.342
 94 B    95 A    96 A    95 B    96 B    97 A    97 B    98 A                  
  2.367   2.370   2.422   2.447   2.468   2.471   2.496   2.512
 98 B    99 A    99 B   100 A   100 B   101 A   101 B   102 A                  
  2.527   2.529   2.586   2.591   2.602   2.662   2.700   2.719
103 A   102 B   103 B   104 A   104 B   105 A   106 A   105 B                  
  2.752   2.860   2.867   2.916   2.935   3.156   3.204   3.275
106 B   107 A   107 B   108 A   108 B   109 B   109 A   110 B                  
  3.277   3.408   3.433   3.728   3.751   3.974   3.976   4.255
110 A   111 A   111 B   112 A   112 B   113 B   113 A   114 A                  
  4.307   4.319   4.334   4.419   4.539   4.660   4.718
115 A   114 B   115 B   116 A   116 B   117 A   117 B                          
 --------------------------------------------------------------
 
          Ground-State Mulliken Net Atomic Charges

     Atom                 Charge (a.u.)
  ----------------------------------------
      1 S                    -0.018040
      2 C                    -0.032133
      3 C                    -0.411845
      4 C                     0.272716
      5 C                    -0.244233
      6 H                     0.131291
      7 C                    -0.244233
      8 S                    -0.018040
      9 C                     0.272716
     10 C                    -0.032133
     11 C                    -0.411845
     12 H                     0.114477
     13 H                     0.187766
     14 H                     0.114477
     15 H                     0.187766
     16 H                     0.131291
  ----------------------------------------
  Sum of atomic charges =    -0.000000

 -----------------------------------------------------------------
                    Cartesian Multipole Moments
 -----------------------------------------------------------------
    Charge (ESU x 10^10)
                -0.0000
    Dipole Moment (Debye)
         X       0.0000      Y      -0.0000      Z       0.2951
       Tot       0.2951
    Quadrupole Moments (Debye-Ang)
        XX     -61.2111     XY       1.6320     YY     -69.1431
        XZ       0.0000     YZ      -0.0000     ZZ     -77.5393
    Octopole Moments (Debye-Ang^2)
       XXX       0.0000    XXY      -0.0000    XYY       0.0000
       YYY      -0.0000    XXZ      -5.6336    XYZ       8.4387
       YYZ       5.1136    XZZ       0.0000    YZZ      -0.0000
       ZZZ      -3.1943
    Hexadecapole Moments (Debye-Ang^3)
      XXXX   -1883.4410   XXXY     -17.4803   XXYY    -418.7762
      XYYY      13.9470   YYYY    -522.0761   XXXZ       0.0000
      XXYZ      -0.0000   XYYZ       0.0000   YYYZ      -0.0000
      XXZZ    -422.0465   XYZZ      -4.7370   YYZZ    -117.2631
      XZZZ       0.0000   YZZZ      -0.0000   ZZZZ    -164.0081
 -----------------------------------------------------------------
 Calculating analytic gradient of the SCF energy
 Gradient of SCF Energy
            1           2           3           4           5           6
    1   0.0005182  -0.0004733  -0.0007947   0.0005280  -0.0014517   0.0008109
    2   0.0009103   0.0038825  -0.0032342  -0.0033804   0.0023874  -0.0005880
    3   0.0017958  -0.0005492   0.0007896   0.0025141  -0.0015767  -0.0019824
            7           8           9          10          11          12
    1   0.0014517  -0.0005182  -0.0005280   0.0004733   0.0007947   0.0009702
    2  -0.0023874  -0.0009103   0.0033804  -0.0038825   0.0032342   0.0010770
    3  -0.0015767   0.0017958   0.0025141  -0.0005492   0.0007896  -0.0004531
           13          14          15          16
    1  -0.0016824  -0.0009702   0.0016824  -0.0008109
    2   0.0005623  -0.0010770  -0.0005623   0.0005880
    3  -0.0005381  -0.0004531  -0.0005381  -0.0019824
 Max gradient component =       3.883E-03
 RMS gradient           =       1.716E-03
 Gradient time:  CPU 1.99 s  wall 1.92 s
 Geometry Optimization Parameters
   NAtoms,    NIC,     NZ,  NCons,   NDum,   NFix, NCnnct, MaxDiis
       16     111       0       1       0       0       0       0


** CONSTRAINED OPTIMIZATION IN DELOCALIZED INTERNAL COORDINATES **
   Searching for a Minimum

   Optimization Cycle:   1

                       Coordinates (Angstroms)
     ATOM                X               Y               Z
      1  S         1.8206663749   -1.1521714153   -0.3850205595
      2  C         3.1964597816   -0.1337479822   -0.1168850765
      3  C         2.8284886281    1.0950694766    0.3521792387
      4  C         1.4195180083    1.2362715165    0.4880793222
      5  C         0.7169966379    0.1116264444    0.1229492517
      6  H         0.9363076920    2.1459386302    0.8204048654
      7  C        -0.7169966379   -0.1116264444    0.1229492517
      8  S        -1.8206663749    1.1521714153   -0.3850205595
      9  C        -1.4195180083   -1.2362715165    0.4880793222
     10  C        -3.1964597816    0.1337479822   -0.1168850765
     11  C        -2.8284886281   -1.0950694766    0.3521792387
     12  H        -3.5368106482   -1.8794224890    0.5840935115
     13  H         4.1881997880   -0.5066157018   -0.3221071092
     14  H         3.5368106482    1.8794224890    0.5840935115
     15  H        -4.1881997880    0.5066157018   -0.3221071092
     16  H        -0.9363076920   -2.1459386302    0.8204048654
   Point Group: c2    Number of degrees of freedom:    22


   Energy is  -1104.839974893

              Constraints and their Current Values
                                        Value     Constraint
   Dihedral:        4   5   7   9     -140.000     -140.000

 Attempting to Generate Delocalized Internal Coordinates

 21 Hessian modes will be used to form the next step
  Hessian Eigenvalues:
     0.045000    0.045000    0.045000    0.045002    0.045004    0.045013
     0.159937    0.159990    0.160000    0.221280    0.237833    0.249997
     0.296078    0.314672    0.357149    0.357543    0.360899    0.380793
     0.408411    0.470750    0.505998

 Minimum Search - Taking Simple RFO Step
 Searching for Lamda that Minimizes Along All modes
 Value Taken    Lamda =  -0.00070534
 Step Taken.  Stepsize is  0.101728

                             Maximum     Tolerance    Cnvgd?
         Gradient           0.005710      0.000300      NO
         Displacement       0.071273      0.001200      NO
         Energy change     *********      0.000001      NO


 New Cartesian Coordinates Obtained by Inverse Iteration

 Displacement from previous Coordinates is:  0.188575
 ----------------------------------------------------------------
             Standard Nuclear Orientation (Angstroms)
    I     Atom           X                Y                Z
 ----------------------------------------------------------------
    1      S       1.8278420680    -1.1491395086    -0.4025775728
    2      C       3.2052135941    -0.1396226740    -0.0984774157
    3      C       2.8326521896     1.1010158831     0.3487760785
    4      C       1.4187731747     1.2449495542     0.4672313076
    5      C       0.7190414926     0.1144983666     0.1009505626
    6      H       0.9302188752     2.1515223646     0.8071707349
    7      C      -0.7190414926    -0.1144983666     0.1009505626
    8      S      -1.8278420680     1.1491395086    -0.4025775728
    9      C      -1.4187731747    -1.2449495542     0.4672313076
   10      C      -3.2052135941     0.1396226740    -0.0984774157
   11      C      -2.8326521896    -1.1010158831     0.3487760785
   12      H      -3.5412424706    -1.8839568890     0.5946556262
   13      H       4.2023382788    -0.5201448004    -0.2740358771
   14      H       3.5412424706     1.8839568890     0.5946556262
   15      H      -4.2023382788     0.5201448004    -0.2740358771
   16      H      -0.9302188752    -2.1515223646     0.8071707349
 ----------------------------------------------------------------
 Molecular Point Group                 C2    NOp =  2
 Largest Abelian Subgroup              C2    NOp =  2
 Nuclear Repulsion Energy =   628.5157462070 hartrees
 There are       43 alpha and       43 beta electrons
 Applying Cartesian multipole field
    Component          Value
    ---------          -----
     (2,0,0)        1.00000E-11
     (0,2,0)        2.00000E-11
     (0,0,2)       -3.00000E-11
 Nucleus-field energy     =     0.0000000203 hartrees
 Requested basis set is 6-31++G(d,p)
 There are 76 shells and 234 basis functions
 A cutoff of  1.0D-11 yielded   2493 shell pairs
 There are     24631 function pairs
 Smallest overlap matrix eigenvalue = 1.05E-06

 Q-Chem warning in module /project/projectdirs/jcesr/qchem/qc44/cnl_qc441/compile/cori/qc_src/stvman/mkSTV.C, line 257:

 Overlap eigenvalue is smaller than square root of threshold

 Guess MOs from SCF MO coefficient file
 Reading MOs from coefficient file
 Reading MOs from coefficient file
 A restricted hybrid HF-DFT SCF calculation will be
 performed using Pulay DIIS extrapolation
 Exchange:     0.2000 Hartree-Fock + 0.0800 Slater + 0.7200 B88
 Correlation:  0.1900 VWN1RPA + 0.8100 LYP
 Using SG-1 standard quadrature grid
 SCF converges when DIIS error is below 1.0E-08
 Geometry optimization detected.  Setting ReadMinima to 0
 Setting SaveMinima to 0
 ---------------------------------------
  Cycle       Energy         DIIS Error
 ---------------------------------------
    1   -1104.8185310327      7.15E-04
    2   -1104.8402160117      1.30E-04
    3   -1104.8398174830      2.63E-04
    4   -1104.8403668310      3.43E-05
    5   -1104.8403744198      1.14E-05
    6   -1104.8403752831      4.66E-06
    7   -1104.8403754464      1.51E-06
    8   -1104.8403754617      4.24E-07
    9   -1104.8403754626      7.55E-08
   10   -1104.8403754643      3.48E-08
   11   -1104.8403754633      6.29E-09 Convergence criterion met
 ---------------------------------------
 SCF time:  CPU 5.89 s  wall 5.18 s
 SCF   energy in the final basis set = -1104.8403754633
 Total energy in the final basis set = -1104.8403754633
 
 --------------------------------------------------------------
             Orbital Energies (a.u.) and Symmetries
 --------------------------------------------------------------
 
 Alpha MOs, Restricted
 -- Occupied --                  
-88.920 -88.920 -10.238 -10.238 -10.225 -10.225 -10.204 -10.204
  1 B     1 A     2 A     2 B     3 B     3 A     4 B     4 A                  
-10.203 -10.203  -7.979  -7.979  -5.943  -5.943  -5.940  -5.940
  5 B     5 A     6 B     6 A     7 A     7 B     8 B     8 A                  
 -5.936  -5.936  -0.900  -0.878  -0.771  -0.747  -0.738  -0.705
  9 B     9 A    10 A    10 B    11 A    11 B    12 A    12 B                  
 -0.603  -0.578  -0.554  -0.534  -0.525  -0.478  -0.419  -0.418
 13 A    13 B    14 A    14 B    15 A    15 B    16 B    16 A                  
 -0.409  -0.405  -0.399  -0.377  -0.374  -0.356  -0.346  -0.274
 17 A    17 B    18 A    19 A    18 B    19 B    20 A    21 A                  
 -0.262  -0.261  -0.218
 20 B    22 A    21 B                                                          
 -- Virtual --                   
 -0.052  -0.010  -0.006  -0.003   0.007   0.009   0.017   0.022
 23 A    22 B    24 A    23 B    25 A    24 B    25 B    26 A                  
  0.030   0.035   0.038   0.045   0.046   0.055   0.058   0.062
 27 A    28 A    26 B    27 B    29 A    30 A    28 B    29 B                  
  0.071   0.079   0.091   0.094   0.102   0.102   0.106   0.109
 30 B    31 A    31 B    32 A    32 B    33 A    34 A    35 A                  
  0.121   0.122   0.130   0.132   0.134   0.135   0.137   0.137
 33 B    34 B    36 A    37 A    35 B    36 B    38 A    37 B                  
  0.149   0.151   0.161   0.164   0.165   0.174   0.177   0.178
 39 A    38 B    40 A    41 A    39 B    40 B    41 B    42 A                  
  0.186   0.190   0.205   0.207   0.209   0.224   0.224   0.230
 43 A    42 B    43 B    44 A    44 B    45 B    45 A    46 A                  
  0.236   0.246   0.259   0.268   0.272   0.276   0.281   0.287
 46 B    47 A    47 B    48 A    48 B    49 A    49 B    50 A                  
  0.312   0.317   0.325   0.340   0.354   0.357   0.378   0.387
 50 B    51 A    51 B    52 A    52 B    53 A    53 B    54 A                  
  0.433   0.456   0.465   0.516   0.522   0.537   0.540   0.567
 54 B    55 B    55 A    56 A    56 B    57 A    57 B    58 B                  
  0.581   0.601   0.614   0.626   0.651   0.657   0.668   0.679
 58 A    59 A    59 B    60 A    60 B    61 B    61 A    62 A                  
  0.695   0.699   0.720   0.727   0.732   0.743   0.757   0.771
 62 B    63 A    63 B    64 A    64 B    65 B    65 A    66 A                  
  0.785   0.813   0.813   0.832   0.836   0.870   0.916   0.942
 66 B    67 A    67 B    68 B    68 A    69 A    69 B    70 A                  
  0.950   0.955   0.958   0.962   0.968   0.989   1.001   1.014
 70 B    71 B    71 A    72 A    72 B    73 A    73 B    74 B                  
  1.018   1.031   1.051   1.066   1.086   1.095   1.115   1.115
 75 B    74 A    75 A    76 A    77 A    76 B    78 A    77 B                  
  1.148   1.177   1.192   1.219   1.249   1.270   1.319   1.346
 78 B    79 A    80 A    79 B    81 A    80 B    81 B    82 A                  
  1.346   1.351   1.362   1.379   1.454   1.468   1.501   1.531
 82 B    83 A    83 B    84 A    85 A    84 B    85 B    86 B                  
  1.563   1.686   1.694   1.746   1.799   1.864   1.869   1.888
 86 A    87 A    87 B    88 A    89 A    88 B    90 A    89 B                  
  1.918   1.921   1.950   1.980   2.005   2.042   2.077   2.096
 90 B    91 A    92 A    91 B    93 A    92 B    94 A    93 B                  
  2.111   2.152   2.176   2.183   2.236   2.243   2.258   2.334
 94 B    95 A    96 A    95 B    96 B    97 A    97 B    98 A                  
  2.365   2.368   2.421   2.446   2.459   2.467   2.494   2.507
 98 B    99 A    99 B   100 A   100 B   101 A   101 B   102 A                  
  2.524   2.529   2.581   2.585   2.598   2.657   2.693   2.715
103 A   102 B   103 B   104 A   104 B   105 A   106 A   105 B                  
  2.745   2.851   2.860   2.909   2.930   3.147   3.196   3.269
106 B   107 A   107 B   108 A   108 B   109 B   109 A   110 B                  
  3.271   3.402   3.426   3.720   3.742   3.974   3.974   4.252
110 A   111 A   111 B   112 A   112 B   113 B   113 A   114 A                  
  4.305   4.318   4.330   4.417   4.537   4.656   4.712
115 A   114 B   115 B   116 A   116 B   117 A   117 B                          
 
 Beta MOs, Restricted
 -- Occupied --                  
-88.920 -88.920 -10.238 -10.238 -10.225 -10.225 -10.204 -10.204
  1 B     1 A     2 A     2 B     3 B     3 A     4 B     4 A                  
-10.203 -10.203  -7.979  -7.979  -5.943  -5.943  -5.940  -5.940
  5 B     5 A     6 B     6 A     7 A     7 B     8 B     8 A                  
 -5.936  -5.936  -0.900  -0.878  -0.771  -0.747  -0.738  -0.705
  9 B     9 A    10 A    10 B    11 A    11 B    12 A    12 B                  
 -0.603  -0.578  -0.554  -0.534  -0.525  -0.478  -0.419  -0.418
 13 A    13 B    14 A    14 B    15 A    15 B    16 B    16 A                  
 -0.409  -0.405  -0.399  -0.377  -0.374  -0.356  -0.346  -0.274
 17 A    17 B    18 A    19 A    18 B    19 B    20 A    21 A                  
 -0.262  -0.261  -0.218
 20 B    22 A    21 B                                                          
 -- Virtual --                   
 -0.052  -0.010  -0.006  -0.003   0.007   0.009   0.017   0.022
 23 A    22 B    24 A    23 B    25 A    24 B    25 B    26 A                  
  0.030   0.035   0.038   0.045   0.046   0.055   0.058   0.062
 27 A    28 A    26 B    27 B    29 A    30 A    28 B    29 B                  
  0.071   0.079   0.091   0.094   0.102   0.102   0.106   0.109
 30 B    31 A    31 B    32 A    32 B    33 A    34 A    35 A                  
  0.121   0.122   0.130   0.132   0.134   0.135   0.137   0.137
 33 B    34 B    36 A    37 A    35 B    36 B    38 A    37 B                  
  0.149   0.151   0.161   0.164   0.165   0.174   0.177   0.178
 39 A    38 B    40 A    41 A    39 B    40 B    41 B    42 A                  
  0.186   0.190   0.205   0.207   0.209   0.224   0.224   0.230
 43 A    42 B    43 B    44 A    44 B    45 B    45 A    46 A                  
  0.236   0.246   0.259   0.268   0.272   0.276   0.281   0.287
 46 B    47 A    47 B    48 A    48 B    49 A    49 B    50 A                  
  0.312   0.317   0.325   0.340   0.354   0.357   0.378   0.387
 50 B    51 A    51 B    52 A    52 B    53 A    53 B    54 A                  
  0.433   0.456   0.465   0.516   0.522   0.537   0.540   0.567
 54 B    55 B    55 A    56 A    56 B    57 A    57 B    58 B                  
  0.581   0.601   0.614   0.626   0.651   0.657   0.668   0.679
 58 A    59 A    59 B    60 A    60 B    61 B    61 A    62 A                  
  0.695   0.699   0.720   0.727   0.732   0.743   0.757   0.771
 62 B    63 A    63 B    64 A    64 B    65 B    65 A    66 A                  
  0.785   0.813   0.813   0.832   0.836   0.870   0.916   0.942
 66 B    67 A    67 B    68 B    68 A    69 A    69 B    70 A                  
  0.950   0.955   0.958   0.962   0.968   0.989   1.001   1.014
 70 B    71 B    71 A    72 A    72 B    73 A    73 B    74 B                  
  1.018   1.031   1.051   1.066   1.086   1.095   1.115   1.115
 75 B    74 A    75 A    76 A    77 A    76 B    78 A    77 B                  
  1.148   1.177   1.192   1.219   1.249   1.270   1.319   1.346
 78 B    79 A    80 A    79 B    81 A    80 B    81 B    82 A                  
  1.346   1.351   1.362   1.379   1.454   1.468   1.501   1.531
 82 B    83 A    83 B    84 A    85 A    84 B    85 B    86 B                  
  1.563   1.686   1.694   1.746   1.799   1.864   1.869   1.888
 86 A    87 A    87 B    88 A    89 A    88 B    90 A    89 B                  
  1.918   1.921   1.950   1.980   2.005   2.042   2.077   2.096
 90 B    91 A    92 A    91 B    93 A    92 B    94 A    93 B                  
  2.111   2.152   2.176   2.183   2.236   2.243   2.258   2.334
 94 B    95 A    96 A    95 B    96 B    97 A    97 B    98 A                  
  2.365   2.368   2.421   2.446   2.459   2.467   2.494   2.507
 98 B    99 A    99 B   100 A   100 B   101 A   101 B   102 A                  
  2.524   2.529   2.581   2.585   2.598   2.657   2.693   2.715
103 A   102 B   103 B   104 A   104 B   105 A   106 A   105 B                  
  2.745   2.851   2.860   2.909   2.930   3.147   3.196   3.269
106 B   107 A   107 B   108 A   108 B   109 B   109 A   110 B                  
  3.271   3.402   3.426   3.720   3.742   3.974   3.974   4.252
110 A   111 A   111 B   112 A   112 B   113 B   113 A   114 A                  
  4.305   4.318   4.330   4.417   4.537   4.656   4.712
115 A   114 B   115 B   116 A   116 B   117 A   117 B                          
 --------------------------------------------------------------
 
          Ground-State Mulliken Net Atomic Charges

     Atom                 Charge (a.u.)
  ----------------------------------------
      1 S                    -0.016635
      2 C                    -0.036125
      3 C                    -0.406633
      4 C                     0.267165
      5 C                    -0.243496
      6 H                     0.132626
      7 C                    -0.243496
      8 S                    -0.016635
      9 C                     0.267165
     10 C                    -0.036125
     11 C                    -0.406633
     12 H                     0.115142
     13 H                     0.187957
     14 H                     0.115142
     15 H                     0.187957
     16 H                     0.132626
  ----------------------------------------
  Sum of atomic charges =     0.000000

 -----------------------------------------------------------------
                    Cartesian Multipole Moments
 -----------------------------------------------------------------
    Charge (ESU x 10^10)
                 0.0000
    Dipole Moment (Debye)
         X       0.0000      Y      -0.0000      Z       0.3573
       Tot       0.3573
    Quadrupole Moments (Debye-Ang)
        XX     -61.1628     XY       1.5163     YY     -69.1615
        XZ      -0.0000     YZ      -0.0000     ZZ     -77.6284
    Octopole Moments (Debye-Ang^2)
       XXX       0.0000    XXY      -0.0000    XYY      -0.0000
       YYY      -0.0000    XXZ      -3.3714    XYZ       8.4653
       YYZ       5.8668    XZZ       0.0000    YZZ      -0.0000
       ZZZ      -1.0858
    Hexadecapole Moments (Debye-Ang^3)
      XXXX   -1890.0160   XXXY     -20.1715   XXYY    -420.4636
      XYYY      13.6541   YYYY    -524.1284   XXXZ      -0.0000
      XXYZ      -0.0000   XYYZ      -0.0000   YYYZ      -0.0000
      XXZZ    -425.2529   XYZZ      -4.6357   YYZZ    -117.5398
      XZZZ      -0.0000   YZZZ      -0.0000   ZZZZ    -163.9212
 -----------------------------------------------------------------
 Calculating analytic gradient of the SCF energy
 Gradient of SCF Energy
            1           2           3           4           5           6
    1   0.0000856   0.0002007   0.0001872   0.0000533  -0.0003448  -0.0000173
    2  -0.0000732   0.0001703   0.0000185  -0.0009302   0.0007270   0.0004970
    3  -0.0004062   0.0000391   0.0000128   0.0024938  -0.0009278  -0.0009147
            7           8           9          10          11          12
    1   0.0003448  -0.0000856  -0.0000533  -0.0002007  -0.0001872  -0.0000616
    2  -0.0007270   0.0000732   0.0009302  -0.0001703  -0.0000185  -0.0001180
    3  -0.0009278  -0.0004062   0.0024938   0.0000391   0.0000128  -0.0000186
           13          14          15          16
    1   0.0000217   0.0000616  -0.0000217   0.0000173
    2  -0.0000965   0.0001180   0.0000965  -0.0004970
    3  -0.0002786  -0.0000186  -0.0002786  -0.0009147
 Max gradient component =       2.494E-03
 RMS gradient           =       6.477E-04
 Gradient time:  CPU 1.88 s  wall 1.90 s
 Geometry Optimization Parameters
   NAtoms,    NIC,     NZ,  NCons,   NDum,   NFix, NCnnct, MaxDiis
       16     111       0       1       0       0       0       0

 Cartesian Hessian Update
 Hessian Updated using BFGS Update


** CONSTRAINED OPTIMIZATION IN DELOCALIZED INTERNAL COORDINATES **
   Searching for a Minimum

   Optimization Cycle:   2

                       Coordinates (Angstroms)
     ATOM                X               Y               Z
      1  S         1.8278420680   -1.1491395086   -0.4025775728
      2  C         3.2052135941   -0.1396226740   -0.0984774157
      3  C         2.8326521896    1.1010158831    0.3487760785
      4  C         1.4187731747    1.2449495542    0.4672313076
      5  C         0.7190414926    0.1144983666    0.1009505626
      6  H         0.9302188752    2.1515223646    0.8071707349
      7  C        -0.7190414926   -0.1144983666    0.1009505626
      8  S        -1.8278420680    1.1491395086   -0.4025775728
      9  C        -1.4187731747   -1.2449495542    0.4672313076
     10  C        -3.2052135941    0.1396226740   -0.0984774157
     11  C        -2.8326521896   -1.1010158831    0.3487760785
     12  H        -3.5412424706   -1.8839568890    0.5946556262
     13  H         4.2023382788   -0.5201448004   -0.2740358771
     14  H         3.5412424706    1.8839568890    0.5946556262
     15  H        -4.2023382788    0.5201448004   -0.2740358771
     16  H        -0.9302188752   -2.1515223646    0.8071707349
   Point Group: c2    Number of degrees of freedom:    22


   Energy is  -1104.840375463

              Constraints and their Current Values
                                        Value     Constraint
   Dihedral:        4   5   7   9     -140.000     -140.000
 Hessian Updated using BFGS Update

 20 Hessian modes will be used to form the next step
  Hessian Eigenvalues:
     0.032155    0.045000    0.045001    0.045005    0.049367    0.159341
     0.159967    0.160002    0.221277    0.237436    0.249995    0.296970
     0.315349    0.357327    0.358959    0.363160    0.385126    0.422972
     0.471450    0.533450

 Minimum Search - Taking Simple RFO Step
 Searching for Lamda that Minimizes Along All modes
 Value Taken    Lamda =  -0.00008061
 Step Taken.  Stepsize is  0.048290

                             Maximum     Tolerance    Cnvgd?
         Gradient           0.001060      0.000300      NO
         Displacement       0.024685      0.001200      NO
         Energy change     -0.000401      0.000001      NO


 New Cartesian Coordinates Obtained by Inverse Iteration

 Displacement from previous Coordinates is:  0.080572
 ----------------------------------------------------------------
             Standard Nuclear Orientation (Angstroms)
    I     Atom           X                Y                Z
 ----------------------------------------------------------------
    1      S       1.8293550536    -1.1500141056    -0.4057293728
    2      C       3.2051663755    -0.1414426769    -0.0921883863
    3      C       2.8305100937     1.1016131347     0.3474561625
    4      C       1.4161075749     1.2471733186     0.4552629457
    5      C       0.7188904441     0.1152991997     0.0886799289
    6      H       0.9253562629     2.1497447618     0.8024936805
    7      C      -0.7188904441    -0.1152991997     0.0886799289
    8      S      -1.8293550536     1.1500141056    -0.4057293728
    9      C      -1.4161075749    -1.2471733186     0.4552629457
   10      C      -3.2051663755     0.1414426769    -0.0921883863
   11      C      -2.8305100937    -1.1016131347     0.3474561625
   12      H      -3.5383586384    -1.8826950908     0.6012467183
   13      H       4.2039853714    -0.5239632013    -0.2535282326
   14      H       3.5383586384     1.8826950908     0.6012467183
   15      H      -4.2039853714     0.5239632013    -0.2535282326
   16      H      -0.9253562629    -2.1497447618     0.8024936805
 ----------------------------------------------------------------
 Molecular Point Group                 C2    NOp =  2
 Largest Abelian Subgroup              C2    NOp =  2
 Nuclear Repulsion Energy =   628.5670428119 hartrees
 There are       43 alpha and       43 beta electrons
 Applying Cartesian multipole field
    Component          Value
    ---------          -----
     (2,0,0)        1.00000E-11
     (0,2,0)        2.00000E-11
     (0,0,2)       -3.00000E-11
 Nucleus-field energy     =     0.0000000204 hartrees
 Requested basis set is 6-31++G(d,p)
 There are 76 shells and 234 basis functions
 A cutoff of  1.0D-11 yielded   2493 shell pairs
 There are     24631 function pairs
 Smallest overlap matrix eigenvalue = 1.04E-06

 Q-Chem warning in module /project/projectdirs/jcesr/qchem/qc44/cnl_qc441/compile/cori/qc_src/stvman/mkSTV.C, line 257:

 Overlap eigenvalue is smaller than square root of threshold

 Guess MOs from SCF MO coefficient file
 Reading MOs from coefficient file
 Reading MOs from coefficient file
 A restricted hybrid HF-DFT SCF calculation will be
 performed using Pulay DIIS extrapolation
 Exchange:     0.2000 Hartree-Fock + 0.0800 Slater + 0.7200 B88
 Correlation:  0.1900 VWN1RPA + 0.8100 LYP
 Using SG-1 standard quadrature grid
 SCF converges when DIIS error is below 1.0E-08
 Geometry optimization detected.  Setting ReadMinima to 0
 Setting SaveMinima to 0
 ---------------------------------------
  Cycle       Energy         DIIS Error
 ---------------------------------------
    1   -1104.8400627937      2.89E-04
    2   -1104.8404213494      3.07E-05
    3   -1104.8404015665      6.07E-05
    4   -1104.8404304292      7.59E-06
    5   -1104.8404307115      4.73E-06
    6   -1104.8404308728      1.35E-06
    7   -1104.8404308834      3.15E-07
    8   -1104.8404308869      7.84E-08
    9   -1104.8404308885      2.30E-08
   10   -1104.8404308880      4.76E-09 Convergence criterion met
 ---------------------------------------
 SCF time:  CPU 5.25 s  wall 4.66 s
 SCF   energy in the final basis set = -1104.8404308880
 Total energy in the final basis set = -1104.8404308880
 
 --------------------------------------------------------------
             Orbital Energies (a.u.) and Symmetries
 --------------------------------------------------------------
 
 Alpha MOs, Restricted
 -- Occupied --                  
-88.920 -88.920 -10.238 -10.238 -10.225 -10.225 -10.204 -10.204
  1 B     1 A     2 A     2 B     3 B     3 A     4 A     4 B                  
-10.203 -10.203  -7.979  -7.979  -5.943  -5.943  -5.940  -5.940
  5 B     5 A     6 B     6 A     7 A     7 B     8 B     8 A                  
 -5.936  -5.936  -0.900  -0.878  -0.771  -0.748  -0.738  -0.705
  9 B     9 A    10 A    10 B    11 A    11 B    12 A    12 B                  
 -0.603  -0.578  -0.554  -0.534  -0.525  -0.478  -0.419  -0.418
 13 A    13 B    14 A    14 B    15 A    15 B    16 B    16 A                  
 -0.409  -0.405  -0.398  -0.377  -0.374  -0.356  -0.346  -0.274
 17 A    17 B    18 A    19 A    18 B    19 B    20 A    21 A                  
 -0.262  -0.261  -0.218
 20 B    22 A    21 B                                                          
 -- Virtual --                   
 -0.053  -0.010  -0.006  -0.003   0.007   0.009   0.017   0.022
 23 A    22 B    24 A    23 B    25 A    24 B    25 B    26 A                  
  0.030   0.035   0.038   0.045   0.046   0.055   0.058   0.061
 27 A    28 A    26 B    27 B    29 A    30 A    28 B    29 B                  
  0.071   0.080   0.091   0.094   0.102   0.102   0.106   0.109
 30 B    31 A    31 B    32 A    32 B    33 A    34 A    35 A                  
  0.121   0.122   0.130   0.132   0.134   0.135   0.137   0.137
 33 B    34 B    36 A    37 A    35 B    36 B    38 A    37 B                  
  0.149   0.151   0.161   0.164   0.165   0.174   0.177   0.178
 39 A    38 B    40 A    41 A    39 B    40 B    41 B    42 A                  
  0.186   0.190   0.206   0.207   0.209   0.224   0.224   0.229
 43 A    42 B    43 B    44 A    44 B    45 B    45 A    46 A                  
  0.236   0.247   0.259   0.268   0.271   0.276   0.282   0.287
 46 B    47 A    47 B    48 A    48 B    49 A    49 B    50 A                  
  0.312   0.316   0.324   0.341   0.354   0.357   0.377   0.387
 50 B    51 A    51 B    52 A    52 B    53 A    53 B    54 A                  
  0.433   0.456   0.466   0.516   0.522   0.537   0.540   0.567
 54 B    55 B    55 A    56 A    56 B    57 A    57 B    58 B                  
  0.581   0.601   0.614   0.625   0.652   0.657   0.668   0.679
 58 A    59 A    59 B    60 A    60 B    61 B    61 A    62 A                  
  0.694   0.699   0.720   0.727   0.732   0.743   0.758   0.772
 62 B    63 A    63 B    64 A    64 B    65 B    65 A    66 A                  
  0.785   0.813   0.814   0.832   0.837   0.869   0.917   0.943
 66 B    67 A    67 B    68 B    68 A    69 A    69 B    70 A                  
  0.949   0.955   0.960   0.962   0.967   0.989   1.000   1.014
 70 B    71 B    71 A    72 A    72 B    73 A    73 B    74 B                  
  1.018   1.030   1.052   1.066   1.087   1.095   1.115   1.115
 75 B    74 A    75 A    76 A    77 A    76 B    78 A    77 B                  
  1.148   1.177   1.194   1.219   1.248   1.270   1.318   1.343
 78 B    79 A    80 A    79 B    81 A    80 B    81 B    82 A                  
  1.348   1.352   1.362   1.381   1.459   1.466   1.499   1.532
 82 B    83 A    83 B    84 A    85 A    84 B    85 B    86 B                  
  1.561   1.686   1.694   1.745   1.799   1.865   1.868   1.888
 86 A    87 A    87 B    88 A    89 A    88 B    90 A    89 B                  
  1.919   1.921   1.950   1.980   2.005   2.041   2.078   2.094
 90 B    91 A    92 A    91 B    93 A    92 B    94 A    93 B                  
  2.112   2.152   2.176   2.183   2.236   2.243   2.258   2.333
 94 B    95 A    96 A    95 B    96 B    97 A    97 B    98 A                  
  2.365   2.368   2.421   2.447   2.457   2.466   2.494   2.505
 98 B    99 A    99 B   100 A   100 B   101 A   101 B   102 A                  
  2.526   2.529   2.581   2.585   2.599   2.658   2.693   2.716
103 A   102 B   103 B   104 A   104 B   105 A   106 A   105 B                  
  2.744   2.851   2.859   2.909   2.930   3.147   3.196   3.269
106 B   107 A   107 B   108 A   108 B   109 B   109 A   110 B                  
  3.271   3.402   3.426   3.720   3.742   3.974   3.975   4.251
110 A   111 A   111 B   112 A   112 B   113 B   113 A   114 A                  
  4.305   4.318   4.330   4.417   4.537   4.656   4.712
115 A   114 B   115 B   116 A   116 B   117 A   117 B                          
 
 Beta MOs, Restricted
 -- Occupied --                  
-88.920 -88.920 -10.238 -10.238 -10.225 -10.225 -10.204 -10.204
  1 B     1 A     2 A     2 B     3 B     3 A     4 A     4 B                  
-10.203 -10.203  -7.979  -7.979  -5.943  -5.943  -5.940  -5.940
  5 B     5 A     6 B     6 A     7 A     7 B     8 B     8 A                  
 -5.936  -5.936  -0.900  -0.878  -0.771  -0.748  -0.738  -0.705
  9 B     9 A    10 A    10 B    11 A    11 B    12 A    12 B                  
 -0.603  -0.578  -0.554  -0.534  -0.525  -0.478  -0.419  -0.418
 13 A    13 B    14 A    14 B    15 A    15 B    16 B    16 A                  
 -0.409  -0.405  -0.398  -0.377  -0.374  -0.356  -0.346  -0.274
 17 A    17 B    18 A    19 A    18 B    19 B    20 A    21 A                  
 -0.262  -0.261  -0.218
 20 B    22 A    21 B                                                          
 -- Virtual --                   
 -0.053  -0.010  -0.006  -0.003   0.007   0.009   0.017   0.022
 23 A    22 B    24 A    23 B    25 A    24 B    25 B    26 A                  
  0.030   0.035   0.038   0.045   0.046   0.055   0.058   0.061
 27 A    28 A    26 B    27 B    29 A    30 A    28 B    29 B                  
  0.071   0.080   0.091   0.094   0.102   0.102   0.106   0.109
 30 B    31 A    31 B    32 A    32 B    33 A    34 A    35 A                  
  0.121   0.122   0.130   0.132   0.134   0.135   0.137   0.137
 33 B    34 B    36 A    37 A    35 B    36 B    38 A    37 B                  
  0.149   0.151   0.161   0.164   0.165   0.174   0.177   0.178
 39 A    38 B    40 A    41 A    39 B    40 B    41 B    42 A                  
  0.186   0.190   0.206   0.207   0.209   0.224   0.224   0.229
 43 A    42 B    43 B    44 A    44 B    45 B    45 A    46 A                  
  0.236   0.247   0.259   0.268   0.271   0.276   0.282   0.287
 46 B    47 A    47 B    48 A    48 B    49 A    49 B    50 A                  
  0.312   0.316   0.324   0.341   0.354   0.357   0.377   0.387
 50 B    51 A    51 B    52 A    52 B    53 A    53 B    54 A                  
  0.433   0.456   0.466   0.516   0.522   0.537   0.540   0.567
 54 B    55 B    55 A    56 A    56 B    57 A    57 B    58 B                  
  0.581   0.601   0.614   0.625   0.652   0.657   0.668   0.679
 58 A    59 A    59 B    60 A    60 B    61 B    61 A    62 A                  
  0.694   0.699   0.720   0.727   0.732   0.743   0.758   0.772
 62 B    63 A    63 B    64 A    64 B    65 B    65 A    66 A                  
  0.785   0.813   0.814   0.832   0.837   0.869   0.917   0.943
 66 B    67 A    67 B    68 B    68 A    69 A    69 B    70 A                  
  0.949   0.955   0.960   0.962   0.967   0.989   1.000   1.014
 70 B    71 B    71 A    72 A    72 B    73 A    73 B    74 B                  
  1.018   1.030   1.052   1.066   1.087   1.095   1.115   1.115
 75 B    74 A    75 A    76 A    77 A    76 B    78 A    77 B                  
  1.148   1.177   1.194   1.219   1.248   1.270   1.318   1.343
 78 B    79 A    80 A    79 B    81 A    80 B    81 B    82 A                  
  1.348   1.352   1.362   1.381   1.459   1.466   1.499   1.532
 82 B    83 A    83 B    84 A    85 A    84 B    85 B    86 B                  
  1.561   1.686   1.694   1.745   1.799   1.865   1.868   1.888
 86 A    87 A    87 B    88 A    89 A    88 B    90 A    89 B                  
  1.919   1.921   1.950   1.980   2.005   2.041   2.078   2.094
 90 B    91 A    92 A    91 B    93 A    92 B    94 A    93 B                  
  2.112   2.152   2.176   2.183   2.236   2.243   2.258   2.333
 94 B    95 A    96 A    95 B    96 B    97 A    97 B    98 A                  
  2.365   2.368   2.421   2.447   2.457   2.466   2.494   2.505
 98 B    99 A    99 B   100 A   100 B   101 A   101 B   102 A                  
  2.526   2.529   2.581   2.585   2.599   2.658   2.693   2.716
103 A   102 B   103 B   104 A   104 B   105 A   106 A   105 B                  
  2.744   2.851   2.859   2.909   2.930   3.147   3.196   3.269
106 B   107 A   107 B   108 A   108 B   109 B   109 A   110 B                  
  3.271   3.402   3.426   3.720   3.742   3.974   3.975   4.251
110 A   111 A   111 B   112 A   112 B   113 B   113 A   114 A                  
  4.305   4.318   4.330   4.417   4.537   4.656   4.712
115 A   114 B   115 B   116 A   116 B   117 A   117 B                          
 --------------------------------------------------------------
 
          Ground-State Mulliken Net Atomic Charges

     Atom                 Charge (a.u.)
  ----------------------------------------
      1 S                    -0.018120
      2 C                    -0.035962
      3 C                    -0.407993
      4 C                     0.272475
      5 C                    -0.246226
      6 H                     0.133026
      7 C                    -0.246226
      8 S                    -0.018120
      9 C                     0.272475
     10 C                    -0.035962
     11 C                    -0.407993
     12 H                     0.115033
     13 H                     0.187766
     14 H                     0.115033
     15 H                     0.187766
     16 H                     0.133026
  ----------------------------------------
  Sum of atomic charges =     0.000000

 -----------------------------------------------------------------
                    Cartesian Multipole Moments
 -----------------------------------------------------------------
    Charge (ESU x 10^10)
                 0.0000
    Dipole Moment (Debye)
         X      -0.0000      Y       0.0000      Z       0.4042
       Tot       0.4042
    Quadrupole Moments (Debye-Ang)
        XX     -61.1722     XY       1.4521     YY     -69.1811
        XZ      -0.0000     YZ      -0.0000     ZZ     -77.6173
    Octopole Moments (Debye-Ang^2)
       XXX      -0.0000    XXY      -0.0000    XYY      -0.0000
       YYY      -0.0000    XXZ      -2.3073    XYZ       8.4497
       YYZ       6.2059    XZZ       0.0000    YZZ       0.0000
       ZZZ      -0.2035
    Hexadecapole Moments (Debye-Ang^3)
      XXXX   -1889.1178   XXXY     -20.6943   XXYY    -420.5351
      XYYY      13.8492   YYYY    -525.1181   XXXZ      -0.0000
      XXYZ      -0.0000   XYYZ      -0.0000   YYYZ      -0.0000
      XXZZ    -425.2948   XYZZ      -4.2072   YYZZ    -117.5171
      XZZZ      -0.0000   YZZZ      -0.0000   ZZZZ    -163.0771
 -----------------------------------------------------------------
 Calculating analytic gradient of the SCF energy
 Gradient of SCF Energy
            1           2           3           4           5           6
    1  -0.0000155  -0.0000001   0.0000849  -0.0000145   0.0000697  -0.0000674
    2  -0.0001257  -0.0001874   0.0002986  -0.0005243   0.0007231   0.0002885
    3  -0.0004824   0.0000511  -0.0002271   0.0017614  -0.0007556  -0.0004179
            7           8           9          10          11          12
    1  -0.0000697   0.0000155   0.0000145   0.0000001  -0.0000849  -0.0000544
    2  -0.0007231   0.0001257   0.0005243   0.0001874  -0.0002986  -0.0000745
    3  -0.0007556  -0.0004824   0.0017614   0.0000511  -0.0002271   0.0001197
           13          14          15          16
    1   0.0001079   0.0000544  -0.0001079   0.0000674
    2  -0.0000827   0.0000745   0.0000827  -0.0002885
    3  -0.0000491   0.0001197  -0.0000491  -0.0004179
 Max gradient component =       1.761E-03
 RMS gradient           =       4.662E-04
 Gradient time:  CPU 1.89 s  wall 1.90 s
 Geometry Optimization Parameters
   NAtoms,    NIC,     NZ,  NCons,   NDum,   NFix, NCnnct, MaxDiis
       16     111       0       1       0       0       0       0

 Cartesian Hessian Update
 Hessian Updated using BFGS Update


** CONSTRAINED OPTIMIZATION IN DELOCALIZED INTERNAL COORDINATES **
   Searching for a Minimum

   Optimization Cycle:   3

                       Coordinates (Angstroms)
     ATOM                X               Y               Z
      1  S         1.8293550536   -1.1500141056   -0.4057293728
      2  C         3.2051663755   -0.1414426769   -0.0921883863
      3  C         2.8305100937    1.1016131347    0.3474561625
      4  C         1.4161075749    1.2471733186    0.4552629457
      5  C         0.7188904441    0.1152991997    0.0886799289
      6  H         0.9253562629    2.1497447618    0.8024936805
      7  C        -0.7188904441   -0.1152991997    0.0886799289
      8  S        -1.8293550536    1.1500141056   -0.4057293728
      9  C        -1.4161075749   -1.2471733186    0.4552629457
     10  C        -3.2051663755    0.1414426769   -0.0921883863
     11  C        -2.8305100937   -1.1016131347    0.3474561625
     12  H        -3.5383586384   -1.8826950908    0.6012467183
     13  H         4.2039853714   -0.5239632013   -0.2535282326
     14  H         3.5383586384    1.8826950908    0.6012467183
     15  H        -4.2039853714    0.5239632013   -0.2535282326
     16  H        -0.9253562629   -2.1497447618    0.8024936805
   Point Group: c2    Number of degrees of freedom:    22


   Energy is  -1104.840430888

              Constraints and their Current Values
                                        Value     Constraint
   Dihedral:        4   5   7   9     -140.000     -140.000
 Hessian Updated using BFGS Update

 21 Hessian modes will be used to form the next step
  Hessian Eigenvalues:
     0.019093    0.045000    0.045001    0.045005    0.045740    0.050655
     0.159202    0.159963    0.160130    0.221258    0.242894    0.249734
     0.296344    0.315231    0.357317    0.358821    0.362992    0.384606
     0.419719    0.473050    0.530417

 Minimum Search - Taking Simple RFO Step
 Searching for Lamda that Minimizes Along All modes
 Value Taken    Lamda =  -0.00003142
 Step Taken.  Stepsize is  0.038409

                             Maximum     Tolerance    Cnvgd?
         Gradient           0.000520      0.000300      NO
         Displacement       0.018942      0.001200      NO
         Energy change     -0.000055      0.000001      NO


 New Cartesian Coordinates Obtained by Inverse Iteration

 Displacement from previous Coordinates is:  0.052902
 ----------------------------------------------------------------
             Standard Nuclear Orientation (Angstroms)
    I     Atom           X                Y                Z
 ----------------------------------------------------------------
    1      S       1.8310034704    -1.1514063965    -0.4040259393
    2      C       3.2056946146    -0.1424131797    -0.0878610892
    3      C       2.8292937199     1.1016489175     0.3467032049
    4      C       1.4146063407     1.2483151111     0.4465002287
    5      C       0.7186527882     0.1157798848     0.0798288309
    6      H       0.9227007472     2.1479045694     0.7992140370
    7      C      -0.7186527882    -0.1157798848     0.0798288309
    8      S      -1.8310034704     1.1514063965    -0.4040259393
    9      C      -1.4146063407    -1.2483151111     0.4465002287
   10      C      -3.2056946146     0.1424131797    -0.0878610892
   11      C      -2.8292937199    -1.1016489175     0.3467032049
   12      H      -3.5364487154    -1.8820313723     0.6040087100
   13      H       4.2053737504    -0.5257702397    -0.2406745388
   14      H       3.5364487154     1.8820313723     0.6040087100
   15      H      -4.2053737504     0.5257702397    -0.2406745388
   16      H      -0.9227007472    -2.1479045694     0.7992140370
 ----------------------------------------------------------------
 Molecular Point Group                 C2    NOp =  2
 Largest Abelian Subgroup              C2    NOp =  2
 Nuclear Repulsion Energy =   628.6376457076 hartrees
 There are       43 alpha and       43 beta electrons
 Applying Cartesian multipole field
    Component          Value
    ---------          -----
     (2,0,0)        1.00000E-11
     (0,2,0)        2.00000E-11
     (0,0,2)       -3.00000E-11
 Nucleus-field energy     =     0.0000000204 hartrees
 Requested basis set is 6-31++G(d,p)
 There are 76 shells and 234 basis functions
 A cutoff of  1.0D-11 yielded   2495 shell pairs
 There are     24643 function pairs
 Smallest overlap matrix eigenvalue = 1.04E-06

 Q-Chem warning in module /project/projectdirs/jcesr/qchem/qc44/cnl_qc441/compile/cori/qc_src/stvman/mkSTV.C, line 257:

 Overlap eigenvalue is smaller than square root of threshold

 Guess MOs from SCF MO coefficient file
 Reading MOs from coefficient file
 Reading MOs from coefficient file
 A restricted hybrid HF-DFT SCF calculation will be
 performed using Pulay DIIS extrapolation
 Exchange:     0.2000 Hartree-Fock + 0.0800 Slater + 0.7200 B88
 Correlation:  0.1900 VWN1RPA + 0.8100 LYP
 Using SG-1 standard quadrature grid
 SCF converges when DIIS error is below 1.0E-08
 Geometry optimization detected.  Setting ReadMinima to 0
 Setting SaveMinima to 0
 ---------------------------------------
  Cycle       Energy         DIIS Error
 ---------------------------------------
    1   -1104.8409822336      2.17E-04
    2   -1104.8404445483      2.01E-05
    3   -1104.8404369721      3.86E-05
    4   -1104.8404484211      5.18E-06
    5   -1104.8404485464      3.36E-06
    6   -1104.8404486231      8.61E-07
    7   -1104.8404486279      2.76E-07
    8   -1104.8404486296      5.87E-08
    9   -1104.8404486310      1.62E-08
   10   -1104.8404486321      5.07E-09 Convergence criterion met
 ---------------------------------------
 SCF time:  CPU 5.28 s  wall 4.63 s
 SCF   energy in the final basis set = -1104.8404486321
 Total energy in the final basis set = -1104.8404486321
 
 --------------------------------------------------------------
             Orbital Energies (a.u.) and Symmetries
 --------------------------------------------------------------
 
 Alpha MOs, Restricted
 -- Occupied --                  
-88.920 -88.920 -10.238 -10.238 -10.225 -10.225 -10.204 -10.204
  1 B     1 A     2 A     2 B     3 B     3 A     4 A     4 B                  
-10.203 -10.203  -7.979  -7.979  -5.943  -5.943  -5.940  -5.940
  5 B     5 A     6 B     6 A     7 A     7 B     8 B     8 A                  
 -5.936  -5.936  -0.900  -0.878  -0.771  -0.748  -0.738  -0.705
  9 B     9 A    10 A    10 B    11 A    11 B    12 A    12 B                  
 -0.603  -0.578  -0.554  -0.534  -0.525  -0.478  -0.419  -0.418
 13 A    13 B    14 A    14 B    15 A    15 B    16 B    16 A                  
 -0.408  -0.405  -0.399  -0.377  -0.374  -0.356  -0.346  -0.274
 17 A    17 B    18 A    19 A    18 B    19 B    20 A    21 A                  
 -0.262  -0.261  -0.218
 20 B    22 A    21 B                                                          
 -- Virtual --                   
 -0.053  -0.009  -0.006  -0.003   0.007   0.009   0.017   0.022
 23 A    22 B    24 A    23 B    25 A    24 B    25 B    26 A                  
  0.030   0.035   0.038   0.045   0.046   0.054   0.058   0.061
 27 A    28 A    26 B    27 B    29 A    30 A    28 B    29 B                  
  0.071   0.080   0.091   0.094   0.101   0.102   0.106   0.109
 30 B    31 A    31 B    32 A    32 B    33 A    34 A    35 A                  
  0.120   0.122   0.130   0.132   0.134   0.135   0.137   0.137
 33 B    34 B    36 A    37 A    35 B    36 B    38 A    37 B                  
  0.149   0.151   0.161   0.163   0.165   0.174   0.177   0.178
 39 A    38 B    40 A    41 A    39 B    40 B    41 B    42 A                  
  0.186   0.190   0.206   0.207   0.209   0.224   0.224   0.229
 43 A    42 B    43 B    44 A    44 B    45 A    45 B    46 A                  
  0.236   0.247   0.259   0.267   0.270   0.276   0.282   0.287
 46 B    47 A    47 B    48 A    48 B    49 A    49 B    50 A                  
  0.312   0.316   0.324   0.341   0.355   0.357   0.377   0.388
 50 B    51 A    51 B    52 A    52 B    53 A    53 B    54 A                  
  0.433   0.455   0.466   0.517   0.522   0.537   0.540   0.567
 54 B    55 B    55 A    56 A    56 B    57 A    57 B    58 B                  
  0.581   0.602   0.614   0.625   0.652   0.656   0.668   0.678
 58 A    59 A    59 B    60 A    60 B    61 B    61 A    62 A                  
  0.693   0.699   0.720   0.727   0.732   0.743   0.758   0.772
 62 B    63 A    63 B    64 A    64 B    65 B    65 A    66 A                  
  0.785   0.813   0.815   0.832   0.837   0.869   0.917   0.942
 66 B    67 A    67 B    68 B    68 A    69 A    69 B    70 A                  
  0.948   0.956   0.961   0.962   0.967   0.989   1.000   1.014
 70 B    71 B    71 A    72 A    72 B    73 A    73 B    74 B                  
  1.018   1.030   1.053   1.065   1.087   1.095   1.114   1.115
 75 B    74 A    75 A    76 A    77 A    76 B    78 A    77 B                  
  1.148   1.177   1.194   1.218   1.248   1.270   1.317   1.343
 78 B    79 A    80 A    79 B    81 A    80 B    81 B    82 A                  
  1.350   1.353   1.362   1.382   1.463   1.464   1.498   1.533
 82 B    83 A    83 B    84 A    85 A    84 B    85 B    86 B                  
  1.560   1.686   1.693   1.744   1.799   1.866   1.868   1.888
 86 A    87 A    87 B    88 A    89 A    88 B    90 A    89 B                  
  1.920   1.922   1.950   1.980   2.005   2.041   2.078   2.094
 90 B    91 A    92 A    91 B    93 A    92 B    94 A    93 B                  
  2.114   2.152   2.176   2.183   2.236   2.243   2.258   2.333
 94 B    95 A    96 A    95 B    96 B    97 A    97 B    98 A                  
  2.365   2.368   2.421   2.447   2.457   2.466   2.494   2.505
 98 B    99 A    99 B   100 A   100 B   101 A   101 B   102 A                  
  2.528   2.530   2.582   2.585   2.600   2.658   2.693   2.717
103 A   102 B   103 B   104 A   104 B   105 A   106 A   105 B                  
  2.744   2.851   2.859   2.910   2.931   3.147   3.197   3.269
106 B   107 A   107 B   108 A   108 B   109 B   109 A   110 B                  
  3.272   3.402   3.426   3.720   3.742   3.974   3.975   4.251
110 A   111 A   111 B   112 A   112 B   113 B   113 A   114 A                  
  4.305   4.317   4.329   4.417   4.537   4.656   4.712
115 A   114 B   115 B   116 A   116 B   117 A   117 B                          
 
 Beta MOs, Restricted
 -- Occupied --                  
-88.920 -88.920 -10.238 -10.238 -10.225 -10.225 -10.204 -10.204
  1 B     1 A     2 A     2 B     3 B     3 A     4 A     4 B                  
-10.203 -10.203  -7.979  -7.979  -5.943  -5.943  -5.940  -5.940
  5 B     5 A     6 B     6 A     7 A     7 B     8 B     8 A                  
 -5.936  -5.936  -0.900  -0.878  -0.771  -0.748  -0.738  -0.705
  9 B     9 A    10 A    10 B    11 A    11 B    12 A    12 B                  
 -0.603  -0.578  -0.554  -0.534  -0.525  -0.478  -0.419  -0.418
 13 A    13 B    14 A    14 B    15 A    15 B    16 B    16 A                  
 -0.408  -0.405  -0.399  -0.377  -0.374  -0.356  -0.346  -0.274
 17 A    17 B    18 A    19 A    18 B    19 B    20 A    21 A                  
 -0.262  -0.261  -0.218
 20 B    22 A    21 B                                                          
 -- Virtual --                   
 -0.053  -0.009  -0.006  -0.003   0.007   0.009   0.017   0.022
 23 A    22 B    24 A    23 B    25 A    24 B    25 B    26 A                  
  0.030   0.035   0.038   0.045   0.046   0.054   0.058   0.061
 27 A    28 A    26 B    27 B    29 A    30 A    28 B    29 B                  
  0.071   0.080   0.091   0.094   0.101   0.102   0.106   0.109
 30 B    31 A    31 B    32 A    32 B    33 A    34 A    35 A                  
  0.120   0.122   0.130   0.132   0.134   0.135   0.137   0.137
 33 B    34 B    36 A    37 A    35 B    36 B    38 A    37 B                  
  0.149   0.151   0.161   0.163   0.165   0.174   0.177   0.178
 39 A    38 B    40 A    41 A    39 B    40 B    41 B    42 A                  
  0.186   0.190   0.206   0.207   0.209   0.224   0.224   0.229
 43 A    42 B    43 B    44 A    44 B    45 A    45 B    46 A                  
  0.236   0.247   0.259   0.267   0.270   0.276   0.282   0.287
 46 B    47 A    47 B    48 A    48 B    49 A    49 B    50 A                  
  0.312   0.316   0.324   0.341   0.355   0.357   0.377   0.388
 50 B    51 A    51 B    52 A    52 B    53 A    53 B    54 A                  
  0.433   0.455   0.466   0.517   0.522   0.537   0.540   0.567
 54 B    55 B    55 A    56 A    56 B    57 A    57 B    58 B                  
  0.581   0.602   0.614   0.625   0.652   0.656   0.668   0.678
 58 A    59 A    59 B    60 A    60 B    61 B    61 A    62 A                  
  0.693   0.699   0.720   0.727   0.732   0.743   0.758   0.772
 62 B    63 A    63 B    64 A    64 B    65 B    65 A    66 A                  
  0.785   0.813   0.815   0.832   0.837   0.869   0.917   0.942
 66 B    67 A    67 B    68 B    68 A    69 A    69 B    70 A                  
  0.948   0.956   0.961   0.962   0.967   0.989   1.000   1.014
 70 B    71 B    71 A    72 A    72 B    73 A    73 B    74 B                  
  1.018   1.030   1.053   1.065   1.087   1.095   1.114   1.115
 75 B    74 A    75 A    76 A    77 A    76 B    78 A    77 B                  
  1.148   1.177   1.194   1.218   1.248   1.270   1.317   1.343
 78 B    79 A    80 A    79 B    81 A    80 B    81 B    82 A                  
  1.350   1.353   1.362   1.382   1.463   1.464   1.498   1.533
 82 B    83 A    83 B    84 A    85 A    84 B    85 B    86 B                  
  1.560   1.686   1.693   1.744   1.799   1.866   1.868   1.888
 86 A    87 A    87 B    88 A    89 A    88 B    90 A    89 B                  
  1.920   1.922   1.950   1.980   2.005   2.041   2.078   2.094
 90 B    91 A    92 A    91 B    93 A    92 B    94 A    93 B                  
  2.114   2.152   2.176   2.183   2.236   2.243   2.258   2.333
 94 B    95 A    96 A    95 B    96 B    97 A    97 B    98 A                  
  2.365   2.368   2.421   2.447   2.457   2.466   2.494   2.505
 98 B    99 A    99 B   100 A   100 B   101 A   101 B   102 A                  
  2.528   2.530   2.582   2.585   2.600   2.658   2.693   2.717
103 A   102 B   103 B   104 A   104 B   105 A   106 A   105 B                  
  2.744   2.851   2.859   2.910   2.931   3.147   3.197   3.269
106 B   107 A   107 B   108 A   108 B   109 B   109 A   110 B                  
  3.272   3.402   3.426   3.720   3.742   3.974   3.975   4.251
110 A   111 A   111 B   112 A   112 B   113 B   113 A   114 A                  
  4.305   4.317   4.329   4.417   4.537   4.656   4.712
115 A   114 B   115 B   116 A   116 B   117 A   117 B                          
 --------------------------------------------------------------
 
          Ground-State Mulliken Net Atomic Charges

     Atom                 Charge (a.u.)
  ----------------------------------------
      1 S                    -0.020262
      2 C                    -0.034670
      3 C                    -0.409471
      4 C                     0.276703
      5 C                    -0.248135
      6 H                     0.133185
      7 C                    -0.248134
      8 S                    -0.020262
      9 C                     0.276703
     10 C                    -0.034670
     11 C                    -0.409471
     12 H                     0.114931
     13 H                     0.187720
     14 H                     0.114931
     15 H                     0.187720
     16 H                     0.133185
  ----------------------------------------
  Sum of atomic charges =     0.000000

 -----------------------------------------------------------------
                    Cartesian Multipole Moments
 -----------------------------------------------------------------
    Charge (ESU x 10^10)
                 0.0000
    Dipole Moment (Debye)
         X      -0.0000      Y      -0.0000      Z       0.4370
       Tot       0.4370
    Quadrupole Moments (Debye-Ang)
        XX     -61.1558     XY       1.4176     YY     -69.2035
        XZ       0.0000     YZ       0.0000     ZZ     -77.6122
    Octopole Moments (Debye-Ang^2)
       XXX      -0.0000    XXY      -0.0000    XYY      -0.0000
       YYY      -0.0000    XXZ      -1.7385    XYZ       8.4008
       YYZ       6.3617    XZZ       0.0000    YZZ      -0.0000
       ZZZ       0.1489
    Hexadecapole Moments (Debye-Ang^3)
      XXXX   -1888.6601   XXXY     -20.7674   XXYY    -420.6988
      XYYY      14.1429   YYYY    -525.9754   XXXZ       0.0000
[...]
  3.272   3.403   3.426   3.721   3.742   3.974   3.975   4.251
110 A   111 A   111 B   112 A   112 B   113 B   113 A   114 A                  
  4.305   4.317   4.329   4.417   4.537   4.657   4.712
115 A   114 B   115 B   116 A   116 B   117 A   117 B                          
 --------------------------------------------------------------
 
          Ground-State Mulliken Net Atomic Charges

     Atom                 Charge (a.u.)
  ----------------------------------------
      1 S                    -0.020983
      2 C                    -0.034813
      3 C                    -0.408557
      4 C                     0.274563
      5 C                    -0.245729
      6 H                     0.132931
      7 C                    -0.245729
      8 S                    -0.020983
      9 C                     0.274563
     10 C                    -0.034813
     11 C                    -0.408557
     12 H                     0.114883
     13 H                     0.187705
     14 H                     0.114883
     15 H                     0.187705
     16 H                     0.132931
  ----------------------------------------
  Sum of atomic charges =     0.000000

 -----------------------------------------------------------------
                    Cartesian Multipole Moments
 -----------------------------------------------------------------
    Charge (ESU x 10^10)
                 0.0000
    Dipole Moment (Debye)
         X      -0.0000      Y       0.0000      Z       0.4326
       Tot       0.4326
    Quadrupole Moments (Debye-Ang)
        XX     -61.1610     XY       1.4214     YY     -69.1785
        XZ      -0.0000     YZ       0.0000     ZZ     -77.6356
    Octopole Moments (Debye-Ang^2)
       XXX       0.0000    XXY      -0.0000    XYY      -0.0000
       YYY       0.0000    XXZ      -1.8349    XYZ       8.3057
       YYZ       6.2286    XZZ       0.0000    YZZ       0.0000
       ZZZ      -0.1822
    Hexadecapole Moments (Debye-Ang^3)
      XXXX   -1888.6996   XXXY     -20.3196   XXYY    -420.5788
      XYYY      14.7754   YYYY    -526.6944   XXXZ       0.0000
      XXYZ       0.0000   XYYZ      -0.0000   YYYZ       0.0000
      XXZZ    -425.4528   XYZZ      -3.6410   YYZZ    -117.6269
      XZZZ       0.0000   YZZZ       0.0000   ZZZZ    -160.9613
 -----------------------------------------------------------------
 Calculating analytic gradient of the SCF energy
 Gradient of SCF Energy
            1           2           3           4           5           6
    1   0.0000042  -0.0000080  -0.0000159   0.0000842  -0.0001643   0.0000065
    2  -0.0000041   0.0000120  -0.0000084  -0.0004106   0.0008971  -0.0000095
    3   0.0000034  -0.0000073   0.0000238   0.0011342  -0.0011643   0.0000237
            7           8           9          10          11          12
    1   0.0001643  -0.0000042  -0.0000842   0.0000080   0.0000159   0.0000018
    2  -0.0008971   0.0000041   0.0004106  -0.0000120   0.0000084  -0.0000010
    3  -0.0011643   0.0000034   0.0011342  -0.0000073   0.0000238  -0.0000146
           13          14          15          16
    1  -0.0000085  -0.0000018   0.0000085  -0.0000065
    2  -0.0000046   0.0000010   0.0000046   0.0000095
    3   0.0000011  -0.0000146   0.0000011   0.0000237
 Max gradient component =       1.164E-03
 RMS gradient           =       3.901E-04
 Gradient time:  CPU 1.89 s  wall 1.90 s
 Geometry Optimization Parameters
   NAtoms,    NIC,     NZ,  NCons,   NDum,   NFix, NCnnct, MaxDiis
       16     111       0       1       0       0       0       0

 Cartesian Hessian Update
 Hessian Updated using BFGS Update


** CONSTRAINED OPTIMIZATION IN DELOCALIZED INTERNAL COORDINATES **
   Searching for a Minimum

   Optimization Cycle:   7

                       Coordinates (Angstroms)
     ATOM                X               Y               Z
      1  S         1.8316732104   -1.1534614573   -0.3993492955
      2  C         3.2057377964   -0.1437762472   -0.0825673772
      3  C         2.8286208792    1.1014791381    0.3475933695
      4  C         1.4138934523    1.2490394346    0.4426681755
      5  C         0.7184078026    0.1161540565    0.0760209693
      6  H         0.9218014101    2.1493311083    0.7932692757
      7  C        -0.7184078026   -0.1161540565    0.0760209693
      8  S        -1.8316732104    1.1534614573   -0.3993492955
      9  C        -1.4138934523   -1.2490394346    0.4426681755
     10  C        -3.2057377964    0.1437762472   -0.0825673772
     11  C        -2.8286208792   -1.1014791381    0.3475933695
     12  H        -3.5351462698   -1.8837411291    0.6007342301
     13  H         4.2053521524   -0.5273995272   -0.2346759032
     14  H         3.5351462698    1.8837411291    0.6007342301
     15  H        -4.2053521524    0.5273995272   -0.2346759032
     16  H        -0.9218014101   -2.1493311083    0.7932692757
   Point Group: c2    Number of degrees of freedom:    22


   Energy is  -1104.840452602

              Constraints and their Current Values
                                        Value     Constraint
   Dihedral:        4   5   7   9     -140.000     -140.000
 Hessian Updated using BFGS Update

 21 Hessian modes will be used to form the next step
  Hessian Eigenvalues:
     0.011721    0.021028    0.042856    0.045001    0.045235    0.050299
     0.159298    0.160038    0.160338    0.222552    0.249316    0.266996
     0.296620    0.315406    0.357374    0.359572    0.363032    0.384696
     0.433315    0.473114    0.531282

 Minimum Search - Taking Simple RFO Step
 Searching for Lamda that Minimizes Along All modes
 Value Taken    Lamda =   0.00000000
 Step Taken.  Stepsize is  0.001684

                             Maximum     Tolerance    Cnvgd?
         Gradient           0.000043      0.000300     YES
         Displacement       0.000940      0.001200     YES
         Energy change     -0.000000      0.000001     YES

 Final energy is   -1104.84045260200     


 ******************************
 **  OPTIMIZATION CONVERGED  **
 ******************************

                       Coordinates (Angstroms)
     ATOM                X               Y               Z
      1  S         1.8316732104   -1.1534614573   -0.3993492955
      2  C         3.2057377964   -0.1437762472   -0.0825673772
      3  C         2.8286208792    1.1014791381    0.3475933695
      4  C         1.4138934523    1.2490394346    0.4426681755
      5  C         0.7184078026    0.1161540565    0.0760209693
      6  H         0.9218014101    2.1493311083    0.7932692757
      7  C        -0.7184078026   -0.1161540565    0.0760209693
      8  S        -1.8316732104    1.1534614573   -0.3993492955
      9  C        -1.4138934523   -1.2490394346    0.4426681755
     10  C        -3.2057377964    0.1437762472   -0.0825673772
     11  C        -2.8286208792   -1.1014791381    0.3475933695
     12  H        -3.5351462698   -1.8837411291    0.6007342301
     13  H         4.2053521524   -0.5273995272   -0.2346759032
     14  H         3.5351462698    1.8837411291    0.6007342301
     15  H        -4.2053521524    0.5273995272   -0.2346759032
     16  H        -0.9218014101   -2.1493311083    0.7932692757

Z-matrix Print:
$molecule
0 1
S 
C  1 1.734321
H  2 1.081449 1 120.007785
C  2 1.370371 1 111.612762 3 -179.840196 0
H  4 1.084063 2 123.344020 1 -179.946681 0
C  4 1.425576 2 112.835871 1 -0.743173 0
H  6 1.084251 4 123.911605 2 -178.036237 0
C  6 1.378971 4 113.437182 2 0.374843 0
C  8 1.455475 6 128.977284 4 -178.347865 0
C  9 1.378971 8 128.977284 6 140.000025 0
H  10 1.084251 9 122.631292 8 0.086350 0
C  10 1.425576 9 113.437182 8 -178.347865 0
H  12 1.084063 10 123.814979 9 179.573992 0
C  12 1.370371 10 112.835871 9 0.374843 0
H  14 1.081449 12 128.379224 10 179.433354 0
S  14 1.734321 12 111.612762 10 -0.743173 0
$end

 
 --------------------------------------------------------------
             Orbital Energies (a.u.) and Symmetries
 --------------------------------------------------------------
 
 Alpha MOs, Restricted
 -- Occupied --                  
-88.920 -88.920 -10.238 -10.238 -10.225 -10.225 -10.204 -10.204
  1 B     1 A     2 A     2 B     3 B     3 A     4 A     4 B                  
-10.203 -10.203  -7.979  -7.979  -5.943  -5.943  -5.940  -5.940
  5 B     5 A     6 B     6 A     7 A     7 B     8 B     8 A                  
 -5.936  -5.936  -0.900  -0.878  -0.771  -0.748  -0.738  -0.705
  9 B     9 A    10 A    10 B    11 A    11 B    12 A    12 B                  
 -0.603  -0.578  -0.554  -0.534  -0.525  -0.478  -0.419  -0.418
 13 A    13 B    14 A    14 B    15 A    15 B    16 B    16 A                  
 -0.408  -0.405  -0.399  -0.377  -0.374  -0.356  -0.346  -0.274
 17 A    17 B    18 A    19 A    18 B    19 B    20 A    21 A                  
 -0.262  -0.261  -0.218
 20 B    22 A    21 B                                                          
 -- Virtual --                   
 -0.053  -0.009  -0.006  -0.003   0.007   0.009   0.017   0.022
 23 A    22 B    24 A    23 B    25 A    24 B    25 B    26 A                  
  0.030   0.035   0.038   0.045   0.046   0.054   0.058   0.061
 27 A    28 A    26 B    27 B    29 A    30 A    28 B    29 B                  
  0.071   0.080   0.091   0.094   0.101   0.102   0.106   0.109
 30 B    31 A    31 B    32 A    32 B    33 A    34 A    35 A                  
  0.120   0.123   0.130   0.132   0.134   0.135   0.137   0.137
 33 B    34 B    36 A    37 A    35 B    36 B    38 A    37 B                  
  0.149   0.152   0.161   0.163   0.165   0.173   0.178   0.178
 39 A    38 B    40 A    41 A    39 B    40 B    41 B    42 A                  
  0.186   0.191   0.206   0.208   0.209   0.224   0.224   0.229
 43 A    42 B    43 B    44 A    44 B    45 A    45 B    46 A                  
  0.236   0.248   0.259   0.268   0.270   0.276   0.282   0.287
 46 B    47 A    47 B    48 A    48 B    49 A    49 B    50 A                  
  0.313   0.316   0.324   0.341   0.355   0.357   0.377   0.388
 50 B    51 A    51 B    52 A    52 B    53 A    53 B    54 A                  
  0.433   0.455   0.466   0.517   0.522   0.538   0.540   0.567
 54 B    55 B    55 A    56 A    56 B    57 A    57 B    58 B                  
  0.581   0.602   0.614   0.624   0.652   0.656   0.668   0.678
 58 A    59 A    59 B    60 A    60 B    61 B    61 A    62 A                  
  0.692   0.699   0.720   0.727   0.732   0.743   0.758   0.773
 62 B    63 A    63 B    64 A    64 B    65 B    65 A    66 A                  
  0.785   0.814   0.815   0.832   0.837   0.869   0.917   0.942
 66 B    67 A    67 B    68 B    68 A    69 A    69 B    70 A                  
  0.948   0.957   0.961   0.962   0.967   0.989   1.000   1.014
 70 B    71 B    71 A    72 A    72 B    73 A    73 B    74 B                  
  1.019   1.030   1.052   1.065   1.088   1.096   1.114   1.115
 75 B    74 A    75 A    76 A    77 A    76 B    78 A    77 B                  
  1.148   1.177   1.195   1.218   1.247   1.270   1.317   1.344
 78 B    79 A    80 A    79 B    81 A    80 B    81 B    82 A                  
  1.349   1.353   1.361   1.382   1.463   1.464   1.498   1.532
 82 B    83 A    83 B    84 A    85 A    84 B    85 B    86 B                  
  1.561   1.685   1.694   1.744   1.799   1.866   1.868   1.888
 86 A    87 A    87 B    88 A    89 A    88 B    90 A    89 B                  
  1.921   1.921   1.950   1.980   2.005   2.041   2.078   2.094
 90 B    91 A    92 A    91 B    93 A    92 B    94 A    93 B                  
  2.114   2.152   2.175   2.184   2.236   2.243   2.257   2.334
 94 B    95 A    96 A    95 B    96 B    97 A    97 B    98 A                  
  2.365   2.368   2.421   2.447   2.457   2.466   2.494   2.505
 98 B    99 A    99 B   100 A   100 B   101 A   101 B   102 A                  
  2.528   2.530   2.582   2.586   2.600   2.658   2.693   2.717
103 A   102 B   103 B   104 A   104 B   105 A   106 A   105 B                  
  2.744   2.851   2.859   2.910   2.931   3.147   3.197   3.269
106 B   107 A   107 B   108 A   108 B   109 B   109 A   110 B                  
  3.272   3.403   3.426   3.721   3.742   3.974   3.975   4.251
110 A   111 A   111 B   112 A   112 B   113 B   113 A   114 A                  
  4.305   4.317   4.329   4.417   4.537   4.657   4.712
115 A   114 B   115 B   116 A   116 B   117 A   117 B                          
 
 Beta MOs, Restricted
 -- Occupied --                  
-88.920 -88.920 -10.238 -10.238 -10.225 -10.225 -10.204 -10.204
  1 B     1 A     2 A     2 B     3 B     3 A     4 A     4 B                  
-10.203 -10.203  -7.979  -7.979  -5.943  -5.943  -5.940  -5.940
  5 B     5 A     6 B     6 A     7 A     7 B     8 B     8 A                  
 -5.936  -5.936  -0.900  -0.878  -0.771  -0.748  -0.738  -0.705
  9 B     9 A    10 A    10 B    11 A    11 B    12 A    12 B                  
 -0.603  -0.578  -0.554  -0.534  -0.525  -0.478  -0.419  -0.418
 13 A    13 B    14 A    14 B    15 A    15 B    16 B    16 A                  
 -0.408  -0.405  -0.399  -0.377  -0.374  -0.356  -0.346  -0.274
 17 A    17 B    18 A    19 A    18 B    19 B    20 A    21 A                  
 -0.262  -0.261  -0.218
 20 B    22 A    21 B                                                          
 -- Virtual --                   
 -0.053  -0.009  -0.006  -0.003   0.007   0.009   0.017   0.022
 23 A    22 B    24 A    23 B    25 A    24 B    25 B    26 A                  
  0.030   0.035   0.038   0.045   0.046   0.054   0.058   0.061
 27 A    28 A    26 B    27 B    29 A    30 A    28 B    29 B                  
  0.071   0.080   0.091   0.094   0.101   0.102   0.106   0.109
 30 B    31 A    31 B    32 A    32 B    33 A    34 A    35 A                  
  0.120   0.123   0.130   0.132   0.134   0.135   0.137   0.137
 33 B    34 B    36 A    37 A    35 B    36 B    38 A    37 B                  
  0.149   0.152   0.161   0.163   0.165   0.173   0.178   0.178
 39 A    38 B    40 A    41 A    39 B    40 B    41 B    42 A                  
  0.186   0.191   0.206   0.208   0.209   0.224   0.224   0.229
 43 A    42 B    43 B    44 A    44 B    45 A    45 B    46 A                  
  0.236   0.248   0.259   0.268   0.270   0.276   0.282   0.287
 46 B    47 A    47 B    48 A    48 B    49 A    49 B    50 A                  
  0.313   0.316   0.324   0.341   0.355   0.357   0.377   0.388
 50 B    51 A    51 B    52 A    52 B    53 A    53 B    54 A                  
  0.433   0.455   0.466   0.517   0.522   0.538   0.540   0.567
 54 B    55 B    55 A    56 A    56 B    57 A    57 B    58 B                  
  0.581   0.602   0.614   0.624   0.652   0.656   0.668   0.678
 58 A    59 A    59 B    60 A    60 B    61 B    61 A    62 A                  
  0.692   0.699   0.720   0.727   0.732   0.743   0.758   0.773
 62 B    63 A    63 B    64 A    64 B    65 B    65 A    66 A                  
  0.785   0.814   0.815   0.832   0.837   0.869   0.917   0.942
 66 B    67 A    67 B    68 B    68 A    69 A    69 B    70 A                  
  0.948   0.957   0.961   0.962   0.967   0.989   1.000   1.014
 70 B    71 B    71 A    72 A    72 B    73 A    73 B    74 B                  
  1.019   1.030   1.052   1.065   1.088   1.096   1.114   1.115
 75 B    74 A    75 A    76 A    77 A    76 B    78 A    77 B                  
  1.148   1.177   1.195   1.218   1.247   1.270   1.317   1.344
 78 B    79 A    80 A    79 B    81 A    80 B    81 B    82 A                  
  1.349   1.353   1.361   1.382   1.463   1.464   1.498   1.532
 82 B    83 A    83 B    84 A    85 A    84 B    85 B    86 B                  
  1.561   1.685   1.694   1.744   1.799   1.866   1.868   1.888
 86 A    87 A    87 B    88 A    89 A    88 B    90 A    89 B                  
  1.921   1.921   1.950   1.980   2.005   2.041   2.078   2.094
 90 B    91 A    92 A    91 B    93 A    92 B    94 A    93 B                  
  2.114   2.152   2.175   2.184   2.236   2.243   2.257   2.334
 94 B    95 A    96 A    95 B    96 B    97 A    97 B    98 A                  
  2.365   2.368   2.421   2.447   2.457   2.466   2.494   2.505
 98 B    99 A    99 B   100 A   100 B   101 A   101 B   102 A                  
  2.528   2.530   2.582   2.586   2.600   2.658   2.693   2.717
103 A   102 B   103 B   104 A   104 B   105 A   106 A   105 B                  
  2.744   2.851   2.859   2.910   2.931   3.147   3.197   3.269
106 B   107 A   107 B   108 A   108 B   109 B   109 A   110 B                  
  3.272   3.403   3.426   3.721   3.742   3.974   3.975   4.251
110 A   111 A   111 B   112 A   112 B   113 B   113 A   114 A                  
  4.305   4.317   4.329   4.417   4.537   4.657   4.712
115 A   114 B   115 B   116 A   116 B   117 A   117 B                          
 --------------------------------------------------------------
 
          Ground-State Mulliken Net Atomic Charges

     Atom                 Charge (a.u.)
  ----------------------------------------
      1 S                    -0.020983
      2 C                    -0.034813
      3 C                    -0.408557
      4 C                     0.274563
      5 C                    -0.245729
      6 H                     0.132931
      7 C                    -0.245729
      8 S                    -0.020983
      9 C                     0.274563
     10 C                    -0.034813
     11 C                    -0.408557
     12 H                     0.114883
     13 H                     0.187705
     14 H                     0.114883
     15 H                     0.187705
     16 H                     0.132931
  ----------------------------------------
  Sum of atomic charges =     0.000000

 -----------------------------------------------------------------
                    Cartesian Multipole Moments
 -----------------------------------------------------------------
    Charge (ESU x 10^10)
                 0.0000
    Dipole Moment (Debye)
         X      -0.0000      Y       0.0000      Z       0.4326
       Tot       0.4326
    Quadrupole Moments (Debye-Ang)
        XX     -61.1610     XY       1.4214     YY     -69.1785
        XZ      -0.0000     YZ       0.0000     ZZ     -77.6356
    Octopole Moments (Debye-Ang^2)
       XXX       0.0000    XXY      -0.0000    XYY      -0.0000
       YYY       0.0000    XXZ      -1.8349    XYZ       8.3057
       YYZ       6.2286    XZZ       0.0000    YZZ       0.0000
       ZZZ      -0.1822
    Hexadecapole Moments (Debye-Ang^3)
      XXXX   -1888.6996   XXXY     -20.3196   XXYY    -420.5788
      XYYY      14.7754   YYYY    -526.6944   XXXZ       0.0000
      XXYZ       0.0000   XYYZ      -0.0000   YYYZ       0.0000
      XXZZ    -425.4528   XYZZ      -3.6410   YYZZ    -117.6269
      XZZZ       0.0000   YZZZ       0.0000   ZZZZ    -160.9613
 -----------------------------------------------------------------
Archival summary:
1\1\nid01043\OPT\ProcedureUnspecified\BasisUnspecified\286\FriSep218:58:332016FriSep218:58:332016\0\\#,OPT,ProcedureUnspecified,BasisUnspecified,\\0,1\S\C,1,1.73432\H,2,1.08145,1,120.008\C,2,1.37037,1,111.613,3,-179.84,0\H,4,1.08406,2,123.344,1,-179.947,0\C,4,1.42558,2,112.836,1,-0.743173,0\H,6,1.08425,4,123.912,2,-178.036,0\C,6,1.37897,4,113.437,2,0.374843,0\C,8,1.45547,6,128.977,4,-178.348,0\C,9,1.37897,8,128.977,6,140,0\H,10,1.08425,9,122.631,8,0.0863502,0\C,10,1.42558,9,113.437,8,-178.348,0\H,12,1.08406,10,123.815,9,179.574,0\C,12,1.37037,10,112.836,9,0.374843,0\H,14,1.08145,12,128.379,10,179.433,0\S,14,1.73432,12,111.613,10,-0.743173,0\\\@

 Total job time:  69.88s(wall), 78.65s(cpu) 
 Fri Sep  2 18:58:33 2016

        *************************************************************
        *                                                           *
        *  Thank you very much for using Q-Chem.  Have a nice day.  *
        *                                                           *
        *************************************************************


0 sent ACK to 0 
now end server 0 ... 
