srun -N 1 --ntasks-per-node 16 --nodelist nid01043 /global/project/projectdirs/jcesr/qchem/qc44/cnl_qc441/dist/exe/qcprog.cori.exe .pt_dft_40.0.in.60134.qcin.1 /dev/shm/eg_qchem/qchem60134/
Process 0 of 16 is on nid01043 - thread support 0
Process 1 of 16 is on nid01043 - thread support 0
Process 2 of 16 is on nid01043 - thread support 0
Process 3 of 16 is on nid01043 - thread support 0
Process 4 of 16 is on nid01043 - thread support 0
Process 5 of 16 is on nid01043 - thread support 0
Process 6 of 16 is on nid01043 - thread support 0
Process 15 of 16 is on nid01043 - thread support 0
initial socket setup ...start
initial socket setup ...done 
now start server 0 ... 
nid01043 10.128.4
Q-Chem Developer Version! Running on 10.128.4.*
                  Welcome to Q-Chem
     A Quantum Leap Into The Future Of Chemistry


 Q-Chem 4.4, Q-Chem, Inc., Pleasanton, CA (2016)

 Y. Shao,  Z. Gan,  E. Epifanovsky,  A. T. B. Gilbert,  M. Wormit,  
 J. Kussmann,  A. W. Lange,  A. Behn,  J. Deng,  X. Feng,  D. Ghosh,  
 M. Goldey,  P. R. Horn,  L. D. Jacobson,  I. Kaliman,  F.Rob,  
 R. Z. Khaliullin,  T. Kus,  A. Landau,  J. Liu,  E. I. Proynov,  Y. M. Rhee,  
 R. M. Richard,  M. A. Rohrdanz,  R. P. Steele,  E. J. Sundstrom,  
 H. L. Woodcock III,  P. M. Zimmerman,  D. Zuev,  B. Albrecht,  E. Alguire,  
 B. Austin,  S. A. Baeppler,  G. J. O. Beran,  Y. A. Bernard,  E. Berquist,  
 K. Brandhorst,  K. B. Bravaya,  S. T. Brown,  D. Casanova,  C.-M. Chang,  
 Y. Chen,  S. H. Chien,  K. D. Closser,  M. P. Coons,  D. L. Crittenden,  
 S. Dasgupta,  M. Diedenhofen,  R. A. DiStasio Jr.,  H. Do,  A. D. Dutoi,  
 R. G. Edgar,  P.-T. Fang,  S. Fatehi,  Q. Feng,  L. Fusti-Molnar,  
 A. Ghysels,  A. Golubeva-Zadorozhnaya,  J. Gomes,  A. Gunina,  
 M. W. D. Hanson-Heine,  P. H. P. Harbach,  A. W. Hauser,  E. G. Hohenstein,  
 Z. C. Holden,  K. Hui,  T.-C. Jagau,  H. Ji,  B. Kaduk,  K. Khistyaev,  
 Jaehoon Kim,  Jihan Kim,  R. A. King,  P. Klunzinger,  D. Kosenkov,  
 T. Kowalczyk,  C. M. Krauter,  A. Kunitsa,  K. U. Lao,  A. Laurent,  
 K. V. Lawler,  D. Lefrancois,  S. Lehtola,  S. V. Levchenko,  C. Y. Lin,  
 Y.-S. Lin,  F. Liu,  E. Livshits,  R. C. Lochan,  A. Luenser,  P. Manohar,  
 S. F. Manzer,  S.-P. Mao,  Y. Mao,  N. Mardirossian,  A. V. Marenich,  
 L. A. Martinez-Martinez,  S. A. Maurer,  N. J. Mayhall,  J.-M. Mewes,  
 A. F. Morrison,  K. Nanda,  C. M. Oana,  R. Olivares-Amaya,  D. P. O'Neill,  
 J. A. Parkhill,  T. M. Perrine,  R. Peverati,  P. A. Pieniazek,  F. Plasser,  
 A. Prociuk,  D. R. Rehn,  E. Rosta,  N. J. Russ,  N. Sergueev,  
 S. M. Sharada,  S. Sharma,  D. W. Small,  A. Sodt,  T. Stauch,  T. Stein,  
 D. Stuck,  Y.-C. Su,  A. J. W. Thom,  T. Tsuchimochi,  L. Vogt,  O. Vydrov,  
 T. Wang,  M. A. Watson,  J. Wenzel,  A. White,  C. F. Williams,  
 V. Vanovschi,  S. Yeganeh,  S. R. Yost,  Z.-Q. You,  I. Y. Zhang,  X. Zhang,  
 Y. Zhao,  B. R. Brooks,  G. K. L. Chan,  D. M. Chipman,  C. J. Cramer,  
 W. A. Goddard III,  M. S. Gordon,  W. J. Hehre,  A. Klamt,  
 H. F. Schaefer III,  M. W. Schmidt,  C. D. Sherrill,  D. G. Truhlar,  
 A. Warshel,  X. Xu,  A. Aspuru-Guzik,  R. Baer,  A. T. Bell,  N. A. Besley,  
 J.-D. Chai,  A. Dreuw,  B. D. Dunietz,  T. R. Furlani,  S. R. Gwaltney,  
 C.-P. Hsu,  Y. Jung,  J. Kong,  D. S. Lambrecht,  W. Liang,  C. Ochsenfeld,  
 V. A. Rassolov,  L. V. Slipchenko,  J. E. Subotnik,  T. Van Voorhis,  
 J. M. Herbert,  A. I. Krylov,  P. M. W. Gill,  M. Head-Gordon

 Contributors to earlier versions of Q-Chem not listed above: 
 R. D. Adamson,  J. Baker,  E. F. C. Byrd,  A. K. Chakraborty,  C.-L. Cheng,  
 H. Dachsel,  R. J. Doerksen,  G. Hawkins,  A. Heyden,  S. Hirata,  
 G. Kedziora,  F. J. Keil,  C. Kelley,  P. P. Korambath,  W. Kurlancheek,  
 A. M. Lee,  M. S. Lee,  D. Liotard,  I. Lotan,  P. E. Maslen,  N. Nair,  
 D. Neuhauser,  R. Olson,  B. Peters,  J. Ritchie,  N. E. Schultz,  
 N. Shenvi,  A. C. Simmonett,  K. S. Thanthiriwatte,  Q. Wu,  W. Zhang

 Please cite Q-Chem as follows:
 Y. Shao et al., Mol. Phys. 113, 184-215 (2015)
 DOI: 10.1080/00268976.2014.952696

 Q-Chem 4.4.1 for Intel X86 EM64T Linux

 Parts of Q-Chem use Armadillo 5.200.1 (Boston Tea Smuggler).
 http://arma.sourceforge.net/

 Q-Chem begins on Fri Sep  2 18:45:13 2016  

Host: nid01043
0

     Scratch files written to /dev/shm/eg_qchem/qchem60134.0//
 Parallel job on  16  processors

Checking the input file for inconsistencies... 	...done.

--------------------------------------------------------------
User input:
--------------------------------------------------------------
$comment
<SCF Fix Strategy>{
    "current_method_id": 1, 
    "methods": [
        "increase_iter", 
        "rca_diis", 
        "gwh", 
        "gdm", 
        "rca", 
        "core+rca", 
        "fon"
    ], 
    "version": 2.0
}</SCF Fix Strategy>
$end


$molecule
 0  1
 S           1.82267924       -1.19997629        0.28714109
 C           3.20006180       -0.17260711        0.06528466
 C           2.82980603        1.10216298       -0.25610036
 C           1.41909100        1.26345446       -0.34254814
 C           0.71738150        0.10901545       -0.08456145
 H           0.93627498        2.19419272       -0.61095402
 C          -0.71741859       -0.10899254       -0.08455524
 S          -1.46932282       -1.12578174        1.12956371
 C          -1.66904754        0.38135834       -0.94806031
 C          -3.04467512       -0.85025707        0.46304906
 C          -2.99100730       -0.04147350       -0.63622591
 H          -3.86573943        0.25312199       -1.20082403
 H           4.19429620       -0.57452886        0.18632814
 H           3.53860725        1.89960515       -0.43610218
 H          -3.90911709       -1.30253514        0.92443747
 H          -1.42867370        1.04619979       -1.76759251
$end


$rem
         jobtype = opt
        exchange = b3lyp
           basis = 6-31++g**
  max_scf_cycles = 200
      mem_static = 100
       mem_total = 1500
   scf_algorithm = rca_diis
       scf_guess = sad
$end


$opt
CONSTRAINT
tors 4 5 7 9 40.0
ENDCONSTRAINT
$end

--------------------------------------------------------------
 Atom   8: ( -1.6437813798,  0.4313897708,  1.0837744896)
         ->( -1.6437814844,  0.4313898524,  1.0837744643)
 Atom  10: ( -3.1456300770,  0.0924810293,  0.2891161684)
         ->( -3.1456300736,  0.0924808707,  0.2891160839)
 Atom  11: ( -2.9492758124, -0.3678848741, -0.9816807452)
         ->( -2.9492757101, -0.3678851927, -0.9816807135)
 Atom   9: ( -1.5739340001, -0.4393934133, -1.3379481912)
         ->( -1.5739339187, -0.4393931145, -1.3379483513)
 Atom   7: ( -0.7248363413, -0.0340149445, -0.3347612132)
         ->( -0.7248362824, -0.0340149472, -0.3347611664)
 Atom  16: ( -1.2212052723, -0.7555322380, -2.3111210698)
         ->( -1.2212051445, -0.7555316187, -2.3111213022)
 Atom  14: (  3.7580524241,  0.6380091996, -1.6477340799)
         ->(  3.7580525790,  0.6380086858, -1.6477341268)
 Atom  15: ( -4.0768115979,  0.2542308044,  0.8101081283)
         ->( -4.0768116825,  0.2542304797,  0.8101079597)
 ----------------------------------------------------------------
             Standard Nuclear Orientation (Angstroms)
    I     Atom           X                Y                Z
 ----------------------------------------------------------------
    1      S       1.6437814844    -0.4313898524     1.0837744643
    2      C       3.1456300736    -0.0924808707     0.2891160839
    3      C       2.9492757101     0.3678851927    -0.9816807135
    4      C       1.5739339187     0.4393931145    -1.3379483513
    5      C       0.7248362824     0.0340149472    -0.3347611664
    6      H       1.2212051445     0.7555316187    -2.3111213022
    7      C      -0.7248362824    -0.0340149472    -0.3347611664
    8      S      -1.6437814844     0.4313898524     1.0837744643
    9      C      -1.5739339187    -0.4393931145    -1.3379483513
   10      C      -3.1456300736     0.0924808707     0.2891160839
   11      C      -2.9492757101    -0.3678851927    -0.9816807135
   12      H      -3.7580525790    -0.6380086858    -1.6477341268
   13      H       4.0768116825    -0.2542304797     0.8101079597
   14      H       3.7580525790     0.6380086858    -1.6477341268
   15      H      -4.0768116825     0.2542304797     0.8101079597
   16      H      -1.2212051445    -0.7555316187    -2.3111213022
 ----------------------------------------------------------------
 Molecular Point Group                 C2    NOp =  2
 Largest Abelian Subgroup              C2    NOp =  2
 Nuclear Repulsion Energy =   632.8137990815 hartrees
 There are       43 alpha and       43 beta electrons
 Requested basis set is 6-31++G(d,p)
 There are 76 shells and 234 basis functions

 Total QAlloc Memory Limit   1500 MB
 Mega-Array Size        98 MB
 MEM_STATIC part       100 MB
 A cutoff of  1.0D-12 yielded   2527 shell pairs
 There are     24871 function pairs
 
 -------------------------------------------------------
 OpenMP Integral Computing Module                       
 Release: version 1.0, May 2013, Q-Chem Inc. Pittsburgh 
 -------------------------------------------------------
 Integral Job Info:
 Integral job number is                      11
 Integral operator is                         1
 short-range coefficients                     0
 long-range coefficients              100000000
 Omega coefficients                           0
 if combine SR and LR in K                    0
 Integral screening is                        0
 Integral computing path is                   2
 max size of driver memory is            800000
 size of driver memory is                593474
 size of scratch memory is             15166112
 max col of scratch BK array               1296
 max len of scratch array in speh3          155
 max len of scratch index in speh4           18
 max int batch size is                      520
 min int batch size is                       52
 fixed nKL is                                52
 max L of basis functions is                  2
 order of int derivative is                   0
 number of shells is                         76
 number of basis is                         234
 number of cartesian basis is               234
 number of contracted shell pairs          2527
 number of primitive shell pairs           8253
 maxK2 (contraction) of shell pair           36
 max number of K2 of shell pair               1
 max number of CS2 of shell pair            260
 max number of PS2 of shell pair           1500
 mem total for path MDJ                   51992
 -------------------------------------------------------
 Smallest overlap matrix eigenvalue = 1.04E-06

 Scale SEOQF with 1.000000e-01/1.000000e-01/1.000000e-01

 Standard Electronic Orientation quadrupole field applied
 Nucleus-field energy     =     0.0000000058 hartrees
 Guess from superposition of atomic densities
 Warning:  Energy on first SCF cycle will be non-variational
 A restricted hybrid HF-DFT SCF calculation will be
 performed using Relaxed Constraint Minimization + Pulay DIIS
 Exchange:     0.2000 Hartree-Fock + 0.0800 Slater + 0.7200 B88
 Correlation:  0.1900 VWN1RPA + 0.8100 LYP
 Using SG-1 standard quadrature grid
 SCF converges when DIIS error is below 1.0E-08
 ---------------------------------------
  Cycle       Energy         DIIS Error
 ---------------------------------------
    1   -1107.2332129490      4.44E-02
 Inaccurate integrated density:
   Number of electrons =    86
   Numerical integral  =    85.975140506796
   Relative error      =    -0.0289063874 %
 Inaccurate integrated density:
   Number of electrons =    86
   Numerical integral  =    85.975140506796
   Relative error      =    -0.0289063874 %
    2   -1083.4494011151      1.11E-01
    3   -1101.2634981702      2.28E-02
    4   -1101.8487612189      1.33E-02
    5   -1103.1150595674      1.18E-02
    6   -1104.5688495394      7.70E-03
    7   -1104.6517904027      4.63E-03
    8   -1104.8296709915      1.10E-03
    9   -1104.8333222810      2.70E-04 Done RCA. Switching to DIIS
   10   -1104.8379063296      3.82E-04
   11   -1104.8389959989      4.31E-05
   12   -1104.8390093388      1.58E-05
   13   -1104.8390111811      3.16E-06
   14   -1104.8390116804      1.65E-06
   15   -1104.8390118773      4.30E-07
   16   -1104.8390119855      6.35E-08
   17   -1104.8390119777      1.01E-08
   18   -1104.8390120567      3.28E-09 Convergence criterion met
 ---------------------------------------
 SCF time:  CPU 9.57 s  wall 8.16 s
 SCF   energy in the final basis set = -1104.8390120567
 Total energy in the final basis set = -1104.8390120567
 
 --------------------------------------------------------------
             Orbital Energies (a.u.) and Symmetries
 --------------------------------------------------------------
 
 Alpha MOs, Restricted
 -- Occupied --                  
-88.919 -88.919 -10.237 -10.237 -10.223 -10.223 -10.203 -10.203
  1 B     1 A     2 A     2 B     3 B     3 A     4 B     4 A                  
-10.202 -10.202  -7.978  -7.978  -5.942  -5.942  -5.939  -5.939
  5 B     5 A     6 B     6 A     7 B     7 A     8 B     8 A                  
 -5.936  -5.936  -0.901  -0.879  -0.772  -0.748  -0.738  -0.706
  9 A     9 B    10 A    10 B    11 A    12 A    11 B    12 B                  
 -0.604  -0.577  -0.557  -0.534  -0.526  -0.477  -0.420  -0.417
 13 A    14 A    13 B    14 B    15 A    15 B    16 A    17 A                  
 -0.411  -0.405  -0.399  -0.375  -0.375  -0.356  -0.346  -0.274
 16 B    17 B    18 A    18 B    19 A    20 A    19 B    20 B                  
 -0.262  -0.261  -0.218
 21 B    21 A    22 A                                                          
 -- Virtual --                   
 -0.051  -0.016  -0.005  -0.001   0.005   0.016   0.017   0.027
 22 B    23 A    24 A    23 B    25 A    26 A    24 B    27 A                  
  0.030   0.035   0.038   0.046   0.047   0.054   0.057   0.068
 25 B    26 B    28 A    27 B    29 A    28 B    30 A    29 B                  
  0.071   0.077   0.093   0.094   0.101   0.104   0.107   0.113
 31 A    30 B    31 B    32 A    32 B    33 A    34 A    35 A                  
  0.114   0.123   0.124   0.132   0.135   0.137   0.141   0.144
 33 B    34 B    36 A    37 A    35 B    36 B    38 A    39 A                  
  0.150   0.151   0.158   0.164   0.169   0.174   0.177   0.184
 37 B    40 A    38 B    39 B    41 A    40 B    42 A    43 A                  
  0.184   0.190   0.194   0.206   0.210   0.219   0.228   0.230
 41 B    42 B    44 A    43 B    44 B    45 A    45 B    46 A                  
  0.243   0.251   0.264   0.265   0.265   0.273   0.302   0.312
 46 B    47 B    48 B    47 A    48 A    49 A    49 B    50 A                  
  0.314   0.317   0.323   0.328   0.355   0.366   0.374   0.392
 51 A    50 B    51 B    52 A    53 A    52 B    53 B    54 A                  
  0.436   0.454   0.469   0.501   0.527   0.537   0.554   0.565
 54 B    55 A    56 A    55 B    57 A    56 B    57 B    58 B                  
  0.567   0.607   0.620   0.626   0.654   0.660   0.670   0.678
 58 A    59 A    59 B    60 A    61 A    60 B    61 B    62 A                  
  0.696   0.714   0.722   0.727   0.727   0.742   0.746   0.751
 63 A    62 B    64 A    63 B    65 A    64 B    65 B    66 A                  
  0.796   0.799   0.815   0.828   0.848   0.891   0.912   0.947
 67 A    66 B    67 B    68 A    68 B    69 A    69 B    70 A                  
  0.949   0.950   0.956   0.968   0.972   0.993   0.996   1.014
 70 B    71 A    71 B    72 A    72 B    73 A    73 B    74 A                  
  1.016   1.052   1.057   1.072   1.084   1.089   1.111   1.111
 74 B    75 A    75 B    76 A    76 B    77 A    78 A    77 B                  
  1.128   1.177   1.191   1.226   1.242   1.268   1.337   1.341
 78 B    79 A    80 A    79 B    80 B    81 A    81 B    82 A                  
  1.351   1.358   1.363   1.388   1.436   1.478   1.501   1.551
 82 B    83 A    83 B    84 A    84 B    85 B    85 A    86 A                  
  1.589   1.682   1.694   1.743   1.788   1.876   1.886   1.896
 86 B    87 B    87 A    88 B    88 A    89 A    90 A    89 B                  
  1.913   1.929   1.941   1.979   2.015   2.031   2.069   2.079
 90 B    91 A    92 A    91 B    92 B    93 A    94 A    93 B                  
  2.140   2.153   2.181   2.203   2.239   2.246   2.269   2.300
 95 A    94 B    95 B    96 A    96 B    97 A    97 B    98 A                  
  2.367   2.369   2.433   2.452   2.465   2.473   2.501   2.509
 99 A    98 B    99 B   100 A   100 B   101 A   101 B   102 A                  
  2.520   2.548   2.585   2.596   2.597   2.672   2.699   2.720
102 B   103 A   104 A   105 A   103 B   104 B   105 B   106 A                  
  2.778   2.785   2.869   2.916   2.968   3.151   3.211   3.276
106 B   107 A   108 A   107 B   108 B   109 A   109 B   110 A                  
  3.277   3.408   3.433   3.723   3.757   3.950   4.002   4.255
110 B   111 A   111 B   112 A   112 B   113 A   113 B   114 A                  
  4.311   4.322   4.335   4.413   4.544   4.656   4.729
115 A   114 B   115 B   116 A   116 B   117 A   117 B                          
 
 Beta MOs, Restricted
 -- Occupied --                  
-88.919 -88.919 -10.237 -10.237 -10.223 -10.223 -10.203 -10.203
  1 B     1 A     2 A     2 B     3 B     3 A     4 B     4 A                  
-10.202 -10.202  -7.978  -7.978  -5.942  -5.942  -5.939  -5.939
  5 B     5 A     6 B     6 A     7 B     7 A     8 B     8 A                  
 -5.936  -5.936  -0.901  -0.879  -0.772  -0.748  -0.738  -0.706
  9 A     9 B    10 A    10 B    11 A    12 A    11 B    12 B                  
 -0.604  -0.577  -0.557  -0.534  -0.526  -0.477  -0.420  -0.417
 13 A    14 A    13 B    14 B    15 A    15 B    16 A    17 A                  
 -0.411  -0.405  -0.399  -0.375  -0.375  -0.356  -0.346  -0.274
 16 B    17 B    18 A    18 B    19 A    20 A    19 B    20 B                  
 -0.262  -0.261  -0.218
 21 B    21 A    22 A                                                          
 -- Virtual --                   
 -0.051  -0.016  -0.005  -0.001   0.005   0.016   0.017   0.027
 22 B    23 A    24 A    23 B    25 A    26 A    24 B    27 A                  
  0.030   0.035   0.038   0.046   0.047   0.054   0.057   0.068
 25 B    26 B    28 A    27 B    29 A    28 B    30 A    29 B                  
  0.071   0.077   0.093   0.094   0.101   0.104   0.107   0.113
 31 A    30 B    31 B    32 A    32 B    33 A    34 A    35 A                  
  0.114   0.123   0.124   0.132   0.135   0.137   0.141   0.144
 33 B    34 B    36 A    37 A    35 B    36 B    38 A    39 A                  
  0.150   0.151   0.158   0.164   0.169   0.174   0.177   0.184
 37 B    40 A    38 B    39 B    41 A    40 B    42 A    43 A                  
  0.184   0.190   0.194   0.206   0.210   0.219   0.228   0.230
 41 B    42 B    44 A    43 B    44 B    45 A    45 B    46 A                  
  0.243   0.251   0.264   0.265   0.265   0.273   0.302   0.312
 46 B    47 B    48 B    47 A    48 A    49 A    49 B    50 A                  
  0.314   0.317   0.323   0.328   0.355   0.366   0.374   0.392
 51 A    50 B    51 B    52 A    53 A    52 B    53 B    54 A                  
  0.436   0.454   0.469   0.501   0.527   0.537   0.554   0.565
 54 B    55 A    56 A    55 B    57 A    56 B    57 B    58 B                  
  0.567   0.607   0.620   0.626   0.654   0.660   0.670   0.678
 58 A    59 A    59 B    60 A    61 A    60 B    61 B    62 A                  
  0.696   0.714   0.722   0.727   0.727   0.742   0.746   0.751
 63 A    62 B    64 A    63 B    65 A    64 B    65 B    66 A                  
  0.796   0.799   0.815   0.828   0.848   0.891   0.912   0.947
 67 A    66 B    67 B    68 A    68 B    69 A    69 B    70 A                  
  0.949   0.950   0.956   0.968   0.972   0.993   0.996   1.014
 70 B    71 A    71 B    72 A    72 B    73 A    73 B    74 A                  
  1.016   1.052   1.057   1.072   1.084   1.089   1.111   1.111
 74 B    75 A    75 B    76 A    76 B    77 A    78 A    77 B                  
  1.128   1.177   1.191   1.226   1.242   1.268   1.337   1.341
 78 B    79 A    80 A    79 B    80 B    81 A    81 B    82 A                  
  1.351   1.358   1.363   1.388   1.436   1.478   1.501   1.551
 82 B    83 A    83 B    84 A    84 B    85 B    85 A    86 A                  
  1.589   1.682   1.694   1.743   1.788   1.876   1.886   1.896
 86 B    87 B    87 A    88 B    88 A    89 A    90 A    89 B                  
  1.913   1.929   1.941   1.979   2.015   2.031   2.069   2.079
 90 B    91 A    92 A    91 B    92 B    93 A    94 A    93 B                  
  2.140   2.153   2.181   2.203   2.239   2.246   2.269   2.300
 95 A    94 B    95 B    96 A    96 B    97 A    97 B    98 A                  
  2.367   2.369   2.433   2.452   2.465   2.473   2.501   2.509
 99 A    98 B    99 B   100 A   100 B   101 A   101 B   102 A                  
  2.520   2.548   2.585   2.596   2.597   2.672   2.699   2.720
102 B   103 A   104 A   105 A   103 B   104 B   105 B   106 A                  
  2.778   2.785   2.869   2.916   2.968   3.151   3.211   3.276
106 B   107 A   108 A   107 B   108 B   109 A   109 B   110 A                  
  3.277   3.408   3.433   3.723   3.757   3.950   4.002   4.255
110 B   111 A   111 B   112 A   112 B   113 A   113 B   114 A                  
  4.311   4.322   4.335   4.413   4.544   4.656   4.729
115 A   114 B   115 B   116 A   116 B   117 A   117 B                          
 --------------------------------------------------------------
 
          Ground-State Mulliken Net Atomic Charges

     Atom                 Charge (a.u.)
  ----------------------------------------
      1 S                    -0.045803
      2 C                    -0.050264
      3 C                    -0.394157
      4 C                     0.293449
      5 C                    -0.243237
      6 H                     0.136963
      7 C                    -0.243237
      8 S                    -0.045803
      9 C                     0.293449
     10 C                    -0.050264
     11 C                    -0.394157
     12 H                     0.115465
     13 H                     0.187585
     14 H                     0.115465
     15 H                     0.187585
     16 H                     0.136963
  ----------------------------------------
  Sum of atomic charges =     0.000000

 -----------------------------------------------------------------
                    Cartesian Multipole Moments
 -----------------------------------------------------------------
    Charge (ESU x 10^10)
                 0.0000
    Dipole Moment (Debye)
         X       0.0000      Y      -0.0000      Z      -0.9886
       Tot       0.9886
    Quadrupole Moments (Debye-Ang)
        XX     -60.9321     XY       0.5840     YY     -77.5841
        XZ       0.0000     YZ      -0.0000     ZZ     -68.7216
    Octopole Moments (Debye-Ang^2)
       XXX       0.0000    XXY      -0.0000    XYY       0.0000
       YYY      -0.0000    XXZ       5.5304    XYZ      -9.4029
       YYZ       1.5539    XZZ      -0.0000    YZZ       0.0000
       ZZZ      -6.1645
    Hexadecapole Moments (Debye-Ang^3)
      XXXX   -1866.7002   XXXY      -2.7320   XXYY    -417.2308
      XYYY      -6.1794   YYYY    -165.7244   XXXZ       0.0000
      XXYZ       0.0000   XYYZ       0.0000   YYYZ      -0.0000
      XXZZ    -404.6541   XYZZ       8.1299   YYZZ    -116.0447
      XZZZ      -0.0000   YZZZ       0.0000   ZZZZ    -509.1180
 -----------------------------------------------------------------
 Calculating analytic gradient of the SCF energy
 Gradient of SCF Energy
            1           2           3           4           5           6
    1  -0.0010682   0.0000497  -0.0013283   0.0010419  -0.0012648   0.0009556
    2   0.0016854  -0.0003449   0.0012784   0.0019935  -0.0009586  -0.0022826
    3  -0.0007162  -0.0040718   0.0030274   0.0039554  -0.0027811   0.0004181
            7           8           9          10          11          12
    1   0.0012648   0.0010682  -0.0010419  -0.0000497   0.0013283   0.0010988
    2   0.0009586  -0.0016854  -0.0019935   0.0003449  -0.0012784   0.0005204
    3  -0.0027811  -0.0007162   0.0039554  -0.0040718   0.0030274   0.0009934
           13          14          15          16
    1  -0.0015378  -0.0010988   0.0015378  -0.0009556
    2  -0.0006163  -0.0005204   0.0006163   0.0022826
    3  -0.0008252   0.0009934  -0.0008252   0.0004181
 Max gradient component =       4.072E-03
 RMS gradient           =       1.790E-03
 Gradient time:  CPU 2.10 s  wall 2.07 s
 Geometry Optimization Parameters
   NAtoms,    NIC,     NZ,  NCons,   NDum,   NFix, NCnnct, MaxDiis
       16     111       0       1       0       0       0       0


** CONSTRAINED OPTIMIZATION IN DELOCALIZED INTERNAL COORDINATES **
   Searching for a Minimum

   Optimization Cycle:   1

                       Coordinates (Angstroms)
     ATOM                X               Y               Z
      1  S         1.6437814844   -0.4313898524    1.0837744643
      2  C         3.1456300736   -0.0924808707    0.2891160839
      3  C         2.9492757101    0.3678851927   -0.9816807135
      4  C         1.5739339187    0.4393931145   -1.3379483513
      5  C         0.7248362824    0.0340149472   -0.3347611664
      6  H         1.2212051445    0.7555316187   -2.3111213022
      7  C        -0.7248362824   -0.0340149472   -0.3347611664
      8  S        -1.6437814844    0.4313898524    1.0837744643
      9  C        -1.5739339187   -0.4393931145   -1.3379483513
     10  C        -3.1456300736    0.0924808707    0.2891160839
     11  C        -2.9492757101   -0.3678851927   -0.9816807135
     12  H        -3.7580525790   -0.6380086858   -1.6477341268
     13  H         4.0768116825   -0.2542304797    0.8101079597
     14  H         3.7580525790    0.6380086858   -1.6477341268
     15  H        -4.0768116825    0.2542304797    0.8101079597
     16  H        -1.2212051445   -0.7555316187   -2.3111213022
   Point Group: c2    Number of degrees of freedom:    22


   Energy is  -1104.839012057

              Constraints and their Current Values
                                        Value     Constraint
   Dihedral:        4   5   7   9       40.000       40.000

 Attempting to Generate Delocalized Internal Coordinates

 21 Hessian modes will be used to form the next step
  Hessian Eigenvalues:
     0.045000    0.045000    0.045000    0.045002    0.045004    0.045013
     0.159937    0.159990    0.160000    0.221280    0.237833    0.249997
     0.296078    0.314672    0.357149    0.357543    0.360899    0.380793
     0.408411    0.470750    0.505998

 Minimum Search - Taking Simple RFO Step
 Searching for Lamda that Minimizes Along All modes
 Value Taken    Lamda =  -0.00089429
 Step Taken.  Stepsize is  0.101293

                             Maximum     Tolerance    Cnvgd?
         Gradient           0.006257      0.000300      NO
         Displacement       0.083515      0.001200      NO
         Energy change     *********      0.000001      NO


 New Cartesian Coordinates Obtained by Inverse Iteration

 Displacement from previous Coordinates is:  0.168904
 ----------------------------------------------------------------
             Standard Nuclear Orientation (Angstroms)
    I     Atom           X                Y                Z
 ----------------------------------------------------------------
    1      S       1.6660731441    -0.4472881650     1.0905600113
    2      C       3.1605700869    -0.0915364951     0.2858265314
    3      C       2.9503615282     0.3539194327    -0.9930559947
    4      C       1.5672893094     0.4295288337    -1.3335942758
    5      C       0.7280538413     0.0274395068    -0.3164867208
    6      H       1.1991221319     0.7627565890    -2.2975290261
    7      C      -0.7280538413    -0.0274395068    -0.3164867208
    8      S      -1.6660731441     0.4472881650     1.0905600113
    9      C      -1.5672893094    -0.4295288337    -1.3335942758
   10      C      -3.1605700869     0.0915364951     0.2858265314
   11      C      -2.9503615282    -0.3539194327    -0.9930559947
   12      H      -3.7528834844    -0.6298704736    -1.6679764730
   13      H       4.0997380694    -0.2377481691     0.8020087954
   14      H       3.7528834844     0.6298704736    -1.6679764730
   15      H      -4.0997380694     0.2377481691     0.8020087954
   16      H      -1.1991221319    -0.7627565890    -2.2975290261
 ----------------------------------------------------------------
 Molecular Point Group                 C2    NOp =  2
 Largest Abelian Subgroup              C2    NOp =  2
 Nuclear Repulsion Energy =   630.7109667955 hartrees
 There are       43 alpha and       43 beta electrons
 Applying Cartesian multipole field
    Component          Value
    ---------          -----
     (2,0,0)        1.00000E-11
     (0,2,0)        2.00000E-11
     (0,0,2)       -3.00000E-11
 Nucleus-field energy     =     0.0000000059 hartrees
 Requested basis set is 6-31++G(d,p)
 There are 76 shells and 234 basis functions
 A cutoff of  1.0D-12 yielded   2527 shell pairs
 There are     24871 function pairs
 Smallest overlap matrix eigenvalue = 1.11E-06
 Guess MOs from SCF MO coefficient file
 Reading MOs from coefficient file
 Reading MOs from coefficient file
 A restricted hybrid HF-DFT SCF calculation will be
 performed using Relaxed Constraint Minimization + Pulay DIIS
 Exchange:     0.2000 Hartree-Fock + 0.0800 Slater + 0.7200 B88
 Correlation:  0.1900 VWN1RPA + 0.8100 LYP
 Using SG-1 standard quadrature grid
 SCF converges when DIIS error is below 1.0E-08
 Geometry optimization detected.  Setting ReadMinima to 0
 Setting SaveMinima to 0
 Inaccurate integrated density:
   Number of electrons =    86
   Numerical integral  =    85.976265498075
   Relative error      =    -0.0275982581 %
 Inaccurate integrated density:
   Number of electrons =    86
   Numerical integral  =    85.976265498075
   Relative error      =    -0.0275982581 %
 ---------------------------------------
  Cycle       Energy         DIIS Error
 ---------------------------------------
    1   -1104.8170071169      8.00E-04 Done RCA. Switching to DIIS
    2   -1104.8391636380      2.11E-04
    3   -1104.8374492966      5.18E-04
    4   -1104.8395317977      2.30E-05
    5   -1104.8395353062      8.29E-06
    6   -1104.8395356812      3.42E-06
    7   -1104.8395357611      1.38E-06
    8   -1104.8395357756      4.37E-07
    9   -1104.8395357770      5.66E-08
   10   -1104.8395357770      1.33E-08
   11   -1104.8395357770      5.64E-09 Convergence criterion met
 ---------------------------------------
 SCF time:  CPU 6.41 s  wall 5.62 s
 SCF   energy in the final basis set = -1104.8395357770
 Total energy in the final basis set = -1104.8395357770
 
 --------------------------------------------------------------
             Orbital Energies (a.u.) and Symmetries
 --------------------------------------------------------------
 
 Alpha MOs, Restricted
 -- Occupied --                  
-88.920 -88.920 -10.238 -10.238 -10.225 -10.225 -10.204 -10.204
  1 B     1 A     2 A     2 B     3 B     3 A     4 B     4 A                  
-10.204 -10.204  -7.979  -7.979  -5.943  -5.943  -5.939  -5.939
  5 B     5 A     6 B     6 A     7 B     7 A     8 B     8 A                  
 -5.936  -5.936  -0.899  -0.878  -0.770  -0.747  -0.738  -0.705
  9 A     9 B    10 A    10 B    11 A    12 A    11 B    12 B                  
 -0.603  -0.576  -0.557  -0.534  -0.525  -0.477  -0.420  -0.417
 13 A    14 A    13 B    14 B    15 A    15 B    16 A    17 A                  
 -0.410  -0.404  -0.398  -0.376  -0.374  -0.356  -0.346  -0.273
 16 B    17 B    18 A    18 B    19 A    20 A    19 B    20 B                  
 -0.261  -0.261  -0.218
 21 B    21 A    22 A                                                          
 -- Virtual --                   
 -0.052  -0.015  -0.005  -0.001   0.004   0.016   0.017   0.026
 22 B    23 A    24 A    23 B    25 A    26 A    24 B    27 A                  
  0.029   0.035   0.038   0.045   0.048   0.053   0.057   0.068
 25 B    26 B    28 A    27 B    29 A    28 B    30 A    29 B                  
  0.071   0.077   0.093   0.094   0.100   0.104   0.106   0.112
 31 A    30 B    31 B    32 A    32 B    33 A    34 A    35 A                  
  0.114   0.123   0.124   0.132   0.135   0.137   0.140   0.143
 33 B    34 B    36 A    37 A    35 B    36 B    38 A    39 A                  
  0.149   0.149   0.156   0.164   0.168   0.173   0.177   0.183
 37 B    40 A    38 B    39 B    41 A    40 B    42 A    41 B                  
  0.184   0.190   0.194   0.205   0.210   0.218   0.226   0.229
 43 A    42 B    44 A    43 B    44 B    45 A    45 B    46 A                  
  0.241   0.251   0.263   0.263   0.265   0.272   0.300   0.310
 46 B    47 B    47 A    48 B    48 A    49 A    49 B    50 A                  
  0.312   0.315   0.322   0.326   0.355   0.365   0.372   0.390
 51 A    50 B    51 B    52 A    53 A    52 B    53 B    54 A                  
  0.435   0.451   0.469   0.499   0.526   0.534   0.553   0.563
 54 B    55 A    56 A    55 B    57 A    56 B    57 B    58 B                  
  0.568   0.607   0.617   0.629   0.653   0.660   0.670   0.675
 58 A    59 A    59 B    60 A    61 A    60 B    61 B    62 A                  
  0.697   0.711   0.721   0.726   0.727   0.741   0.745   0.751
 63 A    62 B    64 A    65 A    63 B    64 B    65 B    66 A                  
  0.794   0.796   0.815   0.828   0.847   0.890   0.909   0.948
 67 A    66 B    67 B    68 A    68 B    69 A    69 B    70 A                  
  0.949   0.950   0.954   0.969   0.974   0.992   0.998   1.011
 70 B    71 A    71 B    72 A    72 B    73 A    73 B    74 A                  
  1.016   1.050   1.055   1.072   1.085   1.087   1.109   1.110
 74 B    75 A    75 B    76 A    76 B    77 A    78 A    77 B                  
  1.126   1.176   1.189   1.226   1.240   1.265   1.331   1.345
 78 B    79 A    80 A    79 B    80 B    81 A    81 B    82 A                  
  1.354   1.359   1.362   1.385   1.440   1.471   1.495   1.548
 82 B    83 A    83 B    84 A    84 B    85 B    85 A    86 A                  
  1.583   1.680   1.693   1.741   1.784   1.875   1.883   1.891
 86 B    87 B    87 A    88 B    88 A    89 A    90 A    89 B                  
  1.909   1.924   1.941   1.974   2.013   2.024   2.068   2.072
 90 B    91 A    92 A    91 B    92 B    93 A    94 A    93 B                  
  2.137   2.152   2.178   2.199   2.233   2.241   2.266   2.298
 95 A    94 B    95 B    96 A    96 B    97 A    97 B    98 A                  
  2.366   2.367   2.428   2.451   2.461   2.467   2.496   2.509
 99 A    98 B    99 B   100 A   101 A   100 B   101 B   102 A                  
  2.515   2.542   2.579   2.591   2.593   2.666   2.692   2.715
102 B   103 A   104 A   105 A   103 B   104 B   105 B   106 A                  
  2.776   2.778   2.862   2.906   2.956   3.143   3.201   3.270
106 B   107 A   108 A   107 B   108 B   109 A   109 B   110 A                  
  3.271   3.402   3.426   3.714   3.748   3.950   3.997   4.255
110 B   111 A   111 B   112 A   112 B   113 A   113 B   114 A                  
  4.308   4.322   4.332   4.411   4.540   4.652   4.721
115 A   114 B   115 B   116 A   116 B   117 A   117 B                          
 
 Beta MOs, Restricted
 -- Occupied --                  
-88.920 -88.920 -10.238 -10.238 -10.225 -10.225 -10.204 -10.204
  1 B     1 A     2 A     2 B     3 B     3 A     4 B     4 A                  
-10.204 -10.204  -7.979  -7.979  -5.943  -5.943  -5.939  -5.939
  5 B     5 A     6 B     6 A     7 B     7 A     8 B     8 A                  
 -5.936  -5.936  -0.899  -0.878  -0.770  -0.747  -0.738  -0.705
  9 A     9 B    10 A    10 B    11 A    12 A    11 B    12 B                  
 -0.603  -0.576  -0.557  -0.534  -0.525  -0.477  -0.420  -0.417
 13 A    14 A    13 B    14 B    15 A    15 B    16 A    17 A                  
 -0.410  -0.404  -0.398  -0.376  -0.374  -0.356  -0.346  -0.273
 16 B    17 B    18 A    18 B    19 A    20 A    19 B    20 B                  
 -0.261  -0.261  -0.218
 21 B    21 A    22 A                                                          
 -- Virtual --                   
 -0.052  -0.015  -0.005  -0.001   0.004   0.016   0.017   0.026
 22 B    23 A    24 A    23 B    25 A    26 A    24 B    27 A                  
  0.029   0.035   0.038   0.045   0.048   0.053   0.057   0.068
 25 B    26 B    28 A    27 B    29 A    28 B    30 A    29 B                  
  0.071   0.077   0.093   0.094   0.100   0.104   0.106   0.112
 31 A    30 B    31 B    32 A    32 B    33 A    34 A    35 A                  
  0.114   0.123   0.124   0.132   0.135   0.137   0.140   0.143
 33 B    34 B    36 A    37 A    35 B    36 B    38 A    39 A                  
  0.149   0.149   0.156   0.164   0.168   0.173   0.177   0.183
 37 B    40 A    38 B    39 B    41 A    40 B    42 A    41 B                  
  0.184   0.190   0.194   0.205   0.210   0.218   0.226   0.229
 43 A    42 B    44 A    43 B    44 B    45 A    45 B    46 A                  
  0.241   0.251   0.263   0.263   0.265   0.272   0.300   0.310
 46 B    47 B    47 A    48 B    48 A    49 A    49 B    50 A                  
  0.312   0.315   0.322   0.326   0.355   0.365   0.372   0.390
 51 A    50 B    51 B    52 A    53 A    52 B    53 B    54 A                  
  0.435   0.451   0.469   0.499   0.526   0.534   0.553   0.563
 54 B    55 A    56 A    55 B    57 A    56 B    57 B    58 B                  
  0.568   0.607   0.617   0.629   0.653   0.660   0.670   0.675
 58 A    59 A    59 B    60 A    61 A    60 B    61 B    62 A                  
  0.697   0.711   0.721   0.726   0.727   0.741   0.745   0.751
 63 A    62 B    64 A    65 A    63 B    64 B    65 B    66 A                  
  0.794   0.796   0.815   0.828   0.847   0.890   0.909   0.948
 67 A    66 B    67 B    68 A    68 B    69 A    69 B    70 A                  
  0.949   0.950   0.954   0.969   0.974   0.992   0.998   1.011
 70 B    71 A    71 B    72 A    72 B    73 A    73 B    74 A                  
  1.016   1.050   1.055   1.072   1.085   1.087   1.109   1.110
 74 B    75 A    75 B    76 A    76 B    77 A    78 A    77 B                  
  1.126   1.176   1.189   1.226   1.240   1.265   1.331   1.345
 78 B    79 A    80 A    79 B    80 B    81 A    81 B    82 A                  
  1.354   1.359   1.362   1.385   1.440   1.471   1.495   1.548
 82 B    83 A    83 B    84 A    84 B    85 B    85 A    86 A                  
  1.583   1.680   1.693   1.741   1.784   1.875   1.883   1.891
 86 B    87 B    87 A    88 B    88 A    89 A    90 A    89 B                  
  1.909   1.924   1.941   1.974   2.013   2.024   2.068   2.072
 90 B    91 A    92 A    91 B    92 B    93 A    94 A    93 B                  
  2.137   2.152   2.178   2.199   2.233   2.241   2.266   2.298
 95 A    94 B    95 B    96 A    96 B    97 A    97 B    98 A                  
  2.366   2.367   2.428   2.451   2.461   2.467   2.496   2.509
 99 A    98 B    99 B   100 A   101 A   100 B   101 B   102 A                  
  2.515   2.542   2.579   2.591   2.593   2.666   2.692   2.715
102 B   103 A   104 A   105 A   103 B   104 B   105 B   106 A                  
  2.776   2.778   2.862   2.906   2.956   3.143   3.201   3.270
106 B   107 A   108 A   107 B   108 B   109 A   109 B   110 A                  
  3.271   3.402   3.426   3.714   3.748   3.950   3.997   4.255
110 B   111 A   111 B   112 A   112 B   113 A   113 B   114 A                  
  4.308   4.322   4.332   4.411   4.540   4.652   4.721
115 A   114 B   115 B   116 A   116 B   117 A   117 B                          
 --------------------------------------------------------------
 
          Ground-State Mulliken Net Atomic Charges

     Atom                 Charge (a.u.)
  ----------------------------------------
      1 S                    -0.031815
      2 C                    -0.055154
      3 C                    -0.397279
      4 C                     0.280257
      5 C                    -0.238987
      6 H                     0.139009
      7 C                    -0.238987
      8 S                    -0.031815
      9 C                     0.280257
     10 C                    -0.055154
     11 C                    -0.397279
     12 H                     0.116078
     13 H                     0.187891
     14 H                     0.116078
     15 H                     0.187891
     16 H                     0.139009
  ----------------------------------------
  Sum of atomic charges =     0.000000

 -----------------------------------------------------------------
                    Cartesian Multipole Moments
 -----------------------------------------------------------------
    Charge (ESU x 10^10)
                 0.0000
    Dipole Moment (Debye)
         X       0.0000      Y       0.0000      Z      -0.9825
       Tot       0.9825
    Quadrupole Moments (Debye-Ang)
        XX     -60.9103     XY       0.7074     YY     -77.6397
        XZ      -0.0000     YZ      -0.0000     ZZ     -68.8128
    Octopole Moments (Debye-Ang^2)
       XXX       0.0000    XXY       0.0000    XYY      -0.0000
       YYY       0.0000    XXZ       5.5559    XYZ      -9.3737
       YYZ       1.3333    XZZ       0.0000    YZZ       0.0000
       ZZZ      -6.8277
    Hexadecapole Moments (Debye-Ang^3)
      XXXX   -1880.3383   XXXY       3.8891   XXYY    -421.5679
      XYYY      -1.1546   YYYY    -166.7135   XXXZ       0.0000
      XXYZ       0.0000   XYYZ       0.0000   YYYZ      -0.0000
      XXZZ    -407.9383   XYZZ       9.9595   YYZZ    -116.4300
      XZZZ       0.0000   YZZZ      -0.0000   ZZZZ    -512.4344
 -----------------------------------------------------------------
 Calculating analytic gradient of the SCF energy
 Gradient of SCF Energy
            1           2           3           4           5           6
    1   0.0000574   0.0004904   0.0000706  -0.0000871  -0.0002006   0.0001292
    2  -0.0003690   0.0000381   0.0001869   0.0022969  -0.0016263  -0.0012238
    3   0.0002753   0.0001529   0.0001970   0.0012995  -0.0012306  -0.0006607
            7           8           9          10          11          12
    1   0.0002006  -0.0000574   0.0000871  -0.0004904  -0.0000706  -0.0000632
    2   0.0016263   0.0003690  -0.0022969  -0.0000381  -0.0001869   0.0000039
    3  -0.0012306   0.0002753   0.0012995   0.0001529   0.0001970  -0.0000869
           13          14          15          16
    1   0.0000630   0.0000632  -0.0000630  -0.0001292
    2  -0.0002756  -0.0000039   0.0002756   0.0012238
    3   0.0000534  -0.0000869   0.0000534  -0.0006607
 Max gradient component =       2.297E-03
 RMS gradient           =       7.576E-04
 Gradient time:  CPU 2.06 s  wall 2.05 s
 Geometry Optimization Parameters
   NAtoms,    NIC,     NZ,  NCons,   NDum,   NFix, NCnnct, MaxDiis
       16     111       0       1       0       0       0       0

 Cartesian Hessian Update
 Hessian Updated using BFGS Update


** CONSTRAINED OPTIMIZATION IN DELOCALIZED INTERNAL COORDINATES **
   Searching for a Minimum

   Optimization Cycle:   2

                       Coordinates (Angstroms)
     ATOM                X               Y               Z
      1  S         1.6660731441   -0.4472881650    1.0905600113
      2  C         3.1605700869   -0.0915364951    0.2858265314
      3  C         2.9503615282    0.3539194327   -0.9930559947
      4  C         1.5672893094    0.4295288337   -1.3335942758
      5  C         0.7280538413    0.0274395068   -0.3164867208
      6  H         1.1991221319    0.7627565890   -2.2975290261
      7  C        -0.7280538413   -0.0274395068   -0.3164867208
      8  S        -1.6660731441    0.4472881650    1.0905600113
      9  C        -1.5672893094   -0.4295288337   -1.3335942758
     10  C        -3.1605700869    0.0915364951    0.2858265314
     11  C        -2.9503615282   -0.3539194327   -0.9930559947
     12  H        -3.7528834844   -0.6298704736   -1.6679764730
     13  H         4.0997380694   -0.2377481691    0.8020087954
     14  H         3.7528834844    0.6298704736   -1.6679764730
     15  H        -4.0997380694    0.2377481691    0.8020087954
     16  H        -1.1991221319   -0.7627565890   -2.2975290261
   Point Group: c2    Number of degrees of freedom:    22


   Energy is  -1104.839535777

              Constraints and their Current Values
                                        Value     Constraint
   Dihedral:        4   5   7   9       40.000       40.000
 Hessian Updated using BFGS Update

 21 Hessian modes will be used to form the next step
  Hessian Eigenvalues:
     0.033357    0.045000    0.045000    0.045001    0.045007    0.049245
     0.159160    0.159981    0.160019    0.218980    0.223945    0.240710
     0.300346    0.314997    0.357311    0.358813    0.362860    0.387285
     0.430174    0.470730    0.532046

 Minimum Search - Taking Simple RFO Step
 Searching for Lamda that Minimizes Along All modes
 Value Taken    Lamda =  -0.00015003
 Step Taken.  Stepsize is  0.059429

                             Maximum     Tolerance    Cnvgd?
         Gradient           0.002499      0.000300      NO
         Displacement       0.038725      0.001200      NO
         Energy change     -0.000524      0.000001      NO


 New Cartesian Coordinates Obtained by Inverse Iteration

 Displacement from previous Coordinates is:  0.110290
 ----------------------------------------------------------------
             Standard Nuclear Orientation (Angstroms)
    I     Atom           X                Y                Z
 ----------------------------------------------------------------
    1      S       1.6744344543    -0.4520681775     1.0952400190
    2      C       3.1625794128    -0.0961352160     0.2788107945
    3      C       2.9445921400     0.3480933195    -0.9996276134
    4      C       1.5592065741     0.4269866109    -1.3286481960
    5      C       0.7280575215     0.0251883478    -0.3043324723
    6      H       1.1815374301     0.7773797582    -2.2827207438
    7      C      -0.7280575215    -0.0251883478    -0.3043324723
    8      S      -1.6744344543     0.4520681775     1.0952400190
    9      C      -1.5592065741    -0.4269866109    -1.3286481960
   10      C      -3.1625794128     0.0961352160     0.2788107945
   11      C      -2.9445921400    -0.3480933195    -0.9996276134
   12      H      -3.7425344992    -0.6285848319    -1.6782855053
   13      H       4.1057325255    -0.2373067092     0.7893165649
   14      H       3.7425344992     0.6285848319    -1.6782855053
   15      H      -4.1057325255     0.2373067092     0.7893165649
   16      H      -1.1815374301    -0.7773797582    -2.2827207438
 ----------------------------------------------------------------
 Molecular Point Group                 C2    NOp =  2
 Largest Abelian Subgroup              C2    NOp =  2
 Nuclear Repulsion Energy =   630.5220089673 hartrees
 There are       43 alpha and       43 beta electrons
 Applying Cartesian multipole field
    Component          Value
    ---------          -----
     (2,0,0)        1.00000E-11
     (0,2,0)        2.00000E-11
     (0,0,2)       -3.00000E-11
 Nucleus-field energy     =     0.0000000059 hartrees
 Requested basis set is 6-31++G(d,p)
 There are 76 shells and 234 basis functions
 A cutoff of  1.0D-12 yielded   2527 shell pairs
 There are     24871 function pairs
 Smallest overlap matrix eigenvalue = 1.10E-06
 Guess MOs from SCF MO coefficient file
 Reading MOs from coefficient file
 Reading MOs from coefficient file
 A restricted hybrid HF-DFT SCF calculation will be
 performed using Relaxed Constraint Minimization + Pulay DIIS
 Exchange:     0.2000 Hartree-Fock + 0.0800 Slater + 0.7200 B88
 Correlation:  0.1900 VWN1RPA + 0.8100 LYP
 Using SG-1 standard quadrature grid
 SCF converges when DIIS error is below 1.0E-08
 Geometry optimization detected.  Setting ReadMinima to 0
 Setting SaveMinima to 0
 ---------------------------------------
  Cycle       Energy         DIIS Error
 ---------------------------------------
    1   -1104.8391400849      4.05E-04 Done RCA. Switching to DIIS
    2   -1104.8395456922      1.05E-04
    3   -1104.8391706657      2.46E-04
    4   -1104.8396322807      1.67E-05
    5   -1104.8396341527      5.20E-06
    6   -1104.8396343107      2.05E-06
    7   -1104.8396343370      8.79E-07
    8   -1104.8396343426      2.35E-07
    9   -1104.8396343431      3.38E-08
   10   -1104.8396343430      1.52E-08
   11   -1104.8396343431      4.57E-09 Convergence criterion met
 ---------------------------------------
 SCF time:  CPU 6.45 s  wall 5.59 s
 SCF   energy in the final basis set = -1104.8396343431
 Total energy in the final basis set = -1104.8396343431
 
 --------------------------------------------------------------
             Orbital Energies (a.u.) and Symmetries
 --------------------------------------------------------------
 
 Alpha MOs, Restricted
 -- Occupied --                  
-88.920 -88.920 -10.238 -10.238 -10.225 -10.225 -10.204 -10.204
  1 B     1 A     2 A     2 B     3 B     3 A     4 B     4 A                  
-10.203 -10.203  -7.979  -7.979  -5.943  -5.943  -5.940  -5.940
  5 B     5 A     6 B     6 A     7 B     7 A     8 B     8 A                  
 -5.936  -5.936  -0.899  -0.878  -0.770  -0.747  -0.738  -0.705
  9 A     9 B    10 A    10 B    11 A    12 A    11 B    12 B                  
 -0.603  -0.576  -0.557  -0.534  -0.525  -0.477  -0.420  -0.417
 13 A    14 A    13 B    14 B    15 A    15 B    16 A    17 A                  
 -0.410  -0.404  -0.398  -0.376  -0.374  -0.356  -0.347  -0.273
 16 B    17 B    18 A    18 B    19 A    20 A    19 B    20 B                  
 -0.261  -0.261  -0.218
 21 B    21 A    22 A                                                          
 -- Virtual --                   
 -0.052  -0.015  -0.005  -0.001   0.004   0.016   0.017   0.026
 22 B    23 A    24 A    23 B    25 A    26 A    24 B    27 A                  
  0.029   0.035   0.038   0.045   0.048   0.053   0.057   0.067
 25 B    26 B    28 A    27 B    29 A    28 B    30 A    29 B                  
  0.071   0.077   0.093   0.094   0.100   0.104   0.106   0.112
 31 A    30 B    31 B    32 A    32 B    33 A    34 A    35 A                  
  0.113   0.123   0.124   0.132   0.135   0.137   0.140   0.143
 33 B    34 B    36 A    37 A    35 B    36 B    38 A    39 A                  
  0.149   0.149   0.156   0.163   0.168   0.174   0.177   0.183
 37 B    40 A    38 B    39 B    41 A    40 B    42 A    41 B                  
  0.184   0.190   0.194   0.205   0.211   0.218   0.225   0.229
 43 A    42 B    44 A    43 B    44 B    45 A    45 B    46 A                  
  0.242   0.251   0.263   0.263   0.266   0.272   0.300   0.310
 46 B    47 B    47 A    48 B    48 A    49 A    49 B    50 A                  
  0.312   0.315   0.322   0.326   0.355   0.365   0.371   0.390
 51 A    50 B    51 B    52 A    53 A    52 B    53 B    54 A                  
  0.436   0.451   0.469   0.499   0.526   0.534   0.553   0.563
 54 B    55 A    56 A    55 B    57 A    56 B    57 B    58 B                  
  0.569   0.607   0.617   0.630   0.653   0.660   0.670   0.674
 58 A    59 A    59 B    60 A    61 A    60 B    61 B    62 A                  
  0.698   0.709   0.721   0.725   0.727   0.741   0.745   0.751
 63 A    62 B    64 A    65 A    63 B    64 B    65 B    66 A                  
  0.795   0.795   0.815   0.827   0.847   0.890   0.909   0.948
 67 A    66 B    67 B    68 A    68 B    69 A    69 B    70 A                  
  0.950   0.950   0.954   0.969   0.975   0.992   1.000   1.010
 70 B    71 A    71 B    72 A    72 B    73 A    73 B    74 A                  
  1.016   1.049   1.055   1.074   1.085   1.087   1.108   1.109
 74 B    75 A    75 B    76 A    76 B    77 A    78 A    77 B                  
  1.126   1.176   1.190   1.226   1.240   1.265   1.328   1.345
 78 B    79 A    80 A    79 B    80 B    81 A    81 B    82 A                  
  1.355   1.360   1.363   1.387   1.445   1.469   1.491   1.548
 82 B    83 A    83 B    84 A    84 B    85 B    85 A    86 A                  
  1.579   1.681   1.693   1.741   1.784   1.877   1.884   1.890
 86 B    87 B    87 A    88 B    88 A    89 A    90 A    89 B                  
  1.909   1.925   1.943   1.973   2.015   2.022   2.070   2.070
 90 B    91 A    92 A    91 B    92 B    93 A    94 A    93 B                  
  2.136   2.154   2.178   2.200   2.232   2.240   2.267   2.300
 95 A    94 B    95 B    96 A    96 B    97 A    97 B    98 A                  
  2.366   2.367   2.427   2.452   2.456   2.470   2.496   2.512
 99 A    98 B    99 B   100 A   101 A   100 B   101 B   102 A                  
  2.514   2.540   2.578   2.591   2.593   2.666   2.691   2.715
102 B   103 A   104 A   105 A   103 B   104 B   105 B   106 A                  
  2.777   2.779   2.862   2.906   2.953   3.143   3.201   3.270
106 B   107 A   108 A   107 B   108 B   109 A   109 B   110 A                  
  3.270   3.402   3.425   3.714   3.748   3.950   3.996   4.256
110 B   111 A   111 B   112 A   112 B   113 A   113 B   114 A                  
  4.309   4.322   4.332   4.410   4.539   4.652   4.720
115 A   114 B   115 B   116 A   116 B   117 A   117 B                          
 
 Beta MOs, Restricted
 -- Occupied --                  
-88.920 -88.920 -10.238 -10.238 -10.225 -10.225 -10.204 -10.204
  1 B     1 A     2 A     2 B     3 B     3 A     4 B     4 A                  
-10.203 -10.203  -7.979  -7.979  -5.943  -5.943  -5.940  -5.940
  5 B     5 A     6 B     6 A     7 B     7 A     8 B     8 A                  
 -5.936  -5.936  -0.899  -0.878  -0.770  -0.747  -0.738  -0.705
  9 A     9 B    10 A    10 B    11 A    12 A    11 B    12 B                  
 -0.603  -0.576  -0.557  -0.534  -0.525  -0.477  -0.420  -0.417
 13 A    14 A    13 B    14 B    15 A    15 B    16 A    17 A                  
 -0.410  -0.404  -0.398  -0.376  -0.374  -0.356  -0.347  -0.273
 16 B    17 B    18 A    18 B    19 A    20 A    19 B    20 B                  
 -0.261  -0.261  -0.218
 21 B    21 A    22 A                                                          
 -- Virtual --                   
 -0.052  -0.015  -0.005  -0.001   0.004   0.016   0.017   0.026
 22 B    23 A    24 A    23 B    25 A    26 A    24 B    27 A                  
  0.029   0.035   0.038   0.045   0.048   0.053   0.057   0.067
 25 B    26 B    28 A    27 B    29 A    28 B    30 A    29 B                  
  0.071   0.077   0.093   0.094   0.100   0.104   0.106   0.112
 31 A    30 B    31 B    32 A    32 B    33 A    34 A    35 A                  
  0.113   0.123   0.124   0.132   0.135   0.137   0.140   0.143
 33 B    34 B    36 A    37 A    35 B    36 B    38 A    39 A                  
  0.149   0.149   0.156   0.163   0.168   0.174   0.177   0.183
 37 B    40 A    38 B    39 B    41 A    40 B    42 A    41 B                  
  0.184   0.190   0.194   0.205   0.211   0.218   0.225   0.229
 43 A    42 B    44 A    43 B    44 B    45 A    45 B    46 A                  
  0.242   0.251   0.263   0.263   0.266   0.272   0.300   0.310
 46 B    47 B    47 A    48 B    48 A    49 A    49 B    50 A                  
  0.312   0.315   0.322   0.326   0.355   0.365   0.371   0.390
 51 A    50 B    51 B    52 A    53 A    52 B    53 B    54 A                  
  0.436   0.451   0.469   0.499   0.526   0.534   0.553   0.563
 54 B    55 A    56 A    55 B    57 A    56 B    57 B    58 B                  
  0.569   0.607   0.617   0.630   0.653   0.660   0.670   0.674
 58 A    59 A    59 B    60 A    61 A    60 B    61 B    62 A                  
  0.698   0.709   0.721   0.725   0.727   0.741   0.745   0.751
 63 A    62 B    64 A    65 A    63 B    64 B    65 B    66 A                  
  0.795   0.795   0.815   0.827   0.847   0.890   0.909   0.948
 67 A    66 B    67 B    68 A    68 B    69 A    69 B    70 A                  
  0.950   0.950   0.954   0.969   0.975   0.992   1.000   1.010
 70 B    71 A    71 B    72 A    72 B    73 A    73 B    74 A                  
  1.016   1.049   1.055   1.074   1.085   1.087   1.108   1.109
 74 B    75 A    75 B    76 A    76 B    77 A    78 A    77 B                  
  1.126   1.176   1.190   1.226   1.240   1.265   1.328   1.345
 78 B    79 A    80 A    79 B    80 B    81 A    81 B    82 A                  
  1.355   1.360   1.363   1.387   1.445   1.469   1.491   1.548
 82 B    83 A    83 B    84 A    84 B    85 B    85 A    86 A                  
  1.579   1.681   1.693   1.741   1.784   1.877   1.884   1.890
 86 B    87 B    87 A    88 B    88 A    89 A    90 A    89 B                  
  1.909   1.925   1.943   1.973   2.015   2.022   2.070   2.070
 90 B    91 A    92 A    91 B    92 B    93 A    94 A    93 B                  
  2.136   2.154   2.178   2.200   2.232   2.240   2.267   2.300
 95 A    94 B    95 B    96 A    96 B    97 A    97 B    98 A                  
  2.366   2.367   2.427   2.452   2.456   2.470   2.496   2.512
 99 A    98 B    99 B   100 A   101 A   100 B   101 B   102 A                  
  2.514   2.540   2.578   2.591   2.593   2.666   2.691   2.715
102 B   103 A   104 A   105 A   103 B   104 B   105 B   106 A                  
  2.777   2.779   2.862   2.906   2.953   3.143   3.201   3.270
106 B   107 A   108 A   107 B   108 B   109 A   109 B   110 A                  
  3.270   3.402   3.425   3.714   3.748   3.950   3.996   4.256
110 B   111 A   111 B   112 A   112 B   113 A   113 B   114 A                  
  4.309   4.322   4.332   4.410   4.539   4.652   4.720
115 A   114 B   115 B   116 A   116 B   117 A   117 B                          
 --------------------------------------------------------------
 
          Ground-State Mulliken Net Atomic Charges

     Atom                 Charge (a.u.)
  ----------------------------------------
      1 S                    -0.023390
      2 C                    -0.060903
      3 C                    -0.395186
      4 C                     0.271303
      5 C                    -0.235771
      6 H                     0.140324
      7 C                    -0.235771
      8 S                    -0.023390
      9 C                     0.271303
     10 C                    -0.060903
     11 C                    -0.395186
     12 H                     0.116290
     13 H                     0.187332
     14 H                     0.116290
     15 H                     0.187332
     16 H                     0.140324
  ----------------------------------------
  Sum of atomic charges =     0.000000

 -----------------------------------------------------------------
                    Cartesian Multipole Moments
 -----------------------------------------------------------------
    Charge (ESU x 10^10)
                -0.0000
    Dipole Moment (Debye)
         X       0.0000      Y      -0.0000      Z      -0.9725
       Tot       0.9725
    Quadrupole Moments (Debye-Ang)
        XX     -60.9662     XY       0.7750     YY     -77.5866
        XZ       0.0000     YZ      -0.0000     ZZ     -68.8795
    Octopole Moments (Debye-Ang^2)
       XXX       0.0000    XXY      -0.0000    XYY      -0.0000
       YYY      -0.0000    XXZ       5.3480    XYZ      -9.4109
       YYZ       1.0795    XZZ       0.0000    YZZ      -0.0000
       ZZZ      -7.0413
    Hexadecapole Moments (Debye-Ang^3)
      XXXX   -1881.3150   XXXY       6.7131   XXYY    -421.7821
      XYYY       1.5554   YYYY    -167.0623   XXXZ       0.0000
      XXYZ       0.0000   XYYZ       0.0000   YYYZ      -0.0000
      XXZZ    -408.6043   XYZZ      10.9919   YYZZ    -116.3153
      XZZZ       0.0000   YZZZ      -0.0000   ZZZZ    -513.7918
 -----------------------------------------------------------------
 Calculating analytic gradient of the SCF energy
 Gradient of SCF Energy
            1           2           3           4           5           6
    1   0.0000818  -0.0001260   0.0001479  -0.0001470   0.0002372   0.0000137
    2  -0.0004525   0.0000819  -0.0002415   0.0017169  -0.0019824  -0.0005661
    3   0.0005503   0.0003868  -0.0004184   0.0006108  -0.0006143  -0.0004382
            7           8           9          10          11          12
    1  -0.0002372  -0.0000818   0.0001470   0.0001260  -0.0001479  -0.0000929
    2   0.0019824   0.0004525  -0.0017169  -0.0000819   0.0002415  -0.0001774
    3  -0.0006143   0.0005503   0.0006108   0.0003868  -0.0004184  -0.0001450
           13          14          15          16
    1   0.0001459   0.0000929  -0.0001459  -0.0000137
    2  -0.0000466   0.0001774   0.0000466   0.0005661
    3   0.0000680  -0.0001450   0.0000680  -0.0004382
 Max gradient component =       1.982E-03
 RMS gradient           =       6.208E-04
 Gradient time:  CPU 2.06 s  wall 2.03 s
 Geometry Optimization Parameters
   NAtoms,    NIC,     NZ,  NCons,   NDum,   NFix, NCnnct, MaxDiis
       16     111       0       1       0       0       0       0

 Cartesian Hessian Update
 Hessian Updated using BFGS Update


** CONSTRAINED OPTIMIZATION IN DELOCALIZED INTERNAL COORDINATES **
   Searching for a Minimum

   Optimization Cycle:   3

                       Coordinates (Angstroms)
     ATOM                X               Y               Z
      1  S         1.6744344543   -0.4520681775    1.0952400190
      2  C         3.1625794128   -0.0961352160    0.2788107945
      3  C         2.9445921400    0.3480933195   -0.9996276134
      4  C         1.5592065741    0.4269866109   -1.3286481960
      5  C         0.7280575215    0.0251883478   -0.3043324723
      6  H         1.1815374301    0.7773797582   -2.2827207438
      7  C        -0.7280575215   -0.0251883478   -0.3043324723
      8  S        -1.6744344543    0.4520681775    1.0952400190
      9  C        -1.5592065741   -0.4269866109   -1.3286481960
     10  C        -3.1625794128    0.0961352160    0.2788107945
     11  C        -2.9445921400   -0.3480933195   -0.9996276134
     12  H        -3.7425344992   -0.6285848319   -1.6782855053
     13  H         4.1057325255   -0.2373067092    0.7893165649
     14  H         3.7425344992    0.6285848319   -1.6782855053
     15  H        -4.1057325255    0.2373067092    0.7893165649
     16  H        -1.1815374301   -0.7773797582   -2.2827207438
   Point Group: c2    Number of degrees of freedom:    22


   Energy is  -1104.839634343

              Constraints and their Current Values
                                        Value     Constraint
   Dihedral:        4   5   7   9       40.000       40.000
 Hessian Updated using BFGS Update

 21 Hessian modes will be used to form the next step
  Hessian Eigenvalues:
     0.021476    0.045000    0.045001    0.045006    0.045601    0.049063
     0.158671    0.159983    0.160327    0.222475    0.225036    0.251450
     0.298905    0.315586    0.357300    0.358946    0.363013    0.386588
     0.427044    0.471002    0.531510

 Minimum Search - Taking Simple RFO Step
 Searching for Lamda that Minimizes Along All modes
 Value Taken    Lamda =  -0.00004537
 Step Taken.  Stepsize is  0.042179

                             Maximum     Tolerance    Cnvgd?
         Gradient           0.000953      0.000300      NO
         Displacement       0.020059      0.001200      NO
         Energy change     -0.000099      0.000001      NO


 New Cartesian Coordinates Obtained by Inverse Iteration

 Displacement from previous Coordinates is:  0.068824
 ----------------------------------------------------------------
             Standard Nuclear Orientation (Angstroms)
    I     Atom           X                Y                Z
 ----------------------------------------------------------------
    1      S       1.6790625890    -0.4537931003     1.0956519927
    2      C       3.1646292817    -0.1003590850     0.2739148653
    3      C       2.9418958241     0.3469895920    -1.0021745250
    4      C       1.5553867673     0.4277964036    -1.3254958522
    5      C       0.7278632243     0.0251780475    -0.2985725311
    6      H       1.1730218715     0.7914455477    -2.2723823895
    7      C      -0.7278632243    -0.0251780475    -0.2985725311
    8      S      -1.6790625890     0.4537931003     1.0956519927
    9      C      -1.5553867673    -0.4277964036    -1.3254958522
   10      C      -3.1646292817     0.1003590850     0.2739148653
   11      C      -2.9418958241    -0.3469895920    -1.0021745250
   12      H      -3.7376719951    -0.6295674465    -1.6821037030
   13      H       4.1094889501    -0.2415656515     0.7809149904
   14      H       3.7376719951     0.6295674465    -1.6821037030
   15      H      -4.1094889501     0.2415656515     0.7809149904
   16      H      -1.1730218715    -0.7914455477    -2.2723823895
 ----------------------------------------------------------------
 Molecular Point Group                 C2    NOp =  2
 Largest Abelian Subgroup              C2    NOp =  2
 Nuclear Repulsion Energy =   630.5374791920 hartrees
 There are       43 alpha and       43 beta electrons
 Applying Cartesian multipole field
    Component          Value
    ---------          -----
     (2,0,0)        1.00000E-11
     (0,2,0)        2.00000E-11
     (0,0,2)       -3.00000E-11
 Nucleus-field energy     =     0.0000000060 hartrees
 Requested basis set is 6-31++G(d,p)
 There are 76 shells and 234 basis functions
 A cutoff of  1.0D-12 yielded   2527 shell pairs
 There are     24871 function pairs
 Smallest overlap matrix eigenvalue = 1.10E-06
 Guess MOs from SCF MO coefficient file
 Reading MOs from coefficient file
 Reading MOs from coefficient file
 A restricted hybrid HF-DFT SCF calculation will be
 performed using Relaxed Constraint Minimization + Pulay DIIS
 Exchange:     0.2000 Hartree-Fock + 0.0800 Slater + 0.7200 B88
 Correlation:  0.1900 VWN1RPA + 0.8100 LYP
 Using SG-1 standard quadrature grid
 SCF converges when DIIS error is below 1.0E-08
 Geometry optimization detected.  Setting ReadMinima to 0
 Setting SaveMinima to 0
 ---------------------------------------
  Cycle       Energy         DIIS Error
 ---------------------------------------
    1   -1104.8421580523      2.05E-04 Done RCA. Switching to DIIS
    2   -1104.8396391556      4.98E-05
    3   -1104.8395722781      1.06E-04
    4   -1104.8396583638      1.27E-05
    5   -1104.8396594958      3.71E-06
    6   -1104.8396595755      1.54E-06
    7   -1104.8396595909      5.76E-07
    8   -1104.8396595933      1.55E-07
    9   -1104.8396595935      3.06E-08
   10   -1104.8396595935      1.06E-08
   11   -1104.8396595935      3.42E-09 Convergence criterion met
 ---------------------------------------
 SCF time:  CPU 6.43 s  wall 5.58 s
 SCF   energy in the final basis set = -1104.8396595935
 Total energy in the final basis set = -1104.8396595935
 
 --------------------------------------------------------------
             Orbital Energies (a.u.) and Symmetries
 --------------------------------------------------------------
 
 Alpha MOs, Restricted
 -- Occupied --                  
-88.920 -88.920 -10.238 -10.238 -10.225 -10.225 -10.204 -10.204
  1 B     1 A     2 A     2 B     3 B     3 A     4 B     4 A                  
-10.203 -10.203  -7.979  -7.979  -5.943  -5.943  -5.940  -5.940
  5 B     5 A     6 B     6 A     7 B     7 A     8 B     8 A                  
 -5.936  -5.936  -0.900  -0.878  -0.771  -0.747  -0.738  -0.705
  9 A     9 B    10 A    10 B    11 A    12 A    11 B    12 B                  
 -0.603  -0.576  -0.557  -0.534  -0.525  -0.477  -0.420  -0.417
 13 A    14 A    13 B    14 B    15 A    15 B    16 A    17 A                  
 -0.410  -0.403  -0.398  -0.376  -0.374  -0.356  -0.347  -0.273
 16 B    17 B    18 A    18 B    19 A    20 A    19 B    20 B                  
 -0.261  -0.261  -0.218
 21 B    21 A    22 A                                                          
 -- Virtual --                   
 -0.052  -0.015  -0.005  -0.001   0.004   0.016   0.017   0.026
 22 B    23 A    24 A    23 B    25 A    26 A    24 B    27 A                  
  0.029   0.035   0.038   0.045   0.048   0.053   0.057   0.067
 25 B    26 B    28 A    27 B    29 A    28 B    30 A    29 B                  
  0.071   0.077   0.093   0.094   0.100   0.104   0.107   0.112
 31 A    30 B    31 B    32 A    32 B    33 A    34 A    35 A                  
  0.113   0.123   0.125   0.132   0.135   0.137   0.140   0.143
 33 B    34 B    36 A    37 A    35 B    36 B    38 A    39 A                  
  0.149   0.149   0.155   0.163   0.168   0.174   0.176   0.183
 37 B    40 A    38 B    39 B    41 A    40 B    42 A    41 B                  
  0.184   0.190   0.194   0.205   0.211   0.218   0.225   0.229
 43 A    42 B    44 A    43 B    44 B    45 A    45 B    46 A                  
  0.242   0.251   0.263   0.263   0.266   0.272   0.301   0.310
 46 B    47 B    48 B    47 A    48 A    49 A    49 B    50 A                  
  0.312   0.315   0.322   0.326   0.355   0.365   0.372   0.390
 51 A    50 B    51 B    52 A    53 A    52 B    53 B    54 A                  
  0.436   0.450   0.469   0.499   0.526   0.535   0.553   0.563
 54 B    55 A    56 A    55 B    57 A    56 B    57 B    58 B                  
  0.569   0.608   0.617   0.631   0.653   0.660   0.669   0.674
 58 A    59 A    59 B    60 A    61 A    60 B    61 B    62 A                  
  0.698   0.708   0.721   0.725   0.728   0.741   0.745   0.751
 63 A    62 B    64 A    65 A    63 B    64 B    65 B    66 A                  
  0.795   0.795   0.815   0.827   0.847   0.890   0.909   0.947
 66 B    67 A    67 B    68 A    68 B    69 A    69 B    70 A                  
  0.950   0.950   0.954   0.969   0.975   0.992   1.002   1.011
 70 B    71 A    71 B    72 A    72 B    73 A    73 B    74 A                  
  1.017   1.049   1.055   1.074   1.085   1.087   1.108   1.109
 74 B    75 A    75 B    76 A    76 B    77 A    78 A    77 B                  
  1.126   1.176   1.190   1.226   1.238   1.266   1.327   1.343
 78 B    79 A    80 A    79 B    80 B    81 A    81 B    82 A                  
  1.355   1.360   1.365   1.389   1.448   1.469   1.488   1.550
 82 B    83 A    83 B    84 A    84 B    85 B    85 A    86 A                  
  1.576   1.682   1.693   1.742   1.784   1.877   1.885   1.890
 86 B    87 B    87 A    88 B    88 A    89 A    90 A    89 B                  
  1.909   1.925   1.943   1.973   2.016   2.022   2.070   2.071
 90 B    91 A    92 A    91 B    92 B    93 A    93 B    94 A                  
  2.136   2.156   2.179   2.201   2.231   2.240   2.267   2.302
 95 A    94 B    95 B    96 A    96 B    97 A    97 B    98 A                  
  2.366   2.368   2.427   2.451   2.454   2.472   2.496   2.514
 99 A    98 B    99 B   100 A   101 A   100 B   101 B   102 B                  
  2.514   2.540   2.579   2.592   2.594   2.666   2.691   2.716
102 A   103 A   104 A   105 A   103 B   104 B   105 B   106 A                  
  2.778   2.779   2.862   2.906   2.952   3.143   3.202   3.271
106 B   107 A   108 A   107 B   108 B   109 A   109 B   110 A                  
  3.271   3.403   3.425   3.715   3.748   3.951   3.996   4.257
110 B   111 A   111 B   112 A   112 B   113 A   113 B   114 A                  
  4.309   4.321   4.332   4.410   4.539   4.652   4.720
115 A   114 B   115 B   116 A   116 B   117 A   117 B                          
 
 Beta MOs, Restricted
 -- Occupied --                  
-88.920 -88.920 -10.238 -10.238 -10.225 -10.225 -10.204 -10.204
  1 B     1 A     2 A     2 B     3 B     3 A     4 B     4 A                  
-10.203 -10.203  -7.979  -7.979  -5.943  -5.943  -5.940  -5.940
  5 B     5 A     6 B     6 A     7 B     7 A     8 B     8 A                  
 -5.936  -5.936  -0.900  -0.878  -0.771  -0.747  -0.738  -0.705
  9 A     9 B    10 A    10 B    11 A    12 A    11 B    12 B                  
 -0.603  -0.576  -0.557  -0.534  -0.525  -0.477  -0.420  -0.417
 13 A    14 A    13 B    14 B    15 A    15 B    16 A    17 A                  
 -0.410  -0.403  -0.398  -0.376  -0.374  -0.356  -0.347  -0.273
 16 B    17 B    18 A    18 B    19 A    20 A    19 B    20 B                  
 -0.261  -0.261  -0.218
 21 B    21 A    22 A                                                          
 -- Virtual --                   
 -0.052  -0.015  -0.005  -0.001   0.004   0.016   0.017   0.026
 22 B    23 A    24 A    23 B    25 A    26 A    24 B    27 A                  
  0.029   0.035   0.038   0.045   0.048   0.053   0.057   0.067
 25 B    26 B    28 A    27 B    29 A    28 B    30 A    29 B                  
  0.071   0.077   0.093   0.094   0.100   0.104   0.107   0.112
 31 A    30 B    31 B    32 A    32 B    33 A    34 A    35 A                  
  0.113   0.123   0.125   0.132   0.135   0.137   0.140   0.143
 33 B    34 B    36 A    37 A    35 B    36 B    38 A    39 A                  
  0.149   0.149   0.155   0.163   0.168   0.174   0.176   0.183
 37 B    40 A    38 B    39 B    41 A    40 B    42 A    41 B                  
  0.184   0.190   0.194   0.205   0.211   0.218   0.225   0.229
 43 A    42 B    44 A    43 B    44 B    45 A    45 B    46 A                  
  0.242   0.251   0.263   0.263   0.266   0.272   0.301   0.310
 46 B    47 B    48 B    47 A    48 A    49 A    49 B    50 A                  
  0.312   0.315   0.322   0.326   0.355   0.365   0.372   0.390
 51 A    50 B    51 B    52 A    53 A    52 B    53 B    54 A                  
  0.436   0.450   0.469   0.499   0.526   0.535   0.553   0.563
 54 B    55 A    56 A    55 B    57 A    56 B    57 B    58 B                  
  0.569   0.608   0.617   0.631   0.653   0.660   0.669   0.674
 58 A    59 A    59 B    60 A    61 A    60 B    61 B    62 A                  
  0.698   0.708   0.721   0.725   0.728   0.741   0.745   0.751
 63 A    62 B    64 A    65 A    63 B    64 B    65 B    66 A                  
  0.795   0.795   0.815   0.827   0.847   0.890   0.909   0.947
 66 B    67 A    67 B    68 A    68 B    69 A    69 B    70 A                  
  0.950   0.950   0.954   0.969   0.975   0.992   1.002   1.011
 70 B    71 A    71 B    72 A    72 B    73 A    73 B    74 A                  
  1.017   1.049   1.055   1.074   1.085   1.087   1.108   1.109
 74 B    75 A    75 B    76 A    76 B    77 A    78 A    77 B                  
  1.126   1.176   1.190   1.226   1.238   1.266   1.327   1.343
 78 B    79 A    80 A    79 B    80 B    81 A    81 B    82 A                  
  1.355   1.360   1.365   1.389   1.448   1.469   1.488   1.550
 82 B    83 A    83 B    84 A    84 B    85 B    85 A    86 A                  
  1.576   1.682   1.693   1.742   1.784   1.877   1.885   1.890
 86 B    87 B    87 A    88 B    88 A    89 A    90 A    89 B                  
  1.909   1.925   1.943   1.973   2.016   2.022   2.070   2.071
 90 B    91 A    92 A    91 B    92 B    93 A    93 B    94 A                  
  2.136   2.156   2.179   2.201   2.231   2.240   2.267   2.302
 95 A    94 B    95 B    96 A    96 B    97 A    97 B    98 A                  
  2.366   2.368   2.427   2.451   2.454   2.472   2.496   2.514
 99 A    98 B    99 B   100 A   101 A   100 B   101 B   102 B                  
  2.514   2.540   2.579   2.592   2.594   2.666   2.691   2.716
102 A   103 A   104 A   105 A   103 B   104 B   105 B   106 A                  
  2.778   2.779   2.862   2.906   2.952   3.143   3.202   3.271
106 B   107 A   108 A   107 B   108 B   109 A   109 B   110 A                  
  3.271   3.403   3.425   3.715   3.748   3.951   3.996   4.257
110 B   111 A   111 B   112 A   112 B   113 A   113 B   114 A                  
  4.309   4.321   4.332   4.410   4.539   4.652   4.720
115 A   114 B   115 B   116 A   116 B   117 A   117 B                          
 --------------------------------------------------------------
 
          Ground-State Mulliken Net Atomic Charges

     Atom                 Charge (a.u.)
  ----------------------------------------
      1 S                    -0.019721
      2 C                    -0.062235
      3 C                    -0.393453
      4 C                     0.265368
      5 C                    -0.234665
      6 H                     0.141120
      7 C                    -0.234665
      8 S                    -0.019721
      9 C                     0.265368
     10 C                    -0.062235
     11 C                    -0.393453
     12 H                     0.116408
     13 H                     0.187178
     14 H                     0.116408
     15 H                     0.187178
     16 H                     0.141120
  ----------------------------------------
  Sum of atomic charges =    -0.000000

 -----------------------------------------------------------------
                    Cartesian Multipole Moments
 -----------------------------------------------------------------
    Charge (ESU x 10^10)
                -0.0000
    Dipole Moment (Debye)
         X      -0.0000      Y      -0.0000      Z      -0.9668
       Tot       0.9668
    Quadrupole Moments (Debye-Ang)
        XX     -60.9503     XY       0.7942     YY     -77.5360
        XZ      -0.0000     YZ       0.0000     ZZ     -68.9582
    Octopole Moments (Debye-Ang^2)
       XXX      -0.0000    XXY      -0.0000    XYY       0.0000
       YYY      -0.0000    XXZ       5.3026    XYZ      -9.4571
       YYZ       0.9509    XZZ      -0.0000    YZZ      -0.0000
       ZZZ      -6.9218
    Hexadecapole Moments (Debye-Ang^3)
      XXXX   -1881.4026   XXXY       7.4043   XXYY    -421.8816
      XYYY       2.7858   YYYY    -167.4775   XXXZ      -0.0000
      XXYZ      -0.0000   XYYZ      -0.0000   YYYZ       0.0000
      XXZZ    -409.1319   XYZZ      11.4995   YYZZ    -116.0437
      XZZZ       0.0000   YZZZ       0.0000   ZZZZ    -513.8157
 -----------------------------------------------------------------
 Calculating analytic gradient of the SCF energy
 Gradient of SCF Energy
            1           2           3           4           5           6
    1   0.0001071  -0.0000091   0.0001809  -0.0002009   0.0000810  -0.0000279
    2   0.0000619  -0.0000224  -0.0003331   0.0010317  -0.0020161  -0.0001442
    3  -0.0000301   0.0001264  -0.0001307   0.0003534  -0.0003105  -0.0000592
            7           8           9          10          11          12
    1  -0.0000810  -0.0001071   0.0002009   0.0000091  -0.0001809  -0.0000134
    2   0.0020161  -0.0000619  -0.0010317   0.0000224   0.0003331  -0.0001554
    3  -0.0003105  -0.0000301   0.0003534   0.0001264  -0.0001307   0.0000496
           13          14          15          16
    1   0.0000794   0.0000134  -0.0000794   0.0000279
    2   0.0000298   0.0001554  -0.0000298   0.0001442
    3   0.0000011   0.0000496   0.0000011  -0.0000592
 Max gradient component =       2.016E-03
 RMS gradient           =       4.852E-04
 Gradient time:  CPU 2.02 s  wall 2.02 s
 Geometry Optimization Parameters
   NAtoms,    NIC,     NZ,  NCons,   NDum,   NFix, NCnnct, MaxDiis
       16     111       0       1       0       0       0       0

 Cartesian Hessian Update
 Hessian Updated using BFGS Update


** CONSTRAINED OPTIMIZATION IN DELOCALIZED INTERNAL COORDINATES **
   Searching for a Minimum

   Optimization Cycle:   4

                       Coordinates (Angstroms)
     ATOM                X               Y               Z
      1  S         1.6790625890   -0.4537931003    1.0956519927
      2  C         3.1646292817   -0.1003590850    0.2739148653
      3  C         2.9418958241    0.3469895920   -1.0021745250
      4  C         1.5553867673    0.4277964036   -1.3254958522
      5  C         0.7278632243    0.0251780475   -0.2985725311
      6  H         1.1730218715    0.7914455477   -2.2723823895
      7  C        -0.7278632243   -0.0251780475   -0.2985725311
      8  S        -1.6790625890    0.4537931003    1.0956519927
      9  C        -1.5553867673   -0.4277964036   -1.3254958522
[...]
  3.271   3.403   3.426   3.715   3.749   3.951   3.996   4.257
110 B   111 A   111 B   112 A   112 B   113 A   113 B   114 A                  
  4.309   4.321   4.332   4.411   4.539   4.652   4.721
115 A   114 B   115 B   116 A   116 B   117 A   117 B                          
 --------------------------------------------------------------
 
          Ground-State Mulliken Net Atomic Charges

     Atom                 Charge (a.u.)
  ----------------------------------------
      1 S                    -0.019206
      2 C                    -0.062096
      3 C                    -0.391758
      4 C                     0.265306
      5 C                    -0.237187
      6 H                     0.141368
      7 C                    -0.237187
      8 S                    -0.019206
      9 C                     0.265306
     10 C                    -0.062096
     11 C                    -0.391758
     12 H                     0.116433
     13 H                     0.187140
     14 H                     0.116433
     15 H                     0.187140
     16 H                     0.141368
  ----------------------------------------
  Sum of atomic charges =     0.000000

 -----------------------------------------------------------------
                    Cartesian Multipole Moments
 -----------------------------------------------------------------
    Charge (ESU x 10^10)
                 0.0000
    Dipole Moment (Debye)
         X       0.0000      Y      -0.0000      Z      -0.9676
       Tot       0.9676
    Quadrupole Moments (Debye-Ang)
        XX     -60.9576     XY       0.7553     YY     -77.5069
        XZ      -0.0000     YZ      -0.0000     ZZ     -68.9761
    Octopole Moments (Debye-Ang^2)
       XXX       0.0000    XXY      -0.0000    XYY       0.0000
       YYY      -0.0000    XXZ       5.2820    XYZ      -9.5164
       YYZ       0.9619    XZZ       0.0000    YZZ      -0.0000
       ZZZ      -6.7353
    Hexadecapole Moments (Debye-Ang^3)
      XXXX   -1880.7696   XXXY       6.5863   XXYY    -421.7326
      XYYY       2.7721   YYYY    -168.5069   XXXZ      -0.0000
      XXYZ       0.0000   XYYZ      -0.0000   YYYZ      -0.0000
      XXZZ    -408.8979   XYZZ      11.4999   YYZZ    -115.8695
      XZZZ      -0.0000   YZZZ      -0.0000   ZZZZ    -513.0558
 -----------------------------------------------------------------
 Calculating analytic gradient of the SCF energy
 Gradient of SCF Energy
            1           2           3           4           5           6
    1  -0.0000207   0.0000138  -0.0000329   0.0000063   0.0000519   0.0000053
    2   0.0000183   0.0000128   0.0000056   0.0006554  -0.0015245   0.0000099
    3  -0.0000110  -0.0000048   0.0000042   0.0002297  -0.0002275   0.0000086
            7           8           9          10          11          12
    1  -0.0000519   0.0000207  -0.0000063  -0.0000138   0.0000329  -0.0000016
    2   0.0015245  -0.0000183  -0.0006554  -0.0000128  -0.0000056   0.0000170
    3  -0.0002275  -0.0000110   0.0002297  -0.0000048   0.0000042   0.0000019
           13          14          15          16
    1  -0.0000112   0.0000016   0.0000112  -0.0000053
    2  -0.0000272  -0.0000170   0.0000272  -0.0000099
    3  -0.0000012   0.0000019  -0.0000012   0.0000086
 Max gradient component =       1.525E-03
 RMS gradient           =       3.455E-04
 Gradient time:  CPU 2.12 s  wall 2.05 s
 Geometry Optimization Parameters
   NAtoms,    NIC,     NZ,  NCons,   NDum,   NFix, NCnnct, MaxDiis
       16     111       0       1       0       0       0       0

 Cartesian Hessian Update
 Hessian Updated using BFGS Update


** CONSTRAINED OPTIMIZATION IN DELOCALIZED INTERNAL COORDINATES **
   Searching for a Minimum

   Optimization Cycle:   7

                       Coordinates (Angstroms)
     ATOM                X               Y               Z
      1  S         1.6781184215   -0.4571425731    1.0936720620
      2  C         3.1639132007   -0.1018512140    0.2731404339
      3  C         2.9415578386    0.3502010959   -1.0012749199
      4  C         1.5554425476    0.4316136984   -1.3250223160
      5  C         0.7276895524    0.0271058718   -0.2990705801
      6  H         1.1734768304    0.8009229141   -2.2698435049
      7  C        -0.7276895524   -0.0271058718   -0.2990705801
      8  S        -1.6781184215    0.4571425731    1.0936720620
      9  C        -1.5554425476   -0.4316136984   -1.3250223160
     10  C        -3.1639132007    0.1018512140    0.2731404339
     11  C        -2.9415578386   -0.3502010959   -1.0012749199
     12  H        -3.7377418899   -0.6308909023   -1.6814635670
     13  H         4.1083781934   -0.2467794585    0.7796152396
     14  H         3.7377418899    0.6308909023   -1.6814635670
     15  H        -4.1083781934    0.2467794585    0.7796152396
     16  H        -1.1734768304   -0.8009229141   -2.2698435049
   Point Group: c2    Number of degrees of freedom:    22


   Energy is  -1104.839664746

              Constraints and their Current Values
                                        Value     Constraint
   Dihedral:        4   5   7   9       40.000       40.000
 Hessian Updated using BFGS Update

 21 Hessian modes will be used to form the next step
  Hessian Eigenvalues:
     0.012843    0.023488    0.043858    0.045001    0.045072    0.050360
     0.158954    0.159523    0.160394    0.219690    0.222732    0.275333
     0.290854    0.316372    0.357328    0.359766    0.362599    0.387292
     0.443813    0.469368    0.533291

 Minimum Search - Taking Simple RFO Step
 Searching for Lamda that Minimizes Along All modes
 Value Taken    Lamda =   0.00000000
 Step Taken.  Stepsize is  0.001801

                             Maximum     Tolerance    Cnvgd?
         Gradient           0.000036      0.000300     YES
         Displacement       0.001063      0.001200     YES
         Energy change     -0.000000      0.000001     YES

 Final energy is   -1104.83966474621     


 ******************************
 **  OPTIMIZATION CONVERGED  **
 ******************************

                       Coordinates (Angstroms)
     ATOM                X               Y               Z
      1  S         1.6781184215   -0.4571425731    1.0936720620
      2  C         3.1639132007   -0.1018512140    0.2731404339
      3  C         2.9415578386    0.3502010959   -1.0012749199
      4  C         1.5554425476    0.4316136984   -1.3250223160
      5  C         0.7276895524    0.0271058718   -0.2990705801
      6  H         1.1734768304    0.8009229141   -2.2698435049
      7  C        -0.7276895524   -0.0271058718   -0.2990705801
      8  S        -1.6781184215    0.4571425731    1.0936720620
      9  C        -1.5554425476   -0.4316136984   -1.3250223160
     10  C        -3.1639132007    0.1018512140    0.2731404339
     11  C        -2.9415578386   -0.3502010959   -1.0012749199
     12  H        -3.7377418899   -0.6308909023   -1.6814635670
     13  H         4.1083781934   -0.2467794585    0.7796152396
     14  H         3.7377418899    0.6308909023   -1.6814635670
     15  H        -4.1083781934    0.2467794585    0.7796152396
     16  H        -1.1734768304   -0.8009229141   -2.2698435049

Z-matrix Print:
$molecule
0 1
S 
C  1 1.734096
H  2 1.081450 1 119.948548
C  2 1.370375 1 111.629478 3 179.944542 0
H  4 1.084137 2 123.347294 1 -179.801402 0
C  4 1.425748 2 112.814959 1 -0.778837 0
H  6 1.083962 4 124.053234 2 -177.620658 0
C  6 1.378905 4 113.447608 2 0.651186 0
C  8 1.456388 6 127.647445 4 179.377712 0
C  9 1.378905 8 127.647445 6 -39.999981 0
H  10 1.083962 9 122.475674 8 -2.319499 0
C  10 1.425748 9 113.447608 8 179.377712 0
H  12 1.084137 10 123.830019 9 179.668266 0
C  12 1.370375 10 112.814959 9 0.651186 0
H  14 1.081450 12 128.421947 10 179.159828 0
S  14 1.734096 12 111.629478 10 -0.778837 0
$end

 
 --------------------------------------------------------------
             Orbital Energies (a.u.) and Symmetries
 --------------------------------------------------------------
 
 Alpha MOs, Restricted
 -- Occupied --                  
-88.920 -88.920 -10.238 -10.237 -10.225 -10.225 -10.204 -10.204
  1 B     1 A     2 A     2 B     3 B     3 A     4 B     4 A                  
-10.203 -10.203  -7.979  -7.979  -5.943  -5.943  -5.940  -5.940
  5 B     5 A     6 B     6 A     7 B     7 A     8 B     8 A                  
 -5.936  -5.936  -0.900  -0.878  -0.771  -0.747  -0.738  -0.705
  9 A     9 B    10 A    10 B    11 A    12 A    11 B    12 B                  
 -0.603  -0.576  -0.557  -0.534  -0.525  -0.477  -0.420  -0.417
 13 A    14 A    13 B    14 B    15 A    15 B    16 A    17 A                  
 -0.410  -0.403  -0.398  -0.376  -0.374  -0.356  -0.347  -0.273
 16 B    17 B    18 A    18 B    19 A    20 A    19 B    20 B                  
 -0.261  -0.261  -0.218
 21 B    21 A    22 A                                                          
 -- Virtual --                   
 -0.052  -0.015  -0.005  -0.001   0.004   0.016   0.017   0.026
 22 B    23 A    24 A    23 B    25 A    26 A    24 B    27 A                  
  0.029   0.034   0.038   0.044   0.048   0.053   0.056   0.068
 25 B    26 B    28 A    27 B    29 A    28 B    30 A    29 B                  
  0.071   0.077   0.093   0.094   0.100   0.104   0.107   0.112
 31 A    30 B    31 B    32 A    32 B    33 A    34 A    35 A                  
  0.113   0.123   0.125   0.132   0.135   0.137   0.140   0.143
 33 B    34 B    36 A    37 A    35 B    36 B    38 A    39 A                  
  0.149   0.150   0.155   0.163   0.168   0.174   0.176   0.183
 37 B    40 A    38 B    39 B    41 A    40 B    42 A    41 B                  
  0.184   0.190   0.194   0.205   0.211   0.218   0.225   0.229
 43 A    42 B    44 A    43 B    44 B    45 A    45 B    46 A                  
  0.242   0.251   0.263   0.263   0.266   0.272   0.301   0.310
 46 B    47 B    48 B    47 A    48 A    49 A    49 B    50 A                  
  0.312   0.315   0.321   0.326   0.355   0.365   0.372   0.390
 51 A    50 B    51 B    52 A    53 A    52 B    53 B    54 A                  
  0.436   0.451   0.469   0.499   0.526   0.535   0.552   0.563
 54 B    55 A    56 A    55 B    57 A    56 B    57 B    58 B                  
  0.569   0.608   0.617   0.631   0.653   0.660   0.669   0.674
 58 A    59 A    59 B    60 A    61 A    60 B    61 B    62 A                  
  0.698   0.708   0.721   0.726   0.728   0.741   0.745   0.751
 63 A    62 B    64 A    65 A    63 B    64 B    65 B    66 A                  
  0.795   0.795   0.815   0.827   0.848   0.890   0.909   0.947
 66 B    67 A    67 B    68 A    68 B    69 A    69 B    70 A                  
  0.950   0.950   0.954   0.969   0.975   0.992   1.002   1.011
 71 A    70 B    71 B    72 A    72 B    73 A    73 B    74 A                  
  1.016   1.049   1.055   1.075   1.085   1.087   1.108   1.109
 74 B    75 A    75 B    76 A    76 B    77 A    78 A    77 B                  
  1.126   1.177   1.190   1.226   1.237   1.267   1.327   1.343
 78 B    79 A    80 A    79 B    80 B    81 A    81 B    82 A                  
  1.355   1.359   1.366   1.390   1.449   1.471   1.488   1.550
 82 B    83 A    83 B    84 A    84 B    85 B    85 A    86 A                  
  1.575   1.682   1.693   1.744   1.784   1.877   1.885   1.890
 86 B    87 B    87 A    88 B    88 A    89 A    90 A    89 B                  
  1.909   1.925   1.942   1.973   2.016   2.022   2.070   2.070
 90 B    91 A    92 A    91 B    92 B    93 A    93 B    94 A                  
  2.136   2.156   2.180   2.202   2.231   2.240   2.267   2.302
 95 A    94 B    95 B    96 A    96 B    97 A    97 B    98 A                  
  2.366   2.368   2.428   2.451   2.454   2.472   2.497   2.514
 99 A    98 B    99 B   100 A   101 A   100 B   101 B   102 A                  
  2.514   2.539   2.579   2.593   2.594   2.667   2.691   2.716
102 B   103 A   104 A   105 A   103 B   104 B   105 B   106 A                  
  2.779   2.780   2.862   2.906   2.953   3.143   3.202   3.271
106 B   107 A   108 A   107 B   108 B   109 A   109 B   110 A                  
  3.271   3.403   3.426   3.715   3.749   3.951   3.996   4.257
110 B   111 A   111 B   112 A   112 B   113 A   113 B   114 A                  
  4.309   4.321   4.332   4.411   4.539   4.652   4.721
115 A   114 B   115 B   116 A   116 B   117 A   117 B                          
 
 Beta MOs, Restricted
 -- Occupied --                  
-88.920 -88.920 -10.238 -10.237 -10.225 -10.225 -10.204 -10.204
  1 B     1 A     2 A     2 B     3 B     3 A     4 B     4 A                  
-10.203 -10.203  -7.979  -7.979  -5.943  -5.943  -5.940  -5.940
  5 B     5 A     6 B     6 A     7 B     7 A     8 B     8 A                  
 -5.936  -5.936  -0.900  -0.878  -0.771  -0.747  -0.738  -0.705
  9 A     9 B    10 A    10 B    11 A    12 A    11 B    12 B                  
 -0.603  -0.576  -0.557  -0.534  -0.525  -0.477  -0.420  -0.417
 13 A    14 A    13 B    14 B    15 A    15 B    16 A    17 A                  
 -0.410  -0.403  -0.398  -0.376  -0.374  -0.356  -0.347  -0.273
 16 B    17 B    18 A    18 B    19 A    20 A    19 B    20 B                  
 -0.261  -0.261  -0.218
 21 B    21 A    22 A                                                          
 -- Virtual --                   
 -0.052  -0.015  -0.005  -0.001   0.004   0.016   0.017   0.026
 22 B    23 A    24 A    23 B    25 A    26 A    24 B    27 A                  
  0.029   0.034   0.038   0.044   0.048   0.053   0.056   0.068
 25 B    26 B    28 A    27 B    29 A    28 B    30 A    29 B                  
  0.071   0.077   0.093   0.094   0.100   0.104   0.107   0.112
 31 A    30 B    31 B    32 A    32 B    33 A    34 A    35 A                  
  0.113   0.123   0.125   0.132   0.135   0.137   0.140   0.143
 33 B    34 B    36 A    37 A    35 B    36 B    38 A    39 A                  
  0.149   0.150   0.155   0.163   0.168   0.174   0.176   0.183
 37 B    40 A    38 B    39 B    41 A    40 B    42 A    41 B                  
  0.184   0.190   0.194   0.205   0.211   0.218   0.225   0.229
 43 A    42 B    44 A    43 B    44 B    45 A    45 B    46 A                  
  0.242   0.251   0.263   0.263   0.266   0.272   0.301   0.310
 46 B    47 B    48 B    47 A    48 A    49 A    49 B    50 A                  
  0.312   0.315   0.321   0.326   0.355   0.365   0.372   0.390
 51 A    50 B    51 B    52 A    53 A    52 B    53 B    54 A                  
  0.436   0.451   0.469   0.499   0.526   0.535   0.552   0.563
 54 B    55 A    56 A    55 B    57 A    56 B    57 B    58 B                  
  0.569   0.608   0.617   0.631   0.653   0.660   0.669   0.674
 58 A    59 A    59 B    60 A    61 A    60 B    61 B    62 A                  
  0.698   0.708   0.721   0.726   0.728   0.741   0.745   0.751
 63 A    62 B    64 A    65 A    63 B    64 B    65 B    66 A                  
  0.795   0.795   0.815   0.827   0.848   0.890   0.909   0.947
 66 B    67 A    67 B    68 A    68 B    69 A    69 B    70 A                  
  0.950   0.950   0.954   0.969   0.975   0.992   1.002   1.011
 71 A    70 B    71 B    72 A    72 B    73 A    73 B    74 A                  
  1.016   1.049   1.055   1.075   1.085   1.087   1.108   1.109
 74 B    75 A    75 B    76 A    76 B    77 A    78 A    77 B                  
  1.126   1.177   1.190   1.226   1.237   1.267   1.327   1.343
 78 B    79 A    80 A    79 B    80 B    81 A    81 B    82 A                  
  1.355   1.359   1.366   1.390   1.449   1.471   1.488   1.550
 82 B    83 A    83 B    84 A    84 B    85 B    85 A    86 A                  
  1.575   1.682   1.693   1.744   1.784   1.877   1.885   1.890
 86 B    87 B    87 A    88 B    88 A    89 A    90 A    89 B                  
  1.909   1.925   1.942   1.973   2.016   2.022   2.070   2.070
 90 B    91 A    92 A    91 B    92 B    93 A    93 B    94 A                  
  2.136   2.156   2.180   2.202   2.231   2.240   2.267   2.302
 95 A    94 B    95 B    96 A    96 B    97 A    97 B    98 A                  
  2.366   2.368   2.428   2.451   2.454   2.472   2.497   2.514
 99 A    98 B    99 B   100 A   101 A   100 B   101 B   102 A                  
  2.514   2.539   2.579   2.593   2.594   2.667   2.691   2.716
102 B   103 A   104 A   105 A   103 B   104 B   105 B   106 A                  
  2.779   2.780   2.862   2.906   2.953   3.143   3.202   3.271
106 B   107 A   108 A   107 B   108 B   109 A   109 B   110 A                  
  3.271   3.403   3.426   3.715   3.749   3.951   3.996   4.257
110 B   111 A   111 B   112 A   112 B   113 A   113 B   114 A                  
  4.309   4.321   4.332   4.411   4.539   4.652   4.721
115 A   114 B   115 B   116 A   116 B   117 A   117 B                          
 --------------------------------------------------------------
 
          Ground-State Mulliken Net Atomic Charges

     Atom                 Charge (a.u.)
  ----------------------------------------
      1 S                    -0.019206
      2 C                    -0.062096
      3 C                    -0.391758
      4 C                     0.265306
      5 C                    -0.237187
      6 H                     0.141368
      7 C                    -0.237187
      8 S                    -0.019206
      9 C                     0.265306
     10 C                    -0.062096
     11 C                    -0.391758
     12 H                     0.116433
     13 H                     0.187140
     14 H                     0.116433
     15 H                     0.187140
     16 H                     0.141368
  ----------------------------------------
  Sum of atomic charges =     0.000000

 -----------------------------------------------------------------
                    Cartesian Multipole Moments
 -----------------------------------------------------------------
    Charge (ESU x 10^10)
                 0.0000
    Dipole Moment (Debye)
         X       0.0000      Y      -0.0000      Z      -0.9676
       Tot       0.9676
    Quadrupole Moments (Debye-Ang)
        XX     -60.9576     XY       0.7553     YY     -77.5069
        XZ      -0.0000     YZ      -0.0000     ZZ     -68.9761
    Octopole Moments (Debye-Ang^2)
       XXX       0.0000    XXY      -0.0000    XYY       0.0000
       YYY      -0.0000    XXZ       5.2820    XYZ      -9.5164
       YYZ       0.9619    XZZ       0.0000    YZZ      -0.0000
       ZZZ      -6.7353
    Hexadecapole Moments (Debye-Ang^3)
      XXXX   -1880.7696   XXXY       6.5863   XXYY    -421.7326
      XYYY       2.7721   YYYY    -168.5069   XXXZ      -0.0000
      XXYZ       0.0000   XYYZ      -0.0000   YYYZ      -0.0000
      XXZZ    -408.8979   XYZZ      11.4999   YYZZ    -115.8695
      XZZZ      -0.0000   YZZZ      -0.0000   ZZZZ    -513.0558
 -----------------------------------------------------------------
Archival summary:
1\1\nid01043\OPT\ProcedureUnspecified\BasisUnspecified\286\FriSep218:46:072016FriSep218:46:072016\0\\#,OPT,ProcedureUnspecified,BasisUnspecified,\\0,1\S\C,1,1.7341\H,2,1.08145,1,119.949\C,2,1.37038,1,111.629,3,179.945,0\H,4,1.08414,2,123.347,1,-179.801,0\C,4,1.42575,2,112.815,1,-0.778837,0\H,6,1.08396,4,124.053,2,-177.621,0\C,6,1.3789,4,113.448,2,0.651186,0\C,8,1.45639,6,127.647,4,179.378,0\C,9,1.3789,8,127.647,6,-40,0\H,10,1.08396,9,122.476,8,-2.3195,0\C,10,1.42575,9,113.448,8,179.378,0\H,12,1.08414,10,123.83,9,179.668,0\C,12,1.37038,10,112.815,9,0.651186,0\H,14,1.08145,12,128.422,10,179.16,0\S,14,1.7341,12,111.629,10,-0.778837,0\\\@

 Total job time:  54.26s(wall), 60.28s(cpu) 
 Fri Sep  2 18:46:07 2016

        *************************************************************
        *                                                           *
        *  Thank you very much for using Q-Chem.  Have a nice day.  *
        *                                                           *
        *************************************************************


0 sent ACK to 0 
now end server 0 ... 
