srun -N 1 --ntasks-per-node 16 --nodelist nid01043 /global/project/projectdirs/jcesr/qchem/qc44/cnl_qc441/dist/exe/qcprog.cori.exe .pt_dft_90.0.in.62849.qcin.1 /dev/shm/eg_qchem/qchem62849/
Process 0 of 16 is on nid01043 - thread support 0
Process 1 of 16 is on nid01043 - thread support 0
Process 2 of 16 is on nid01043 - thread support 0
Process 3 of 16 is on nid01043 - thread support 0
Process 4 of 16 is on nid01043 - thread support 0
Process 5 of 16 is on nid01043 - thread support 0
Process 6 of 16 is on nid01043 - thread support 0
initial socket setup ...start
Process 15 of 16 is on nid01043 - thread support 0
initial socket setup ...done 
now start server 0 ... 
nid01043 10.128.4
Q-Chem Developer Version! Running on 10.128.4.*
                  Welcome to Q-Chem
     A Quantum Leap Into The Future Of Chemistry


 Q-Chem 4.4, Q-Chem, Inc., Pleasanton, CA (2016)

 Y. Shao,  Z. Gan,  E. Epifanovsky,  A. T. B. Gilbert,  M. Wormit,  
 J. Kussmann,  A. W. Lange,  A. Behn,  J. Deng,  X. Feng,  D. Ghosh,  
 M. Goldey,  P. R. Horn,  L. D. Jacobson,  I. Kaliman,  F.Rob,  
 R. Z. Khaliullin,  T. Kus,  A. Landau,  J. Liu,  E. I. Proynov,  Y. M. Rhee,  
 R. M. Richard,  M. A. Rohrdanz,  R. P. Steele,  E. J. Sundstrom,  
 H. L. Woodcock III,  P. M. Zimmerman,  D. Zuev,  B. Albrecht,  E. Alguire,  
 B. Austin,  S. A. Baeppler,  G. J. O. Beran,  Y. A. Bernard,  E. Berquist,  
 K. Brandhorst,  K. B. Bravaya,  S. T. Brown,  D. Casanova,  C.-M. Chang,  
 Y. Chen,  S. H. Chien,  K. D. Closser,  M. P. Coons,  D. L. Crittenden,  
 S. Dasgupta,  M. Diedenhofen,  R. A. DiStasio Jr.,  H. Do,  A. D. Dutoi,  
 R. G. Edgar,  P.-T. Fang,  S. Fatehi,  Q. Feng,  L. Fusti-Molnar,  
 A. Ghysels,  A. Golubeva-Zadorozhnaya,  J. Gomes,  A. Gunina,  
 M. W. D. Hanson-Heine,  P. H. P. Harbach,  A. W. Hauser,  E. G. Hohenstein,  
 Z. C. Holden,  K. Hui,  T.-C. Jagau,  H. Ji,  B. Kaduk,  K. Khistyaev,  
 Jaehoon Kim,  Jihan Kim,  R. A. King,  P. Klunzinger,  D. Kosenkov,  
 T. Kowalczyk,  C. M. Krauter,  A. Kunitsa,  K. U. Lao,  A. Laurent,  
 K. V. Lawler,  D. Lefrancois,  S. Lehtola,  S. V. Levchenko,  C. Y. Lin,  
 Y.-S. Lin,  F. Liu,  E. Livshits,  R. C. Lochan,  A. Luenser,  P. Manohar,  
 S. F. Manzer,  S.-P. Mao,  Y. Mao,  N. Mardirossian,  A. V. Marenich,  
 L. A. Martinez-Martinez,  S. A. Maurer,  N. J. Mayhall,  J.-M. Mewes,  
 A. F. Morrison,  K. Nanda,  C. M. Oana,  R. Olivares-Amaya,  D. P. O'Neill,  
 J. A. Parkhill,  T. M. Perrine,  R. Peverati,  P. A. Pieniazek,  F. Plasser,  
 A. Prociuk,  D. R. Rehn,  E. Rosta,  N. J. Russ,  N. Sergueev,  
 S. M. Sharada,  S. Sharma,  D. W. Small,  A. Sodt,  T. Stauch,  T. Stein,  
 D. Stuck,  Y.-C. Su,  A. J. W. Thom,  T. Tsuchimochi,  L. Vogt,  O. Vydrov,  
 T. Wang,  M. A. Watson,  J. Wenzel,  A. White,  C. F. Williams,  
 V. Vanovschi,  S. Yeganeh,  S. R. Yost,  Z.-Q. You,  I. Y. Zhang,  X. Zhang,  
 Y. Zhao,  B. R. Brooks,  G. K. L. Chan,  D. M. Chipman,  C. J. Cramer,  
 W. A. Goddard III,  M. S. Gordon,  W. J. Hehre,  A. Klamt,  
 H. F. Schaefer III,  M. W. Schmidt,  C. D. Sherrill,  D. G. Truhlar,  
 A. Warshel,  X. Xu,  A. Aspuru-Guzik,  R. Baer,  A. T. Bell,  N. A. Besley,  
 J.-D. Chai,  A. Dreuw,  B. D. Dunietz,  T. R. Furlani,  S. R. Gwaltney,  
 C.-P. Hsu,  Y. Jung,  J. Kong,  D. S. Lambrecht,  W. Liang,  C. Ochsenfeld,  
 V. A. Rassolov,  L. V. Slipchenko,  J. E. Subotnik,  T. Van Voorhis,  
 J. M. Herbert,  A. I. Krylov,  P. M. W. Gill,  M. Head-Gordon

 Contributors to earlier versions of Q-Chem not listed above: 
 R. D. Adamson,  J. Baker,  E. F. C. Byrd,  A. K. Chakraborty,  C.-L. Cheng,  
 H. Dachsel,  R. J. Doerksen,  G. Hawkins,  A. Heyden,  S. Hirata,  
 G. Kedziora,  F. J. Keil,  C. Kelley,  P. P. Korambath,  W. Kurlancheek,  
 A. M. Lee,  M. S. Lee,  D. Liotard,  I. Lotan,  P. E. Maslen,  N. Nair,  
 D. Neuhauser,  R. Olson,  B. Peters,  J. Ritchie,  N. E. Schultz,  
 N. Shenvi,  A. C. Simmonett,  K. S. Thanthiriwatte,  Q. Wu,  W. Zhang

 Please cite Q-Chem as follows:
 Y. Shao et al., Mol. Phys. 113, 184-215 (2015)
 DOI: 10.1080/00268976.2014.952696

 Q-Chem 4.4.1 for Intel X86 EM64T Linux

 Parts of Q-Chem use Armadillo 5.200.1 (Boston Tea Smuggler).
 http://arma.sourceforge.net/

 Q-Chem begins on Fri Sep  2 18:52:07 2016  

Host: nid01043
0

     Scratch files written to /dev/shm/eg_qchem/qchem62849.0//
 Parallel job on  16  processors

Checking the input file for inconsistencies... 	...done.

--------------------------------------------------------------
User input:
--------------------------------------------------------------
$molecule
 0  1
 S           1.82267924       -1.19997629        0.28714109
 C           3.20006180       -0.17260711        0.06528466
 C           2.82980603        1.10216298       -0.25610036
 C           1.41909100        1.26345446       -0.34254814
 C           0.71738150        0.10901545       -0.08456145
 H           0.93627498        2.19419272       -0.61095402
 C          -0.71741859       -0.10899254       -0.08455524
 S          -1.65691630        0.10885505        1.37940909
 C          -1.53599595       -0.49431368       -1.12048061
 C          -3.12825426       -0.30018565        0.56103216
 C          -2.90561468       -0.60348066       -0.75192645
 H          -3.69269648       -0.88575145       -1.43861363
 H           4.19429620       -0.57452886        0.18632814
 H           3.53860725        1.89960515       -0.43610218
 H          -4.06281527       -0.29097931        1.10066685
 H          -1.16798283       -0.66952392       -2.12312435
$end


$rem
         jobtype = opt
        exchange = b3lyp
           basis = 6-31++g**
  max_scf_cycles = 75
      mem_static = 100
       mem_total = 1500
$end


$opt
CONSTRAINT
tors 4 5 7 9 90.0
ENDCONSTRAINT
$end

--------------------------------------------------------------
 Atom   8: ( -1.7241591945,  0.8835683187,  0.8195167677)
         ->( -1.7241593305,  0.8835687254,  0.8195163302)
 Atom  10: ( -3.1710136061,  0.1485909008,  0.2126304579)
         ->( -3.1710135984,  0.1485907939,  0.2126303510)
 Atom  11: ( -2.8963019003, -0.7899138423, -0.7408677765)
         ->( -2.8963017611, -0.7899144018, -0.7408673431)
 Atom   9: ( -1.5046455210, -0.9181004968, -1.0063216661)
         ->( -1.5046454166, -0.9181006624, -1.0063215905)
 Atom   7: ( -0.7216155991, -0.0762605019, -0.2514361041)
         ->( -0.7216155379, -0.0762605371, -0.2514360395)
 Atom  16: ( -1.0941159994, -1.5911531398, -1.7478689712)
         ->( -1.0941158391, -1.5911533277, -1.7478688310)
 Atom  14: (  3.6606353854,  1.3650998594, -1.2465051969)
         ->(  3.6606356073,  1.3650989031, -1.2465059596)
 Atom  15: ( -4.1311672057,  0.4555585812,  0.5980789567)
         ->( -4.1311672864,  0.4555584217,  0.5980787007)
 ----------------------------------------------------------------
             Standard Nuclear Orientation (Angstroms)
    I     Atom           X                Y                Z
 ----------------------------------------------------------------
    1      S       1.7241593305    -0.8835687254     0.8195163302
    2      C       3.1710135984    -0.1485907939     0.2126303510
    3      C       2.8963017611     0.7899144018    -0.7408673431
    4      C       1.5046454166     0.9181006624    -1.0063215905
    5      C       0.7216155379     0.0762605371    -0.2514360395
    6      H       1.0941158391     1.5911533277    -1.7478688310
    7      C      -0.7216155379    -0.0762605371    -0.2514360395
    8      S      -1.7241593305     0.8835687254     0.8195163302
    9      C      -1.5046454166    -0.9181006624    -1.0063215905
   10      C      -3.1710135984     0.1485907939     0.2126303510
   11      C      -2.8963017611    -0.7899144018    -0.7408673431
   12      H      -3.6606356073    -1.3650989031    -1.2465059596
   13      H       4.1311672864    -0.4555584217     0.5980787007
   14      H       3.6606356073     1.3650989031    -1.2465059596
   15      H      -4.1311672864     0.4555584217     0.5980787007
   16      H      -1.0941158391    -1.5911533277    -1.7478688310
 ----------------------------------------------------------------
 Molecular Point Group                 C2    NOp =  2
 Largest Abelian Subgroup              C2    NOp =  2
 Nuclear Repulsion Energy =   629.8565073052 hartrees
 There are       43 alpha and       43 beta electrons
 Requested basis set is 6-31++G(d,p)
 There are 76 shells and 234 basis functions

 Total QAlloc Memory Limit   1500 MB
 Mega-Array Size        98 MB
 MEM_STATIC part       100 MB
 A cutoff of  1.0D-11 yielded   2488 shell pairs
 There are     24540 function pairs
 
 -------------------------------------------------------
 OpenMP Integral Computing Module                       
 Release: version 1.0, May 2013, Q-Chem Inc. Pittsburgh 
 -------------------------------------------------------
 Integral Job Info:
 Integral job number is                      11
 Integral operator is                         1
 short-range coefficients                     0
 long-range coefficients              100000000
 Omega coefficients                           0
 if combine SR and LR in K                    0
 Integral screening is                        0
 Integral computing path is                   2
 max size of driver memory is            800000
 size of driver memory is                593474
 size of scratch memory is             15166112
 max col of scratch BK array               1296
 max len of scratch array in speh3          155
 max len of scratch index in speh4           18
 max int batch size is                      520
 min int batch size is                       52
 fixed nKL is                                52
 max L of basis functions is                  2
 order of int derivative is                   0
 number of shells is                         76
 number of basis is                         234
 number of cartesian basis is               234
 number of contracted shell pairs          2488
 number of primitive shell pairs           8035
 maxK2 (contraction) of shell pair           36
 max number of K2 of shell pair               1
 max number of CS2 of shell pair            258
 max number of PS2 of shell pair           1488
 mem total for path MDJ                   51378
 -------------------------------------------------------
 Smallest overlap matrix eigenvalue = 1.07E-06

 Q-Chem warning in module /project/projectdirs/jcesr/qchem/qc44/cnl_qc441/compile/cori/qc_src/stvman/mkSTV.C, line 257:

 Overlap eigenvalue is smaller than square root of threshold


 Scale SEOQF with 1.000000e-01/1.000000e-01/1.000000e-01

 Standard Electronic Orientation quadrupole field applied
 Nucleus-field energy     =     0.0000000130 hartrees
 Guess from superposition of atomic densities
 Warning:  Energy on first SCF cycle will be non-variational
 A restricted hybrid HF-DFT SCF calculation will be
 performed using Pulay DIIS extrapolation
 Exchange:     0.2000 Hartree-Fock + 0.0800 Slater + 0.7200 B88
 Correlation:  0.1900 VWN1RPA + 0.8100 LYP
 Using SG-1 standard quadrature grid
 SCF converges when DIIS error is below 1.0E-08
 ---------------------------------------
  Cycle       Energy         DIIS Error
 ---------------------------------------
    1   -1107.2303130515      4.44E-02
    2   -1080.6323581007      7.35E-02
    3   -1065.1203796973      8.75E-01
    4   -1107.5866735011      1.19E-01
    5   -1099.4087845165      2.34E-01
    6   -1099.2225527928      2.51E-01
    7   -1100.7806222160      1.92E-01
    8   -1104.3400118421      1.13E-02
    9   -1104.3613820867      7.00E-03
   10   -1104.6883454859      4.41E-03
   11   -1104.8048001281      2.13E-03
   12   -1104.8338592497      7.06E-04
   13   -1104.8360919793      3.57E-04
   14   -1104.8366604089      1.39E-04
   15   -1104.8367629529      7.41E-05
   16   -1104.8368007424      3.91E-05
   17   -1104.8368170696      1.15E-05
   18   -1104.8368207439      3.77E-06
   19   -1104.8368249089      7.06E-07
   20   -1104.8368248623      2.30E-07
   21   -1104.8368249179      1.01E-07
   22   -1104.8368255294      3.70E-08
   23   -1104.8368252508      1.54E-08
   24   -1104.8368247150      2.89E-08
   25   -1104.8368246518      9.07E-09 Convergence criterion met
 ---------------------------------------
 SCF time:  CPU 10.75 s  wall 9.12 s
 SCF   energy in the final basis set = -1104.8368246518
 Total energy in the final basis set = -1104.8368246518
 
 --------------------------------------------------------------
             Orbital Energies (a.u.) and Symmetries
 --------------------------------------------------------------
 
 Alpha MOs, Restricted
 -- Occupied --                  
-88.918 -88.918 -10.234 -10.234 -10.223 -10.223 -10.203 -10.203
  1 B     1 A     2 A     2 B     3 B     3 A     4 A     4 B                  
-10.202 -10.202  -7.977  -7.977  -5.942  -5.942  -5.938  -5.938
  5 B     5 A     6 B     6 A     7 B     7 A     8 B     8 A                  
 -5.935  -5.935  -0.899  -0.878  -0.770  -0.742  -0.742  -0.705
  9 B     9 A    10 A    10 B    11 A    12 A    11 B    12 B                  
 -0.603  -0.567  -0.565  -0.535  -0.524  -0.478  -0.418  -0.415
 13 A    13 B    14 A    14 B    15 A    15 B    16 A    16 B                  
 -0.413  -0.406  -0.394  -0.375  -0.374  -0.351  -0.350  -0.264
 17 A    17 B    18 A    19 A    18 B    19 B    20 A    21 A                  
 -0.257  -0.243  -0.242
 20 B    21 B    22 A                                                          
 -- Virtual --                   
 -0.034  -0.033  -0.005  -0.003   0.007   0.013   0.021   0.022
 23 A    22 B    24 A    23 B    25 A    24 B    26 A    25 B                  
  0.026   0.035   0.035   0.041   0.045   0.048   0.065   0.071
 27 A    28 A    26 B    27 B    29 A    28 B    29 B    30 B                  
  0.071   0.071   0.080   0.102   0.103   0.107   0.111   0.112
 30 A    31 A    32 A    33 A    31 B    34 A    32 B    35 A                  
  0.114   0.119   0.125   0.127   0.132   0.132   0.138   0.142
 33 B    34 B    35 B    36 A    36 B    37 A    38 A    37 B                  
  0.147   0.151   0.157   0.162   0.169   0.173   0.179   0.182
 38 B    39 A    40 A    39 B    41 A    42 A    40 B    41 B                  
  0.186   0.191   0.191   0.206   0.214   0.218   0.221   0.226
 43 A    42 B    43 B    44 A    44 B    45 A    45 B    46 A                  
  0.244   0.249   0.258   0.271   0.271   0.275   0.295   0.299
 47 A    46 B    47 B    48 A    48 B    49 A    50 A    49 B                  
  0.308   0.318   0.331   0.333   0.357   0.364   0.373   0.393
 50 B    51 B    51 A    52 A    53 A    52 B    53 B    54 A                  
  0.432   0.471   0.487   0.487   0.519   0.534   0.550   0.578
 54 B    55 A    56 A    55 B    57 A    56 B    57 B    58 A                  
  0.582   0.586   0.617   0.636   0.643   0.666   0.674   0.676
 58 B    59 A    59 B    60 A    60 B    61 A    61 B    62 A                  
  0.692   0.698   0.726   0.727   0.742   0.756   0.769   0.772
 62 B    63 A    63 B    64 A    64 B    65 B    65 A    66 B                  
  0.795   0.803   0.816   0.828   0.842   0.895   0.913   0.938
 66 A    67 B    67 A    68 A    68 B    69 A    69 B    70 A                  
  0.943   0.958   0.960   0.971   0.973   0.988   0.991   1.016
 70 B    71 A    71 B    72 B    72 A    73 A    73 B    74 B                  
  1.021   1.023   1.038   1.062   1.078   1.094   1.104   1.110
 75 B    74 A    75 A    76 B    76 A    77 A    77 B    78 A                  
  1.133   1.185   1.220   1.223   1.248   1.285   1.326   1.345
 78 B    79 A    79 B    80 A    80 B    81 A    81 B    82 A                  
  1.352   1.353   1.362   1.397   1.459   1.473   1.488   1.520
 83 A    82 B    83 B    84 A    84 B    85 B    85 A    86 A                  
  1.573   1.692   1.696   1.787   1.829   1.847   1.880   1.886
 86 B    87 A    87 B    88 A    89 A    88 B    90 A    89 B                  
  1.920   1.928   1.964   1.977   2.017   2.020   2.067   2.107
 90 B    91 A    92 A    91 B    93 A    92 B    93 B    94 A                  
  2.128   2.165   2.187   2.198   2.212   2.261   2.272   2.345
 95 A    94 B    95 B    96 B    96 A    97 B    97 A    98 A                  
  2.367   2.372   2.433   2.443   2.472   2.479   2.496   2.514
 99 A    98 B    99 B   100 A   101 A   100 B   101 B   102 A                  
  2.515   2.530   2.585   2.593   2.617   2.650   2.706   2.707
102 B   103 A   103 B   104 A   104 B   105 A   105 B   106 A                  
  2.762   2.837   2.866   2.887   2.946   3.177   3.179   3.275
106 B   107 A   107 B   108 A   108 B   109 A   109 B   110 B                  
  3.278   3.408   3.434   3.730   3.750   3.969   3.971   4.287
110 A   111 A   111 B   112 A   112 B   113 A   113 B   114 A                  
  4.310   4.320   4.332   4.440   4.537   4.665   4.717
115 A   114 B   115 B   116 A   116 B   117 A   117 B                          
 
 Beta MOs, Restricted
 -- Occupied --                  
-88.918 -88.918 -10.234 -10.234 -10.223 -10.223 -10.203 -10.203
  1 B     1 A     2 A     2 B     3 B     3 A     4 A     4 B                  
-10.202 -10.202  -7.977  -7.977  -5.942  -5.942  -5.938  -5.938
  5 B     5 A     6 B     6 A     7 B     7 A     8 B     8 A                  
 -5.935  -5.935  -0.899  -0.878  -0.770  -0.742  -0.742  -0.705
  9 B     9 A    10 A    10 B    11 A    12 A    11 B    12 B                  
 -0.603  -0.567  -0.565  -0.535  -0.524  -0.478  -0.418  -0.415
 13 A    13 B    14 A    14 B    15 A    15 B    16 A    16 B                  
 -0.413  -0.406  -0.394  -0.375  -0.374  -0.351  -0.350  -0.264
 17 A    17 B    18 A    19 A    18 B    19 B    20 A    21 A                  
 -0.257  -0.243  -0.242
 20 B    21 B    22 A                                                          
 -- Virtual --                   
 -0.034  -0.033  -0.005  -0.003   0.007   0.013   0.021   0.022
 23 A    22 B    24 A    23 B    25 A    24 B    26 A    25 B                  
  0.026   0.035   0.035   0.041   0.045   0.048   0.065   0.071
 27 A    28 A    26 B    27 B    29 A    28 B    29 B    30 B                  
  0.071   0.071   0.080   0.102   0.103   0.107   0.111   0.112
 30 A    31 A    32 A    33 A    31 B    34 A    32 B    35 A                  
  0.114   0.119   0.125   0.127   0.132   0.132   0.138   0.142
 33 B    34 B    35 B    36 A    36 B    37 A    38 A    37 B                  
  0.147   0.151   0.157   0.162   0.169   0.173   0.179   0.182
 38 B    39 A    40 A    39 B    41 A    42 A    40 B    41 B                  
  0.186   0.191   0.191   0.206   0.214   0.218   0.221   0.226
 43 A    42 B    43 B    44 A    44 B    45 A    45 B    46 A                  
  0.244   0.249   0.258   0.271   0.271   0.275   0.295   0.299
 47 A    46 B    47 B    48 A    48 B    49 A    50 A    49 B                  
  0.308   0.318   0.331   0.333   0.357   0.364   0.373   0.393
 50 B    51 B    51 A    52 A    53 A    52 B    53 B    54 A                  
  0.432   0.471   0.487   0.487   0.519   0.534   0.550   0.578
 54 B    55 A    56 A    55 B    57 A    56 B    57 B    58 A                  
  0.582   0.586   0.617   0.636   0.643   0.666   0.674   0.676
 58 B    59 A    59 B    60 A    60 B    61 A    61 B    62 A                  
  0.692   0.698   0.726   0.727   0.742   0.756   0.769   0.772
 62 B    63 A    63 B    64 A    64 B    65 B    65 A    66 B                  
  0.795   0.803   0.816   0.828   0.842   0.895   0.913   0.938
 66 A    67 B    67 A    68 A    68 B    69 A    69 B    70 A                  
  0.943   0.958   0.960   0.971   0.973   0.988   0.991   1.016
 70 B    71 A    71 B    72 B    72 A    73 A    73 B    74 B                  
  1.021   1.023   1.038   1.062   1.078   1.094   1.104   1.110
 75 B    74 A    75 A    76 B    76 A    77 A    77 B    78 A                  
  1.133   1.185   1.220   1.223   1.248   1.285   1.326   1.345
 78 B    79 A    79 B    80 A    80 B    81 A    81 B    82 A                  
  1.352   1.353   1.362   1.397   1.459   1.473   1.488   1.520
 83 A    82 B    83 B    84 A    84 B    85 B    85 A    86 A                  
  1.573   1.692   1.696   1.787   1.829   1.847   1.880   1.886
 86 B    87 A    87 B    88 A    89 A    88 B    90 A    89 B                  
  1.920   1.928   1.964   1.977   2.017   2.020   2.067   2.107
 90 B    91 A    92 A    91 B    93 A    92 B    93 B    94 A                  
  2.128   2.165   2.187   2.198   2.212   2.261   2.272   2.345
 95 A    94 B    95 B    96 B    96 A    97 B    97 A    98 A                  
  2.367   2.372   2.433   2.443   2.472   2.479   2.496   2.514
 99 A    98 B    99 B   100 A   101 A   100 B   101 B   102 A                  
  2.515   2.530   2.585   2.593   2.617   2.650   2.706   2.707
102 B   103 A   103 B   104 A   104 B   105 A   105 B   106 A                  
  2.762   2.837   2.866   2.887   2.946   3.177   3.179   3.275
106 B   107 A   107 B   108 A   108 B   109 A   109 B   110 B                  
  3.278   3.408   3.434   3.730   3.750   3.969   3.971   4.287
110 A   111 A   111 B   112 A   112 B   113 A   113 B   114 A                  
  4.310   4.320   4.332   4.440   4.537   4.665   4.717
115 A   114 B   115 B   116 A   116 B   117 A   117 B                          
 --------------------------------------------------------------
 
          Ground-State Mulliken Net Atomic Charges

     Atom                 Charge (a.u.)
  ----------------------------------------
      1 S                     0.055149
      2 C                    -0.039611
      3 C                    -0.387832
      4 C                     0.333767
      5 C                    -0.397692
      6 H                     0.131102
      7 C                    -0.397692
      8 S                     0.055149
      9 C                     0.333766
     10 C                    -0.039611
     11 C                    -0.387832
     12 H                     0.118110
     13 H                     0.187008
     14 H                     0.118110
     15 H                     0.187008
     16 H                     0.131102
  ----------------------------------------
  Sum of atomic charges =     0.000000

 -----------------------------------------------------------------
                    Cartesian Multipole Moments
 -----------------------------------------------------------------
    Charge (ESU x 10^10)
                -0.0000
    Dipole Moment (Debye)
         X       0.0000      Y       0.0000      Z      -0.7813
       Tot       0.7813
    Quadrupole Moments (Debye-Ang)
        XX     -61.1517     XY       1.3736     YY     -73.3594
        XZ      -0.0000     YZ      -0.0000     ZZ     -72.9596
    Octopole Moments (Debye-Ang^2)
       XXX       0.0000    XXY      -0.0000    XYY       0.0000
       YYY       0.0000    XXZ       5.9669    XYZ     -13.9248
       YYZ      -4.7036    XZZ       0.0000    YZZ       0.0000
       ZZZ       0.4374
    Hexadecapole Moments (Debye-Ang^3)
      XXXX   -1875.4736   XXXY      -8.0111   XXYY    -415.4742
      XYYY      -0.7774   YYYY    -357.4919   XXXZ      -0.0000
      XXYZ      -0.0000   XYYZ      -0.0000   YYYZ      -0.0000
      XXZZ    -415.1950   XYZZ       6.7327   YYZZ    -103.0366
      XZZZ      -0.0000   YZZZ      -0.0000   ZZZZ    -351.9518
 -----------------------------------------------------------------
 Calculating analytic gradient of the SCF energy
 Gradient of SCF Energy
            1           2           3           4           5           6
    1  -0.0016030   0.0010616  -0.0021920   0.0016644  -0.0089317   0.0015488
    2   0.0011082   0.0027220  -0.0013650   0.0006708  -0.0005935  -0.0012282
    3  -0.0000370  -0.0041076   0.0025565   0.0013087   0.0000372  -0.0000164
            7           8           9          10          11          12
    1   0.0089317   0.0016030  -0.0016644  -0.0010616   0.0021920   0.0011165
    2   0.0005935  -0.0011082  -0.0006708  -0.0027220   0.0013650   0.0008670
    3   0.0000372  -0.0000370   0.0013087  -0.0041076   0.0025565   0.0007801
           13          14          15          16
    1  -0.0018579  -0.0011165   0.0018579  -0.0015488
    2  -0.0001028  -0.0008670   0.0001028   0.0012282
    3  -0.0005215   0.0007801  -0.0005215  -0.0000164
 Max gradient component =       8.932E-03
 RMS gradient           =       2.396E-03
 Gradient time:  CPU 1.95 s  wall 1.91 s
 Geometry Optimization Parameters
   NAtoms,    NIC,     NZ,  NCons,   NDum,   NFix, NCnnct, MaxDiis
       16     111       0       1       0       0       0       0


** CONSTRAINED OPTIMIZATION IN DELOCALIZED INTERNAL COORDINATES **
   Searching for a Minimum

   Optimization Cycle:   1

                       Coordinates (Angstroms)
     ATOM                X               Y               Z
      1  S         1.7241593305   -0.8835687254    0.8195163302
      2  C         3.1710135984   -0.1485907939    0.2126303510
      3  C         2.8963017611    0.7899144018   -0.7408673431
      4  C         1.5046454166    0.9181006624   -1.0063215905
      5  C         0.7216155379    0.0762605371   -0.2514360395
      6  H         1.0941158391    1.5911533277   -1.7478688310
      7  C        -0.7216155379   -0.0762605371   -0.2514360395
      8  S        -1.7241593305    0.8835687254    0.8195163302
      9  C        -1.5046454166   -0.9181006624   -1.0063215905
     10  C        -3.1710135984    0.1485907939    0.2126303510
     11  C        -2.8963017611   -0.7899144018   -0.7408673431
     12  H        -3.6606356073   -1.3650989031   -1.2465059596
     13  H         4.1311672864   -0.4555584217    0.5980787007
     14  H         3.6606356073    1.3650989031   -1.2465059596
     15  H        -4.1311672864    0.4555584217    0.5980787007
     16  H        -1.0941158391   -1.5911533277   -1.7478688310
   Point Group: c2    Number of degrees of freedom:    22


   Energy is  -1104.836824652

              Constraints and their Current Values
                                        Value     Constraint
   Dihedral:        4   5   7   9       90.000       90.000

 Attempting to Generate Delocalized Internal Coordinates

 21 Hessian modes will be used to form the next step
  Hessian Eigenvalues:
     0.045000    0.045000    0.045000    0.045002    0.045004    0.045013
     0.159937    0.159990    0.160000    0.221280    0.237833    0.249997
     0.296078    0.314672    0.357149    0.357543    0.360899    0.380793
     0.408411    0.470750    0.505998

 Minimum Search - Taking Simple RFO Step
 Searching for Lamda that Minimizes Along All modes
 Value Taken    Lamda =  -0.00076067
 Step Taken.  Stepsize is  0.064993

                             Maximum     Tolerance    Cnvgd?
         Gradient           0.009177      0.000300      NO
         Displacement       0.042871      0.001200      NO
         Energy change     *********      0.000001      NO


 New Cartesian Coordinates Obtained by Inverse Iteration

 Displacement from previous Coordinates is:  0.105232
 ----------------------------------------------------------------
             Standard Nuclear Orientation (Angstroms)
    I     Atom           X                Y                Z
 ----------------------------------------------------------------
    1      S       1.7393660944    -0.8909547147     0.8163545426
    2      C       3.1854466786    -0.1484959888     0.2165196509
    3      C       2.9090295088     0.7869661201    -0.7463867352
    4      C       1.5116475912     0.9141777083    -1.0085165014
    5      C       0.7298190182     0.0732688121    -0.2499111963
    6      H       1.0907305475     1.5919145815    -1.7428360277
    7      C      -0.7298190182    -0.0732688121    -0.2499111963
    8      S      -1.7393660944     0.8909547147     0.8163545426
    9      C      -1.5116475912    -0.9141777083    -1.0085165014
   10      C      -3.1854466786     0.1484959888     0.2165196509
   11      C      -2.9090295088    -0.7869661201    -0.7463867352
   12      H      -3.6732740962    -1.3659002094    -1.2529904807
   13      H       4.1496353214    -0.4482363294     0.6049923660
   14      H       3.6732740962     1.3659002094    -1.2529904807
   15      H      -4.1496353214     0.4482363294     0.6049923660
   16      H      -1.0907305475    -1.5919145815    -1.7428360277
 ----------------------------------------------------------------
 Molecular Point Group                 C2    NOp =  2
 Largest Abelian Subgroup              C2    NOp =  2
 Nuclear Repulsion Energy =   627.7245586862 hartrees
 There are       43 alpha and       43 beta electrons
 Applying Cartesian multipole field
    Component          Value
    ---------          -----
     (2,0,0)        1.00000E-11
     (0,2,0)        2.00000E-11
     (0,0,2)       -3.00000E-11
 Nucleus-field energy     =     0.0000000131 hartrees
 Requested basis set is 6-31++G(d,p)
 There are 76 shells and 234 basis functions
 A cutoff of  1.0D-11 yielded   2480 shell pairs
 There are     24508 function pairs
 Smallest overlap matrix eigenvalue = 1.19E-06

 Q-Chem warning in module /project/projectdirs/jcesr/qchem/qc44/cnl_qc441/compile/cori/qc_src/stvman/mkSTV.C, line 257:

 Overlap eigenvalue is smaller than square root of threshold

 Guess MOs from SCF MO coefficient file
 Reading MOs from coefficient file
 Reading MOs from coefficient file
 A restricted hybrid HF-DFT SCF calculation will be
 performed using Pulay DIIS extrapolation
 Exchange:     0.2000 Hartree-Fock + 0.0800 Slater + 0.7200 B88
 Correlation:  0.1900 VWN1RPA + 0.8100 LYP
 Using SG-1 standard quadrature grid
 SCF converges when DIIS error is below 1.0E-08
 Geometry optimization detected.  Setting ReadMinima to 0
 Setting SaveMinima to 0
 ---------------------------------------
  Cycle       Energy         DIIS Error
 ---------------------------------------
    1   -1104.8161833861      7.58E-04
    2   -1104.8370773483      1.24E-04
    3   -1104.8366080240      2.77E-04
    4   -1104.8372051009      2.55E-05
    5   -1104.8372092154      9.18E-06
    6   -1104.8372097587      3.08E-06
    7   -1104.8372098320      9.18E-07
    8   -1104.8372098359      3.23E-07
    9   -1104.8372098348      4.79E-08
   10   -1104.8372098346      2.30E-08
   11   -1104.8372098355      5.39E-09 Convergence criterion met
 ---------------------------------------
 SCF time:  CPU 5.78 s  wall 5.12 s
 SCF   energy in the final basis set = -1104.8372098355
 Total energy in the final basis set = -1104.8372098355
 
 --------------------------------------------------------------
             Orbital Energies (a.u.) and Symmetries
 --------------------------------------------------------------
 
 Alpha MOs, Restricted
 -- Occupied --                  
-88.919 -88.919 -10.236 -10.236 -10.225 -10.225 -10.204 -10.204
  1 B     1 A     2 A     2 B     3 B     3 A     4 A     4 B                  
-10.203 -10.203  -7.978  -7.978  -5.942  -5.942  -5.938  -5.938
  5 B     5 A     6 B     6 A     7 B     7 A     8 B     8 A                  
 -5.935  -5.935  -0.897  -0.877  -0.768  -0.741  -0.741  -0.705
  9 B     9 A    10 A    10 B    11 A    12 A    11 B    12 B                  
 -0.601  -0.567  -0.565  -0.534  -0.522  -0.478  -0.418  -0.414
 13 A    13 B    14 A    14 B    15 A    15 B    16 A    16 B                  
 -0.412  -0.406  -0.393  -0.375  -0.374  -0.350  -0.349  -0.264
 17 A    17 B    18 A    19 A    18 B    19 B    20 A    21 A                  
 -0.256  -0.243  -0.243
 20 B    21 B    22 A                                                          
 -- Virtual --                   
 -0.034  -0.033  -0.005  -0.003   0.007   0.013   0.021   0.022
 23 A    22 B    24 A    23 B    25 A    24 B    26 A    25 B                  
  0.026   0.034   0.035   0.041   0.045   0.048   0.065   0.071
 27 A    28 A    26 B    27 B    29 A    28 B    29 B    30 B                  
  0.071   0.071   0.080   0.102   0.102   0.107   0.110   0.112
 30 A    31 A    32 A    33 A    31 B    34 A    32 B    35 A                  
  0.114   0.118   0.125   0.127   0.132   0.132   0.137   0.142
 33 B    34 B    35 B    36 A    36 B    37 A    38 A    37 B                  
  0.145   0.150   0.157   0.162   0.169   0.173   0.178   0.181
 38 B    39 A    40 A    39 B    41 A    42 A    40 B    41 B                  
  0.186   0.190   0.191   0.206   0.212   0.218   0.220   0.226
 43 A    42 B    43 B    44 A    44 B    45 A    45 B    46 A                  
  0.244   0.248   0.256   0.270   0.271   0.274   0.294   0.298
 47 A    46 B    47 B    48 B    48 A    49 A    50 A    49 B                  
  0.305   0.317   0.328   0.332   0.357   0.363   0.372   0.391
 50 B    51 B    51 A    52 A    53 A    52 B    53 B    54 A                  
  0.430   0.471   0.483   0.485   0.519   0.531   0.549   0.578
 54 B    55 A    55 B    56 A    57 A    56 B    57 B    58 A                  
  0.581   0.587   0.616   0.634   0.643   0.666   0.674   0.676
 58 B    59 A    59 B    60 A    60 B    61 A    61 B    62 A                  
  0.690   0.697   0.725   0.727   0.738   0.754   0.768   0.772
 62 B    63 A    63 B    64 A    64 B    65 B    65 A    66 B                  
  0.794   0.801   0.813   0.828   0.842   0.894   0.910   0.940
 66 A    67 B    67 A    68 A    68 B    69 A    69 B    70 A                  
  0.944   0.958   0.959   0.968   0.971   0.986   0.992   1.015
 70 B    71 A    71 B    72 B    72 A    73 A    73 B    74 B                  
  1.020   1.022   1.035   1.059   1.077   1.094   1.103   1.110
 75 B    74 A    75 A    76 B    76 A    77 A    77 B    78 A                  
  1.130   1.183   1.217   1.220   1.245   1.284   1.325   1.346
 78 B    79 A    79 B    80 A    80 B    81 A    81 B    82 A                  
  1.352   1.354   1.361   1.393   1.457   1.469   1.484   1.518
 82 B    83 A    83 B    84 A    84 B    85 B    85 A    86 A                  
  1.567   1.691   1.695   1.780   1.827   1.848   1.875   1.881
 86 B    87 A    87 B    88 A    89 A    88 B    90 A    89 B                  
  1.916   1.922   1.959   1.971   2.011   2.017   2.061   2.106
 90 B    91 A    92 A    91 B    93 A    92 B    93 B    94 A                  
  2.126   2.160   2.185   2.195   2.207   2.253   2.265   2.338
 95 A    94 B    95 B    96 B    96 A    97 B    97 A    98 A                  
  2.366   2.370   2.429   2.437   2.466   2.476   2.492   2.511
 99 A    98 B    99 B   100 A   101 A   100 B   101 B   102 B                  
  2.512   2.524   2.580   2.587   2.611   2.644   2.699   2.701
102 A   103 A   103 B   104 A   104 B   105 A   105 B   106 A                  
  2.754   2.829   2.858   2.878   2.935   3.167   3.171   3.269
106 B   107 A   107 B   108 A   108 B   109 A   109 B   110 B                  
  3.271   3.401   3.426   3.720   3.740   3.967   3.970   4.283
110 A   111 A   111 B   112 A   112 B   113 A   113 B   114 A                  
  4.305   4.320   4.328   4.436   4.534   4.660   4.709
115 A   114 B   115 B   116 A   116 B   117 A   117 B                          
 
 Beta MOs, Restricted
 -- Occupied --                  
-88.919 -88.919 -10.236 -10.236 -10.225 -10.225 -10.204 -10.204
  1 B     1 A     2 A     2 B     3 B     3 A     4 A     4 B                  
-10.203 -10.203  -7.978  -7.978  -5.942  -5.942  -5.938  -5.938
  5 B     5 A     6 B     6 A     7 B     7 A     8 B     8 A                  
 -5.935  -5.935  -0.897  -0.877  -0.768  -0.741  -0.741  -0.705
  9 B     9 A    10 A    10 B    11 A    12 A    11 B    12 B                  
 -0.601  -0.567  -0.565  -0.534  -0.522  -0.478  -0.418  -0.414
 13 A    13 B    14 A    14 B    15 A    15 B    16 A    16 B                  
 -0.412  -0.406  -0.393  -0.375  -0.374  -0.350  -0.349  -0.264
 17 A    17 B    18 A    19 A    18 B    19 B    20 A    21 A                  
 -0.256  -0.243  -0.243
 20 B    21 B    22 A                                                          
 -- Virtual --                   
 -0.034  -0.033  -0.005  -0.003   0.007   0.013   0.021   0.022
 23 A    22 B    24 A    23 B    25 A    24 B    26 A    25 B                  
  0.026   0.034   0.035   0.041   0.045   0.048   0.065   0.071
 27 A    28 A    26 B    27 B    29 A    28 B    29 B    30 B                  
  0.071   0.071   0.080   0.102   0.102   0.107   0.110   0.112
 30 A    31 A    32 A    33 A    31 B    34 A    32 B    35 A                  
  0.114   0.118   0.125   0.127   0.132   0.132   0.137   0.142
 33 B    34 B    35 B    36 A    36 B    37 A    38 A    37 B                  
  0.145   0.150   0.157   0.162   0.169   0.173   0.178   0.181
 38 B    39 A    40 A    39 B    41 A    42 A    40 B    41 B                  
  0.186   0.190   0.191   0.206   0.212   0.218   0.220   0.226
 43 A    42 B    43 B    44 A    44 B    45 A    45 B    46 A                  
  0.244   0.248   0.256   0.270   0.271   0.274   0.294   0.298
 47 A    46 B    47 B    48 B    48 A    49 A    50 A    49 B                  
  0.305   0.317   0.328   0.332   0.357   0.363   0.372   0.391
 50 B    51 B    51 A    52 A    53 A    52 B    53 B    54 A                  
  0.430   0.471   0.483   0.485   0.519   0.531   0.549   0.578
 54 B    55 A    55 B    56 A    57 A    56 B    57 B    58 A                  
  0.581   0.587   0.616   0.634   0.643   0.666   0.674   0.676
 58 B    59 A    59 B    60 A    60 B    61 A    61 B    62 A                  
  0.690   0.697   0.725   0.727   0.738   0.754   0.768   0.772
 62 B    63 A    63 B    64 A    64 B    65 B    65 A    66 B                  
  0.794   0.801   0.813   0.828   0.842   0.894   0.910   0.940
 66 A    67 B    67 A    68 A    68 B    69 A    69 B    70 A                  
  0.944   0.958   0.959   0.968   0.971   0.986   0.992   1.015
 70 B    71 A    71 B    72 B    72 A    73 A    73 B    74 B                  
  1.020   1.022   1.035   1.059   1.077   1.094   1.103   1.110
 75 B    74 A    75 A    76 B    76 A    77 A    77 B    78 A                  
  1.130   1.183   1.217   1.220   1.245   1.284   1.325   1.346
 78 B    79 A    79 B    80 A    80 B    81 A    81 B    82 A                  
  1.352   1.354   1.361   1.393   1.457   1.469   1.484   1.518
 82 B    83 A    83 B    84 A    84 B    85 B    85 A    86 A                  
  1.567   1.691   1.695   1.780   1.827   1.848   1.875   1.881
 86 B    87 A    87 B    88 A    89 A    88 B    90 A    89 B                  
  1.916   1.922   1.959   1.971   2.011   2.017   2.061   2.106
 90 B    91 A    92 A    91 B    93 A    92 B    93 B    94 A                  
  2.126   2.160   2.185   2.195   2.207   2.253   2.265   2.338
 95 A    94 B    95 B    96 B    96 A    97 B    97 A    98 A                  
  2.366   2.370   2.429   2.437   2.466   2.476   2.492   2.511
 99 A    98 B    99 B   100 A   101 A   100 B   101 B   102 B                  
  2.512   2.524   2.580   2.587   2.611   2.644   2.699   2.701
102 A   103 A   103 B   104 A   104 B   105 A   105 B   106 A                  
  2.754   2.829   2.858   2.878   2.935   3.167   3.171   3.269
106 B   107 A   107 B   108 A   108 B   109 A   109 B   110 B                  
  3.271   3.401   3.426   3.720   3.740   3.967   3.970   4.283
110 A   111 A   111 B   112 A   112 B   113 A   113 B   114 A                  
  4.305   4.320   4.328   4.436   4.534   4.660   4.709
115 A   114 B   115 B   116 A   116 B   117 A   117 B                          
 --------------------------------------------------------------
 
          Ground-State Mulliken Net Atomic Charges

     Atom                 Charge (a.u.)
  ----------------------------------------
      1 S                     0.054173
      2 C                    -0.039463
      3 C                    -0.384653
      4 C                     0.323021
      5 C                    -0.392064
      6 H                     0.131947
      7 C                    -0.392064
      8 S                     0.054173
      9 C                     0.323021
     10 C                    -0.039463
     11 C                    -0.384653
     12 H                     0.118798
     13 H                     0.188240
     14 H                     0.118798
     15 H                     0.188240
     16 H                     0.131947
  ----------------------------------------
  Sum of atomic charges =     0.000000

 -----------------------------------------------------------------
                    Cartesian Multipole Moments
 -----------------------------------------------------------------
    Charge (ESU x 10^10)
                -0.0000
    Dipole Moment (Debye)
         X       0.0000      Y      -0.0000      Z      -0.7663
       Tot       0.7663
    Quadrupole Moments (Debye-Ang)
        XX     -61.0362     XY       1.4143     YY     -73.4088
        XZ       0.0000     YZ       0.0000     ZZ     -73.0723
    Octopole Moments (Debye-Ang^2)
       XXX       0.0000    XXY      -0.0000    XYY       0.0000
       YYY      -0.0000    XXZ       6.4355    XYZ     -14.0100
       YYZ      -4.6013    XZZ       0.0000    YZZ      -0.0000
       ZZZ       0.8926
    Hexadecapole Moments (Debye-Ang^3)
      XXXX   -1892.6019   XXXY      -5.1993   XXYY    -420.1715
      XYYY       1.0351   YYYY    -358.8645   XXXZ      -0.0000
      XXYZ      -0.0000   XYYZ      -0.0000   YYYZ      -0.0000
      XXZZ    -419.1500   XYZZ       7.4612   YYZZ    -103.3712
      XZZZ      -0.0000   YZZZ       0.0000   ZZZZ    -352.8556
 -----------------------------------------------------------------
 Calculating analytic gradient of the SCF energy
 Gradient of SCF Energy
            1           2           3           4           5           6
    1   0.0000061   0.0012278  -0.0003309   0.0001903  -0.0015791   0.0002112
    2  -0.0000247   0.0002223  -0.0002176   0.0006900   0.0000927  -0.0003551
    3  -0.0001886  -0.0001045   0.0001954   0.0005752  -0.0000431  -0.0005353
            7           8           9          10          11          12
    1   0.0015791  -0.0000061  -0.0001903  -0.0012278   0.0003309  -0.0001234
    2  -0.0000927   0.0000247  -0.0006900  -0.0002223   0.0002176  -0.0000855
    3  -0.0000431  -0.0001886   0.0005752  -0.0001045   0.0001954  -0.0000551
           13          14          15          16
    1   0.0000014   0.0001234  -0.0000014  -0.0002112
    2  -0.0002111   0.0000855   0.0002111   0.0003551
    3   0.0001560  -0.0000551   0.0001560  -0.0005353
 Max gradient component =       1.579E-03
 RMS gradient           =       4.873E-04
 Gradient time:  CPU 1.94 s  wall 1.88 s
 Geometry Optimization Parameters
   NAtoms,    NIC,     NZ,  NCons,   NDum,   NFix, NCnnct, MaxDiis
       16     111       0       1       0       0       0       0

 Cartesian Hessian Update
 Hessian Updated using BFGS Update


** CONSTRAINED OPTIMIZATION IN DELOCALIZED INTERNAL COORDINATES **
   Searching for a Minimum

   Optimization Cycle:   2

                       Coordinates (Angstroms)
     ATOM                X               Y               Z
      1  S         1.7393660944   -0.8909547147    0.8163545426
      2  C         3.1854466786   -0.1484959888    0.2165196509
      3  C         2.9090295088    0.7869661201   -0.7463867352
      4  C         1.5116475912    0.9141777083   -1.0085165014
      5  C         0.7298190182    0.0732688121   -0.2499111963
      6  H         1.0907305475    1.5919145815   -1.7428360277
      7  C        -0.7298190182   -0.0732688121   -0.2499111963
      8  S        -1.7393660944    0.8909547147    0.8163545426
      9  C        -1.5116475912   -0.9141777083   -1.0085165014
     10  C        -3.1854466786    0.1484959888    0.2165196509
     11  C        -2.9090295088   -0.7869661201   -0.7463867352
     12  H        -3.6732740962   -1.3659002094   -1.2529904807
     13  H         4.1496353214   -0.4482363294    0.6049923660
     14  H         3.6732740962    1.3659002094   -1.2529904807
     15  H        -4.1496353214    0.4482363294    0.6049923660
     16  H        -1.0907305475   -1.5919145815   -1.7428360277
   Point Group: c2    Number of degrees of freedom:    22


   Energy is  -1104.837209835

              Constraints and their Current Values
                                        Value     Constraint
   Dihedral:        4   5   7   9       90.000       90.000
 Hessian Updated using BFGS Update

 21 Hessian modes will be used to form the next step
  Hessian Eigenvalues:
     0.041474    0.045000    0.045000    0.045002    0.045006    0.046144
     0.155420    0.159989    0.160077    0.219130    0.234793    0.249143
     0.298574    0.314382    0.357211    0.358395    0.362005    0.382442
     0.431330    0.467429    0.519928

 Minimum Search - Taking Simple RFO Step
 Searching for Lamda that Minimizes Along All modes
 Value Taken    Lamda =  -0.00004601
 Step Taken.  Stepsize is  0.023339

                             Maximum     Tolerance    Cnvgd?
         Gradient           0.001565      0.000300      NO
         Displacement       0.011844      0.001200      NO
         Energy change     -0.000385      0.000001      NO


 New Cartesian Coordinates Obtained by Inverse Iteration

 Displacement from previous Coordinates is:  0.035030
 ----------------------------------------------------------------
             Standard Nuclear Orientation (Angstroms)
    I     Atom           X                Y                Z
 ----------------------------------------------------------------
    1      S       1.7391308583    -0.8934448466     0.8176875592
    2      C       3.1826405237    -0.1503861239     0.2142398251
    3      C       2.9069224911     0.7856343031    -0.7487149039
    4      C       1.5093520554     0.9130731710    -1.0080014968
    5      C       0.7304916084     0.0720818614    -0.2475581564
    6      H       1.0843418287     1.5947509935    -1.7363377459
    7      C      -0.7304916084    -0.0720818614    -0.2475581564
    8      S      -1.7391308583     0.8934448466     0.8176875592
    9      C      -1.5093520554    -0.9130731710    -1.0080014968
   10      C      -3.1826405237     0.1503861239     0.2142398251
   11      C      -2.9069224911    -0.7856343031    -0.7487149039
   12      H      -3.6706593184    -1.3653386779    -1.2549978614
   13      H       4.1480897132    -0.4483324373     0.6009083983
   14      H       3.6706593184     1.3653386779    -1.2549978614
   15      H      -4.1480897132     0.4483324373     0.6009083983
   16      H      -1.0843418287    -1.5947509935    -1.7363377459
 ----------------------------------------------------------------
 Molecular Point Group                 C2    NOp =  2
 Largest Abelian Subgroup              C2    NOp =  2
 Nuclear Repulsion Energy =   627.8318048530 hartrees
 There are       43 alpha and       43 beta electrons
 Applying Cartesian multipole field
    Component          Value
    ---------          -----
     (2,0,0)        1.00000E-11
     (0,2,0)        2.00000E-11
     (0,0,2)       -3.00000E-11
 Nucleus-field energy     =     0.0000000131 hartrees
 Requested basis set is 6-31++G(d,p)
 There are 76 shells and 234 basis functions
 A cutoff of  1.0D-11 yielded   2484 shell pairs
 There are     24524 function pairs
 Smallest overlap matrix eigenvalue = 1.19E-06

 Q-Chem warning in module /project/projectdirs/jcesr/qchem/qc44/cnl_qc441/compile/cori/qc_src/stvman/mkSTV.C, line 257:

 Overlap eigenvalue is smaller than square root of threshold

 Guess MOs from SCF MO coefficient file
 Reading MOs from coefficient file
 Reading MOs from coefficient file
 A restricted hybrid HF-DFT SCF calculation will be
 performed using Pulay DIIS extrapolation
 Exchange:     0.2000 Hartree-Fock + 0.0800 Slater + 0.7200 B88
 Correlation:  0.1900 VWN1RPA + 0.8100 LYP
 Using SG-1 standard quadrature grid
 SCF converges when DIIS error is below 1.0E-08
 Geometry optimization detected.  Setting ReadMinima to 0
 Setting SaveMinima to 0
 ---------------------------------------
  Cycle       Energy         DIIS Error
 ---------------------------------------
    1   -1104.8386170428      1.27E-04
    2   -1104.8372278526      3.39E-05
    3   -1104.8372043512      6.56E-05
    4   -1104.8372362644      9.15E-06
    5   -1104.8372368902      2.06E-06
    6   -1104.8372369185      9.20E-07
    7   -1104.8372369236      2.71E-07
    8   -1104.8372369218      9.87E-08
    9   -1104.8372369230      1.09E-08
   10   -1104.8372369238      5.10E-09 Convergence criterion met
 ---------------------------------------
 SCF time:  CPU 5.26 s  wall 4.62 s
 SCF   energy in the final basis set = -1104.8372369238
 Total energy in the final basis set = -1104.8372369238
 
 --------------------------------------------------------------
             Orbital Energies (a.u.) and Symmetries
 --------------------------------------------------------------
 
 Alpha MOs, Restricted
 -- Occupied --                  
-88.919 -88.919 -10.236 -10.235 -10.225 -10.225 -10.204 -10.204
  1 B     1 A     2 A     2 B     3 B     3 A     4 A     4 B                  
-10.203 -10.203  -7.978  -7.978  -5.942  -5.942  -5.939  -5.939
  5 B     5 A     6 B     6 A     7 B     7 A     8 B     8 A                  
 -5.935  -5.935  -0.897  -0.877  -0.768  -0.741  -0.741  -0.705
  9 B     9 A    10 A    10 B    11 A    12 A    11 B    12 B                  
 -0.600  -0.567  -0.565  -0.534  -0.523  -0.478  -0.417  -0.414
 13 A    13 B    14 A    14 B    15 A    15 B    16 A    16 B                  
 -0.412  -0.406  -0.393  -0.375  -0.375  -0.351  -0.350  -0.264
 17 A    17 B    18 A    19 A    18 B    19 B    20 A    21 A                  
 -0.257  -0.243  -0.243
 20 B    21 B    22 A                                                          
 -- Virtual --                   
 -0.034  -0.033  -0.005  -0.003   0.006   0.013   0.021   0.022
 23 A    22 B    24 A    23 B    25 A    24 B    26 A    25 B                  
  0.026   0.034   0.035   0.041   0.045   0.048   0.065   0.071
 27 A    28 A    26 B    27 B    29 A    28 B    29 B    30 B                  
  0.071   0.071   0.080   0.102   0.103   0.107   0.110   0.112
 30 A    31 A    32 A    33 A    31 B    34 A    32 B    35 A                  
  0.114   0.118   0.125   0.127   0.132   0.132   0.137   0.142
 33 B    34 B    35 B    36 A    36 B    37 A    38 A    37 B                  
  0.146   0.150   0.157   0.162   0.169   0.173   0.178   0.181
 38 B    39 A    40 A    39 B    41 A    42 A    40 B    41 B                  
  0.186   0.190   0.191   0.206   0.212   0.218   0.220   0.226
 43 A    42 B    43 B    44 A    44 B    45 A    45 B    46 A                  
  0.243   0.248   0.256   0.270   0.271   0.274   0.294   0.298
 47 A    46 B    47 B    48 B    48 A    49 A    50 A    49 B                  
  0.306   0.316   0.328   0.332   0.357   0.363   0.371   0.391
 50 B    51 B    51 A    52 A    53 A    52 B    53 B    54 A                  
  0.431   0.472   0.483   0.486   0.519   0.531   0.549   0.578
 54 B    55 A    55 B    56 A    57 A    56 B    57 B    58 A                  
  0.580   0.587   0.616   0.634   0.642   0.666   0.674   0.676
 58 B    59 A    59 B    60 A    60 B    61 A    61 B    62 A                  
  0.690   0.698   0.725   0.727   0.738   0.754   0.768   0.772
 62 B    63 A    63 B    64 A    64 B    65 B    65 A    66 B                  
  0.794   0.801   0.813   0.828   0.842   0.894   0.910   0.941
 66 A    67 B    67 A    68 A    68 B    69 A    69 B    70 A                  
  0.945   0.958   0.960   0.968   0.971   0.987   0.993   1.015
 70 B    71 A    71 B    72 B    72 A    73 A    73 B    74 B                  
  1.020   1.022   1.034   1.058   1.078   1.093   1.103   1.110
 75 B    74 A    75 A    76 B    76 A    77 A    77 B    78 A                  
  1.130   1.184   1.218   1.221   1.245   1.286   1.325   1.346
 78 B    79 A    79 B    80 A    80 B    81 A    81 B    82 A                  
  1.352   1.355   1.362   1.394   1.457   1.470   1.481   1.520
 82 B    83 A    83 B    84 A    84 B    85 B    85 A    86 A                  
  1.565   1.691   1.695   1.780   1.828   1.849   1.875   1.881
 86 B    87 A    87 B    88 A    89 A    88 B    90 A    89 B                  
  1.916   1.923   1.960   1.972   2.011   2.018   2.061   2.107
 90 B    91 A    92 A    91 B    93 A    92 B    93 B    94 A                  
  2.125   2.161   2.186   2.196   2.208   2.252   2.266   2.339
 95 A    94 B    95 B    96 B    96 A    97 B    97 A    98 A                  
  2.366   2.370   2.429   2.437   2.465   2.477   2.493   2.511
 99 A    98 B    99 B   100 A   101 A   100 B   101 B   102 B                  
  2.513   2.523   2.579   2.586   2.611   2.644   2.698   2.702
102 A   103 A   103 B   104 A   104 B   105 A   105 B   106 A                  
  2.755   2.830   2.858   2.878   2.934   3.167   3.171   3.268
106 B   107 A   107 B   108 A   108 B   109 A   109 B   110 B                  
  3.271   3.400   3.426   3.721   3.741   3.967   3.970   4.283
110 A   111 A   111 B   112 A   112 B   113 A   113 B   114 A                  
  4.306   4.320   4.328   4.436   4.534   4.661   4.710
115 A   114 B   115 B   116 A   116 B   117 A   117 B                          
 
 Beta MOs, Restricted
 -- Occupied --                  
-88.919 -88.919 -10.236 -10.235 -10.225 -10.225 -10.204 -10.204
  1 B     1 A     2 A     2 B     3 B     3 A     4 A     4 B                  
-10.203 -10.203  -7.978  -7.978  -5.942  -5.942  -5.939  -5.939
  5 B     5 A     6 B     6 A     7 B     7 A     8 B     8 A                  
 -5.935  -5.935  -0.897  -0.877  -0.768  -0.741  -0.741  -0.705
  9 B     9 A    10 A    10 B    11 A    12 A    11 B    12 B                  
 -0.600  -0.567  -0.565  -0.534  -0.523  -0.478  -0.417  -0.414
 13 A    13 B    14 A    14 B    15 A    15 B    16 A    16 B                  
 -0.412  -0.406  -0.393  -0.375  -0.375  -0.351  -0.350  -0.264
 17 A    17 B    18 A    19 A    18 B    19 B    20 A    21 A                  
 -0.257  -0.243  -0.243
 20 B    21 B    22 A                                                          
 -- Virtual --                   
 -0.034  -0.033  -0.005  -0.003   0.006   0.013   0.021   0.022
 23 A    22 B    24 A    23 B    25 A    24 B    26 A    25 B                  
  0.026   0.034   0.035   0.041   0.045   0.048   0.065   0.071
 27 A    28 A    26 B    27 B    29 A    28 B    29 B    30 B                  
  0.071   0.071   0.080   0.102   0.103   0.107   0.110   0.112
 30 A    31 A    32 A    33 A    31 B    34 A    32 B    35 A                  
  0.114   0.118   0.125   0.127   0.132   0.132   0.137   0.142
 33 B    34 B    35 B    36 A    36 B    37 A    38 A    37 B                  
  0.146   0.150   0.157   0.162   0.169   0.173   0.178   0.181
 38 B    39 A    40 A    39 B    41 A    42 A    40 B    41 B                  
  0.186   0.190   0.191   0.206   0.212   0.218   0.220   0.226
 43 A    42 B    43 B    44 A    44 B    45 A    45 B    46 A                  
  0.243   0.248   0.256   0.270   0.271   0.274   0.294   0.298
 47 A    46 B    47 B    48 B    48 A    49 A    50 A    49 B                  
  0.306   0.316   0.328   0.332   0.357   0.363   0.371   0.391
 50 B    51 B    51 A    52 A    53 A    52 B    53 B    54 A                  
  0.431   0.472   0.483   0.486   0.519   0.531   0.549   0.578
 54 B    55 A    55 B    56 A    57 A    56 B    57 B    58 A                  
  0.580   0.587   0.616   0.634   0.642   0.666   0.674   0.676
 58 B    59 A    59 B    60 A    60 B    61 A    61 B    62 A                  
  0.690   0.698   0.725   0.727   0.738   0.754   0.768   0.772
 62 B    63 A    63 B    64 A    64 B    65 B    65 A    66 B                  
  0.794   0.801   0.813   0.828   0.842   0.894   0.910   0.941
 66 A    67 B    67 A    68 A    68 B    69 A    69 B    70 A                  
  0.945   0.958   0.960   0.968   0.971   0.987   0.993   1.015
 70 B    71 A    71 B    72 B    72 A    73 A    73 B    74 B                  
  1.020   1.022   1.034   1.058   1.078   1.093   1.103   1.110
 75 B    74 A    75 A    76 B    76 A    77 A    77 B    78 A                  
  1.130   1.184   1.218   1.221   1.245   1.286   1.325   1.346
 78 B    79 A    79 B    80 A    80 B    81 A    81 B    82 A                  
  1.352   1.355   1.362   1.394   1.457   1.470   1.481   1.520
 82 B    83 A    83 B    84 A    84 B    85 B    85 A    86 A                  
  1.565   1.691   1.695   1.780   1.828   1.849   1.875   1.881
 86 B    87 A    87 B    88 A    89 A    88 B    90 A    89 B                  
  1.916   1.923   1.960   1.972   2.011   2.018   2.061   2.107
 90 B    91 A    92 A    91 B    93 A    92 B    93 B    94 A                  
  2.125   2.161   2.186   2.196   2.208   2.252   2.266   2.339
 95 A    94 B    95 B    96 B    96 A    97 B    97 A    98 A                  
  2.366   2.370   2.429   2.437   2.465   2.477   2.493   2.511
 99 A    98 B    99 B   100 A   101 A   100 B   101 B   102 B                  
  2.513   2.523   2.579   2.586   2.611   2.644   2.698   2.702
102 A   103 A   103 B   104 A   104 B   105 A   105 B   106 A                  
  2.755   2.830   2.858   2.878   2.934   3.167   3.171   3.268
106 B   107 A   107 B   108 A   108 B   109 A   109 B   110 B                  
  3.271   3.400   3.426   3.721   3.741   3.967   3.970   4.283
110 A   111 A   111 B   112 A   112 B   113 A   113 B   114 A                  
  4.306   4.320   4.328   4.436   4.534   4.661   4.710
115 A   114 B   115 B   116 A   116 B   117 A   117 B                          
 --------------------------------------------------------------
 
          Ground-State Mulliken Net Atomic Charges

     Atom                 Charge (a.u.)
  ----------------------------------------
      1 S                     0.056820
      2 C                    -0.042543
      3 C                    -0.382322
      4 C                     0.321462
      5 C                    -0.391985
      6 H                     0.132035
      7 C                    -0.391984
      8 S                     0.056820
      9 C                     0.321462
     10 C                    -0.042543
     11 C                    -0.382322
     12 H                     0.118781
     13 H                     0.187752
     14 H                     0.118781
     15 H                     0.187752
     16 H                     0.132035
  ----------------------------------------
  Sum of atomic charges =    -0.000000

 -----------------------------------------------------------------
                    Cartesian Multipole Moments
 -----------------------------------------------------------------
    Charge (ESU x 10^10)
                -0.0000
    Dipole Moment (Debye)
         X      -0.0000      Y       0.0000      Z      -0.7539
       Tot       0.7539
    Quadrupole Moments (Debye-Ang)
        XX     -61.1152     XY       1.4221     YY     -73.3591
        XZ       0.0000     YZ       0.0000     ZZ     -73.0867
    Octopole Moments (Debye-Ang^2)
       XXX      -0.0000    XXY       0.0000    XYY      -0.0000
       YYY      -0.0000    XXZ       6.3380    XYZ     -14.0066
       YYZ      -4.6144    XZZ       0.0000    YZZ      -0.0000
       ZZZ       0.9767
    Hexadecapole Moments (Debye-Ang^3)
      XXXX   -1891.6445   XXXY      -4.0388   XXYY    -419.7298
      XYYY       2.0102   YYYY    -359.0808   XXXZ       0.0000
      XXYZ       0.0000   XYYZ       0.0000   YYYZ       0.0000
      XXZZ    -418.8340   XYZZ       7.7283   YYZZ    -103.4397
      XZZZ       0.0000   YZZZ       0.0000   ZZZZ    -353.1774
 -----------------------------------------------------------------
 Calculating analytic gradient of the SCF energy
 Gradient of SCF Energy
            1           2           3           4           5           6
    1   0.0000138   0.0000421  -0.0001737   0.0001072   0.0001598   0.0000493
    2  -0.0004163  -0.0000130   0.0000584   0.0003507   0.0002132  -0.0001610
    3   0.0003042   0.0000195  -0.0002390   0.0003841  -0.0001635  -0.0003332
            7           8           9          10          11          12
    1  -0.0001598  -0.0000138  -0.0001072  -0.0000421   0.0001737  -0.0000334
    2  -0.0002132   0.0004163  -0.0003507   0.0000130  -0.0000584  -0.0001533
    3  -0.0001635   0.0003042   0.0003841   0.0000195  -0.0002390  -0.0000600
           13          14          15          16
    1  -0.0000039   0.0000334   0.0000039  -0.0000493
    2  -0.0000763   0.0001533   0.0000763   0.0001610
    3   0.0000880  -0.0000600   0.0000880  -0.0003332
 Max gradient component =       4.163E-04
 RMS gradient           =       1.958E-04
 Gradient time:  CPU 1.89 s  wall 1.90 s
 Geometry Optimization Parameters
   NAtoms,    NIC,     NZ,  NCons,   NDum,   NFix, NCnnct, MaxDiis
       16     111       0       1       0       0       0       0

 Cartesian Hessian Update
 Hessian Updated using BFGS Update


** CONSTRAINED OPTIMIZATION IN DELOCALIZED INTERNAL COORDINATES **
   Searching for a Minimum

   Optimization Cycle:   3

                       Coordinates (Angstroms)
     ATOM                X               Y               Z
      1  S         1.7391308583   -0.8934448466    0.8176875592
      2  C         3.1826405237   -0.1503861239    0.2142398251
      3  C         2.9069224911    0.7856343031   -0.7487149039
      4  C         1.5093520554    0.9130731710   -1.0080014968
      5  C         0.7304916084    0.0720818614   -0.2475581564
      6  H         1.0843418287    1.5947509935   -1.7363377459
      7  C        -0.7304916084   -0.0720818614   -0.2475581564
      8  S        -1.7391308583    0.8934448466    0.8176875592
      9  C        -1.5093520554   -0.9130731710   -1.0080014968
     10  C        -3.1826405237    0.1503861239    0.2142398251
     11  C        -2.9069224911   -0.7856343031   -0.7487149039
     12  H        -3.6706593184   -1.3653386779   -1.2549978614
     13  H         4.1480897132   -0.4483324373    0.6009083983
     14  H         3.6706593184    1.3653386779   -1.2549978614
     15  H        -4.1480897132    0.4483324373    0.6009083983
     16  H        -1.0843418287   -1.5947509935   -1.7363377459
   Point Group: c2    Number of degrees of freedom:    22


   Energy is  -1104.837236924

              Constraints and their Current Values
                                        Value     Constraint
   Dihedral:        4   5   7   9       90.000       90.000
 Hessian Updated using BFGS Update

 21 Hessian modes will be used to form the next step
  Hessian Eigenvalues:
     0.028930    0.045000    0.045000    0.045006    0.045189    0.045454
     0.149376    0.160020    0.160548    0.222407    0.234245    0.287498
     0.299906    0.315697    0.357303    0.357840    0.361590    0.385605
     0.441406    0.484232    0.511708

 Minimum Search - Taking Simple RFO Step
 Searching for Lamda that Minimizes Along All modes
 Value Taken    Lamda =  -0.00001073
 Step Taken.  Stepsize is  0.016777

                             Maximum     Tolerance    Cnvgd?
         Gradient           0.000628      0.000300      NO
         Displacement       0.008147      0.001200      NO
         Energy change     -0.000027      0.000001      NO


 New Cartesian Coordinates Obtained by Inverse Iteration

 Displacement from previous Coordinates is:  0.023380
 ----------------------------------------------------------------
             Standard Nuclear Orientation (Angstroms)
    I     Atom           X                Y                Z
 ----------------------------------------------------------------
    1      S       1.7400867153    -0.8937354917     0.8173799081
    2      C       3.1828898143    -0.1515162147     0.2123122143
    3      C       2.9064230442     0.7848833289    -0.7496511369
    4      C       1.5083325992     0.9125351646    -1.0072232249
    5      C       0.7305471051     0.0715777869    -0.2461165193
    6      H       1.0811869226     1.5975823572    -1.7309083392
    7      C      -0.7305471051    -0.0715777869    -0.2461165193
    8      S      -1.7400867153     0.8937354917     0.8173799081
    9      C      -1.5083325992    -0.9125351646    -1.0072232249
   10      C      -3.1828898143     0.1515162147     0.2123122143
   11      C      -2.9064230442    -0.7848833289    -0.7496511369
   12      H      -3.6699043348    -1.3646718632    -1.2557382830
   13      H       4.1492009051    -0.4487972466     0.5971709992
   14      H       3.6699043348     1.3646718632    -1.2557382830
   15      H      -4.1492009051     0.4487972466     0.5971709992
   16      H      -1.0811869226    -1.5975823572    -1.7309083392
 ----------------------------------------------------------------
 Molecular Point Group                 C2    NOp =  2
 Largest Abelian Subgroup              C2    NOp =  2
 Nuclear Repulsion Energy =   627.9052958343 hartrees
 There are       43 alpha and       43 beta electrons
 Applying Cartesian multipole field
    Component          Value
    ---------          -----
     (2,0,0)        1.00000E-11
     (0,2,0)        2.00000E-11
     (0,0,2)       -3.00000E-11
 Nucleus-field energy     =     0.0000000131 hartrees
 Requested basis set is 6-31++G(d,p)
 There are 76 shells and 234 basis functions
 A cutoff of  1.0D-11 yielded   2482 shell pairs
 There are     24516 function pairs
 Smallest overlap matrix eigenvalue = 1.19E-06

 Q-Chem warning in module /project/projectdirs/jcesr/qchem/qc44/cnl_qc441/compile/cori/qc_src/stvman/mkSTV.C, line 257:

 Overlap eigenvalue is smaller than square root of threshold

 Guess MOs from SCF MO coefficient file
 Reading MOs from coefficient file
 Reading MOs from coefficient file
 A restricted hybrid HF-DFT SCF calculation will be
 performed using Pulay DIIS extrapolation
 Exchange:     0.2000 Hartree-Fock + 0.0800 Slater + 0.7200 B88
 Correlation:  0.1900 VWN1RPA + 0.8100 LYP
 Using SG-1 standard quadrature grid
 SCF converges when DIIS error is below 1.0E-08
 Geometry optimization detected.  Setting ReadMinima to 0
 Setting SaveMinima to 0
 ---------------------------------------
  Cycle       Energy         DIIS Error
 ---------------------------------------
    1   -1104.8387028683      6.65E-05
    2   -1104.8372418491      1.26E-05
    3   -1104.8372391131      2.29E-05
    4   -1104.8372431062      3.62E-06
    5   -1104.8372431932      1.47E-06
    6   -1104.8372432059      5.64E-07
    7   -1104.8372432073      1.19E-07
    8   -1104.8372432084      4.97E-08
    9   -1104.8372432088      7.22E-09 Convergence criterion met
 ---------------------------------------
 SCF time:  CPU 4.91 s  wall 4.30 s
 SCF   energy in the final basis set = -1104.8372432088
 Total energy in the final basis set = -1104.8372432088
 
 --------------------------------------------------------------
             Orbital Energies (a.u.) and Symmetries
 --------------------------------------------------------------
 
 Alpha MOs, Restricted
 -- Occupied --                  
-88.919 -88.919 -10.235 -10.235 -10.224 -10.224 -10.204 -10.204
  1 B     1 A     2 A     2 B     3 B     3 A     4 A     4 B                  
-10.203 -10.203  -7.978  -7.978  -5.942  -5.942  -5.939  -5.939
  5 B     5 A     6 B     6 A     7 B     7 A     8 B     8 A                  
 -5.935  -5.935  -0.898  -0.877  -0.768  -0.741  -0.741  -0.705
  9 B     9 A    10 A    10 B    11 A    12 A    11 B    12 B                  
 -0.600  -0.567  -0.565  -0.534  -0.523  -0.478  -0.417  -0.414
 13 A    13 B    14 A    14 B    15 A    15 B    16 A    16 B                  
 -0.412  -0.406  -0.393  -0.375  -0.375  -0.351  -0.350  -0.264
 17 A    17 B    18 A    19 A    18 B    19 B    20 A    21 A                  
 -0.257  -0.243  -0.243
 20 B    21 B    22 A                                                          
 -- Virtual --                   
 -0.033  -0.033  -0.005  -0.003   0.007   0.013   0.021   0.022
 23 A    22 B    24 A    23 B    25 A    24 B    26 A    25 B                  
  0.026   0.034   0.035   0.041   0.045   0.048   0.065   0.071
 27 A    28 A    26 B    27 B    29 A    28 B    29 B    30 B                  
  0.071   0.071   0.080   0.102   0.102   0.107   0.110   0.112
 30 A    31 A    32 A    33 A    31 B    34 A    32 B    35 A                  
  0.114   0.118   0.125   0.127   0.132   0.132   0.137   0.142
 33 B    34 B    35 B    36 A    36 B    37 A    38 A    37 B                  
  0.146   0.150   0.157   0.162   0.169   0.173   0.178   0.182
 38 B    39 A    40 A    39 B    41 A    42 A    40 B    41 B                  
  0.186   0.190   0.191   0.206   0.212   0.218   0.220   0.226
 43 A    42 B    43 B    44 A    44 B    45 A    45 B    46 A                  
  0.243   0.249   0.256   0.270   0.271   0.274   0.294   0.298
 47 A    46 B    47 B    48 B    48 A    49 A    50 A    49 B                  
  0.306   0.316   0.328   0.332   0.357   0.363   0.371   0.391
 50 B    51 B    51 A    52 A    53 A    52 B    53 B    54 A                  
  0.431   0.472   0.483   0.486   0.519   0.531   0.548   0.578
 54 B    55 A    55 B    56 A    57 A    56 B    57 B    58 A                  
  0.580   0.587   0.616   0.633   0.642   0.666   0.674   0.676
 58 B    59 A    59 B    60 A    60 B    61 A    61 B    62 A                  
  0.690   0.698   0.725   0.727   0.738   0.754   0.768   0.772
 62 B    63 A    63 B    64 A    64 B    65 B    65 A    66 B                  
  0.794   0.801   0.813   0.828   0.842   0.894   0.910   0.942
 66 A    67 B    67 A    68 A    68 B    69 A    69 B    70 A                  
  0.945   0.958   0.960   0.968   0.971   0.987   0.993   1.016
 70 B    71 A    71 B    72 B    72 A    73 A    73 B    74 B                  
  1.020   1.022   1.034   1.058   1.078   1.094   1.103   1.110
 75 B    74 A    75 A    76 B    76 A    77 A    77 B    78 A                  
  1.130   1.184   1.217   1.221   1.245   1.287   1.325   1.346
 78 B    79 A    79 B    80 A    80 B    81 A    81 B    82 A                  
  1.352   1.355   1.362   1.395   1.458   1.471   1.478   1.521
 82 B    83 A    83 B    84 A    84 B    85 B    85 A    86 A                  
  1.564   1.691   1.695   1.780   1.828   1.849   1.874   1.881
 86 B    87 A    87 B    88 A    89 A    88 B    90 A    89 B                  
  1.917   1.923   1.960   1.972   2.011   2.018   2.061   2.108
 90 B    91 A    92 A    91 B    93 A    92 B    93 B    94 A                  
  2.125   2.162   2.186   2.197   2.209   2.252   2.266   2.340
 95 A    94 B    95 B    96 B    96 A    97 B    97 A    98 A                  
  2.367   2.371   2.429   2.438   2.465   2.478   2.493   2.511
 99 A    98 B    99 B   100 A   101 A   100 B   101 B   102 B                  
  2.513   2.523   2.579   2.586   2.611   2.645   2.698   2.702
102 A   103 A   103 B   104 A   104 B   105 A   105 B   106 A                  
  2.755   2.830   2.859   2.878   2.934   3.168   3.171   3.269
106 B   107 A   107 B   108 A   108 B   109 A   109 B   110 B                  
  3.271   3.401   3.426   3.721   3.741   3.967   3.970   4.284
110 A   111 A   111 B   112 A   112 B   113 A   113 B   114 A                  
  4.306   4.320   4.328   4.437   4.534   4.661   4.710
115 A   114 B   115 B   116 A   116 B   117 A   117 B                          
 
 Beta MOs, Restricted
 -- Occupied --                  
-88.919 -88.919 -10.235 -10.235 -10.224 -10.224 -10.204 -10.204
  1 B     1 A     2 A     2 B     3 B     3 A     4 A     4 B                  
-10.203 -10.203  -7.978  -7.978  -5.942  -5.942  -5.939  -5.939
  5 B     5 A     6 B     6 A     7 B     7 A     8 B     8 A                  
 -5.935  -5.935  -0.898  -0.877  -0.768  -0.741  -0.741  -0.705
  9 B     9 A    10 A    10 B    11 A    12 A    11 B    12 B                  
 -0.600  -0.567  -0.565  -0.534  -0.523  -0.478  -0.417  -0.414
 13 A    13 B    14 A    14 B    15 A    15 B    16 A    16 B                  
 -0.412  -0.406  -0.393  -0.375  -0.375  -0.351  -0.350  -0.264
 17 A    17 B    18 A    19 A    18 B    19 B    20 A    21 A                  
 -0.257  -0.243  -0.243
 20 B    21 B    22 A                                                          
 -- Virtual --                   
 -0.033  -0.033  -0.005  -0.003   0.007   0.013   0.021   0.022
 23 A    22 B    24 A    23 B    25 A    24 B    26 A    25 B                  
  0.026   0.034   0.035   0.041   0.045   0.048   0.065   0.071
 27 A    28 A    26 B    27 B    29 A    28 B    29 B    30 B                  
  0.071   0.071   0.080   0.102   0.102   0.107   0.110   0.112
 30 A    31 A    32 A    33 A    31 B    34 A    32 B    35 A                  
  0.114   0.118   0.125   0.127   0.132   0.132   0.137   0.142
 33 B    34 B    35 B    36 A    36 B    37 A    38 A    37 B                  
  0.146   0.150   0.157   0.162   0.169   0.173   0.178   0.182
 38 B    39 A    40 A    39 B    41 A    42 A    40 B    41 B                  
  0.186   0.190   0.191   0.206   0.212   0.218   0.220   0.226
 43 A    42 B    43 B    44 A    44 B    45 A    45 B    46 A                  
  0.243   0.249   0.256   0.270   0.271   0.274   0.294   0.298
 47 A    46 B    47 B    48 B    48 A    49 A    50 A    49 B                  
  0.306   0.316   0.328   0.332   0.357   0.363   0.371   0.391
 50 B    51 B    51 A    52 A    53 A    52 B    53 B    54 A                  
  0.431   0.472   0.483   0.486   0.519   0.531   0.548   0.578
 54 B    55 A    55 B    56 A    57 A    56 B    57 B    58 A                  
  0.580   0.587   0.616   0.633   0.642   0.666   0.674   0.676
 58 B    59 A    59 B    60 A    60 B    61 A    61 B    62 A                  
  0.690   0.698   0.725   0.727   0.738   0.754   0.768   0.772
 62 B    63 A    63 B    64 A    64 B    65 B    65 A    66 B                  
  0.794   0.801   0.813   0.828   0.842   0.894   0.910   0.942
 66 A    67 B    67 A    68 A    68 B    69 A    69 B    70 A                  
  0.945   0.958   0.960   0.968   0.971   0.987   0.993   1.016
 70 B    71 A    71 B    72 B    72 A    73 A    73 B    74 B                  
  1.020   1.022   1.034   1.058   1.078   1.094   1.103   1.110
 75 B    74 A    75 A    76 B    76 A    77 A    77 B    78 A                  
  1.130   1.184   1.217   1.221   1.245   1.287   1.325   1.346
 78 B    79 A    79 B    80 A    80 B    81 A    81 B    82 A                  
  1.352   1.355   1.362   1.395   1.458   1.471   1.478   1.521
 82 B    83 A    83 B    84 A    84 B    85 B    85 A    86 A                  
  1.564   1.691   1.695   1.780   1.828   1.849   1.874   1.881
 86 B    87 A    87 B    88 A    89 A    88 B    90 A    89 B                  
  1.917   1.923   1.960   1.972   2.011   2.018   2.061   2.108
 90 B    91 A    92 A    91 B    93 A    92 B    93 B    94 A                  
  2.125   2.162   2.186   2.197   2.209   2.252   2.266   2.340
 95 A    94 B    95 B    96 B    96 A    97 B    97 A    98 A                  
  2.367   2.371   2.429   2.438   2.465   2.478   2.493   2.511
 99 A    98 B    99 B   100 A   101 A   100 B   101 B   102 B                  
  2.513   2.523   2.579   2.586   2.611   2.645   2.698   2.702
102 A   103 A   103 B   104 A   104 B   105 A   105 B   106 A                  
  2.755   2.830   2.859   2.878   2.934   3.168   3.171   3.269
106 B   107 A   107 B   108 A   108 B   109 A   109 B   110 B                  
  3.271   3.401   3.426   3.721   3.741   3.967   3.970   4.284
110 A   111 A   111 B   112 A   112 B   113 A   113 B   114 A                  
  4.306   4.320   4.328   4.437   4.534   4.661   4.710
115 A   114 B   115 B   116 A   116 B   117 A   117 B                          
 --------------------------------------------------------------
 
          Ground-State Mulliken Net Atomic Charges

     Atom                 Charge (a.u.)
  ----------------------------------------
      1 S                     0.057209
      2 C                    -0.042607
      3 C                    -0.381513
      4 C                     0.319817
      5 C                    -0.391306
      6 H                     0.131976
      7 C                    -0.391306
      8 S                     0.057209
      9 C                     0.319817
     10 C                    -0.042607
     11 C                    -0.381513
     12 H                     0.118773
     13 H                     0.187651
     14 H                     0.118773
     15 H                     0.187651
     16 H                     0.131976
  ----------------------------------------
  Sum of atomic charges =    -0.000000

 -----------------------------------------------------------------
                    Cartesian Multipole Moments
 -----------------------------------------------------------------
    Charge (ESU x 10^10)
                -0.0000
    Dipole Moment (Debye)
         X      -0.0000      Y      -0.0000      Z      -0.7484
       Tot       0.7484
    Quadrupole Moments (Debye-Ang)
        XX     -61.1030     XY       1.4232     YY     -73.3411
        XZ       0.0000     YZ       0.0000     ZZ     -73.1187
    Octopole Moments (Debye-Ang^2)
       XXX      -0.0000    XXY      -0.0000    XYY      -0.0000
       YYY      -0.0000    XXZ       6.3083    XYZ     -13.9682
       YYZ      -4.6136    XZZ       0.0000    YZZ      -0.0000
       ZZZ       1.1126
    Hexadecapole Moments (Debye-Ang^3)
      XXXX   -1891.1609   XXXY      -3.7051   XXYY    -419.7653
      XYYY       2.4980   YYYY    -358.9850   XXXZ      -0.0000
      XXYZ       0.0000   XYYZ       0.0000   YYYZ       0.0000
      XXZZ    -418.9645   XYZZ       7.8477   YYZZ    -103.4164
      XZZZ      -0.0000   YZZZ      -0.0000   ZZZZ    -353.0285
 -----------------------------------------------------------------
 Calculating analytic gradient of the SCF energy
 Gradient of SCF Energy
            1           2           3           4           5           6
    1   0.0000402  -0.0001245   0.0001319  -0.0001262   0.0003247  -0.0000282
    2  -0.0000240  -0.0000306  -0.0000639   0.0000251   0.0001111  -0.0001004
    3   0.0000596  -0.0000342  -0.0000812   0.0002306  -0.0001602  -0.0000751
            7           8           9          10          11          12
    1  -0.0003247  -0.0000402   0.0001262   0.0001245  -0.0001319   0.0000306
    2  -0.0001111   0.0000240  -0.0000251   0.0000306   0.0000639  -0.0000525
    3  -0.0001602   0.0000596   0.0002306  -0.0000342  -0.0000812   0.0000577
           13          14          15          16
    1   0.0000128  -0.0000306  -0.0000128   0.0000282
    2   0.0000259   0.0000525  -0.0000259   0.0001004
    3   0.0000028   0.0000577   0.0000028  -0.0000751
 Max gradient component =       3.247E-04
 RMS gradient           =       1.097E-04
 Gradient time:  CPU 1.98 s  wall 1.97 s
 Geometry Optimization Parameters
   NAtoms,    NIC,     NZ,  NCons,   NDum,   NFix, NCnnct, MaxDiis
       16     111       0       1       0       0       0       0

 Cartesian Hessian Update
 Hessian Updated using BFGS Update


** CONSTRAINED OPTIMIZATION IN DELOCALIZED INTERNAL COORDINATES **
   Searching for a Minimum

   Optimization Cycle:   4

                       Coordinates (Angstroms)
     ATOM                X               Y               Z
      1  S         1.7400867153   -0.8937354917    0.8173799081
      2  C         3.1828898143   -0.1515162147    0.2123122143
      3  C         2.9064230442    0.7848833289   -0.7496511369
      4  C         1.5083325992    0.9125351646   -1.0072232249
      5  C         0.7305471051    0.0715777869   -0.2461165193
      6  H         1.0811869226    1.5975823572   -1.7309083392
      7  C        -0.7305471051   -0.0715777869   -0.2461165193
      8  S        -1.7400867153    0.8937354917    0.8173799081
      9  C        -1.5083325992   -0.9125351646   -1.0072232249
     10  C        -3.1828898143    0.1515162147    0.2123122143
     11  C        -2.9064230442   -0.7848833289   -0.7496511369
     12  H        -3.6699043348   -1.3646718632   -1.2557382830
     13  H         4.1492009051   -0.4487972466    0.5971709992
[...]
  3.271   3.401   3.426   3.721   3.741   3.967   3.970   4.284
110 A   111 A   111 B   112 A   112 B   113 A   113 B   114 A                  
  4.306   4.320   4.328   4.437   4.534   4.661   4.710
115 A   114 B   115 B   116 A   116 B   117 A   117 B                          
 --------------------------------------------------------------
 
          Ground-State Mulliken Net Atomic Charges

     Atom                 Charge (a.u.)
  ----------------------------------------
      1 S                     0.057284
      2 C                    -0.042605
      3 C                    -0.381284
      4 C                     0.319552
      5 C                    -0.391343
      6 H                     0.131955
      7 C                    -0.391343
      8 S                     0.057284
      9 C                     0.319552
     10 C                    -0.042605
     11 C                    -0.381284
     12 H                     0.118788
     13 H                     0.187652
     14 H                     0.118788
     15 H                     0.187652
     16 H                     0.131955
  ----------------------------------------
  Sum of atomic charges =    -0.000000

 -----------------------------------------------------------------
                    Cartesian Multipole Moments
 -----------------------------------------------------------------
    Charge (ESU x 10^10)
                -0.0000
    Dipole Moment (Debye)
         X       0.0000      Y      -0.0000      Z      -0.7485
       Tot       0.7485
    Quadrupole Moments (Debye-Ang)
        XX     -61.0985     XY       1.4115     YY     -73.3286
        XZ       0.0000     YZ       0.0000     ZZ     -73.1356
    Octopole Moments (Debye-Ang^2)
       XXX       0.0000    XXY       0.0000    XYY      -0.0000
       YYY      -0.0000    XXZ       6.2628    XYZ     -13.9663
       YYZ      -4.6166    XZZ      -0.0000    YZZ      -0.0000
       ZZZ       1.1828
    Hexadecapole Moments (Debye-Ang^3)
      XXXX   -1891.0590   XXXY      -3.8925   XXYY    -419.8432
      XYYY       2.6046   YYYY    -359.2562   XXXZ      -0.0000
      XXYZ       0.0000   XYYZ       0.0000   YYYZ       0.0000
      XXZZ    -418.9713   XYZZ       7.8922   YYZZ    -103.4054
      XZZZ       0.0000   YZZZ       0.0000   ZZZZ    -352.7522
 -----------------------------------------------------------------
 Calculating analytic gradient of the SCF energy
 Gradient of SCF Energy
            1           2           3           4           5           6
    1  -0.0000026  -0.0000066   0.0000030   0.0000037  -0.0000304  -0.0000028
    2   0.0000357  -0.0000018  -0.0000240   0.0000023  -0.0000248  -0.0000006
    3  -0.0000092   0.0000097  -0.0000179  -0.0000412   0.0000426   0.0000045
            7           8           9          10          11          12
    1   0.0000304   0.0000026  -0.0000037   0.0000066  -0.0000030   0.0000012
    2   0.0000248  -0.0000357  -0.0000023   0.0000018   0.0000240  -0.0000153
    3   0.0000426  -0.0000092  -0.0000412   0.0000097  -0.0000179   0.0000180
           13          14          15          16
    1   0.0000034  -0.0000012  -0.0000034   0.0000028
    2   0.0000134   0.0000153  -0.0000134   0.0000006
    3  -0.0000066   0.0000180  -0.0000066   0.0000045
 Max gradient component =       4.264E-05
 RMS gradient           =       1.860E-05
 Gradient time:  CPU 1.88 s  wall 1.90 s
 Geometry Optimization Parameters
   NAtoms,    NIC,     NZ,  NCons,   NDum,   NFix, NCnnct, MaxDiis
       16     111       0       1       0       0       0       0

 Cartesian Hessian Update
 Hessian Updated using BFGS Update


** CONSTRAINED OPTIMIZATION IN DELOCALIZED INTERNAL COORDINATES **
   Searching for a Minimum

   Optimization Cycle:   6

                       Coordinates (Angstroms)
     ATOM                X               Y               Z
      1  S         1.7405016099   -0.8942870955    0.8166602583
      2  C         3.1831876089   -0.1517988757    0.2115307256
      3  C         2.9060432270    0.7852080323   -0.7496909162
      4  C         1.5079745519    0.9130952234   -1.0066369769
      5  C         0.7303387663    0.0717264908   -0.2453026178
      6  H         1.0806859695    1.6005391411   -1.7279522920
      7  C        -0.7303387663   -0.0717264908   -0.2453026178
      8  S        -1.7405016099    0.8942870955    0.8166602583
      9  C        -1.5079745519   -0.9130952234   -1.0066369769
     10  C        -3.1831876089    0.1517988757    0.2115307256
     11  C        -2.9060432270   -0.7852080323   -0.7496909162
     12  H        -3.6694956171   -1.3643800040   -1.2566087086
     13  H         4.1496699518   -0.4499509470    0.5952261458
     14  H         3.6694956171    1.3643800040   -1.2566087086
     15  H        -4.1496699518    0.4499509470    0.5952261458
     16  H        -1.0806859695   -1.6005391411   -1.7279522920
   Point Group: c2    Number of degrees of freedom:    22


   Energy is  -1104.837244496

              Constraints and their Current Values
                                        Value     Constraint
   Dihedral:        4   5   7   9       90.000       90.000
 Hessian Updated using BFGS Update

 21 Hessian modes will be used to form the next step
  Hessian Eigenvalues:
     0.014844    0.036406    0.045001    0.045006    0.045364    0.045815
     0.146959    0.160325    0.160843    0.222771    0.232694    0.283441
     0.298597    0.316667    0.357397    0.359621    0.361913    0.391445
     0.447045    0.489555    0.534364

 Minimum Search - Taking Simple RFO Step
 Searching for Lamda that Minimizes Along All modes
 Value Taken    Lamda =   0.00000000
 Step Taken.  Stepsize is  0.001663

                             Maximum     Tolerance    Cnvgd?
         Gradient           0.000041      0.000300     YES
         Displacement       0.000942      0.001200     YES
         Energy change     -0.000000      0.000001     YES

 Final energy is   -1104.83724449587     


 ******************************
 **  OPTIMIZATION CONVERGED  **
 ******************************

                       Coordinates (Angstroms)
     ATOM                X               Y               Z
      1  S         1.7405016099   -0.8942870955    0.8166602583
      2  C         3.1831876089   -0.1517988757    0.2115307256
      3  C         2.9060432270    0.7852080323   -0.7496909162
      4  C         1.5079745519    0.9130952234   -1.0066369769
      5  C         0.7303387663    0.0717264908   -0.2453026178
      6  H         1.0806859695    1.6005391411   -1.7279522920
      7  C        -0.7303387663   -0.0717264908   -0.2453026178
      8  S        -1.7405016099    0.8942870955    0.8166602583
      9  C        -1.5079745519   -0.9130952234   -1.0066369769
     10  C        -3.1831876089    0.1517988757    0.2115307256
     11  C        -2.9060432270   -0.7852080323   -0.7496909162
     12  H        -3.6694956171   -1.3643800040   -1.2566087086
     13  H         4.1496699518   -0.4499509470    0.5952261458
     14  H         3.6694956171    1.3643800040   -1.2566087086
     15  H        -4.1496699518    0.4499509470    0.5952261458
     16  H        -1.0806859695   -1.6005391411   -1.7279522920

Z-matrix Print:
$molecule
0 1
S 
C  1 1.731708
H  2 1.081760 1 120.145765
C  2 1.370671 1 111.697827 3 -179.789115 0
H  4 1.084097 2 123.417597 1 179.963814 0
C  4 1.427225 2 112.679339 1 -0.072112 0
H  6 1.084182 4 124.239455 2 -179.792406 0
C  6 1.375590 4 113.535360 2 0.220670 0
C  8 1.467705 6 128.490552 4 179.784020 0
C  9 1.375590 8 128.490552 6 -90.000004 0
H  10 1.084182 9 122.225183 8 -0.203201 0
C  10 1.427225 9 113.535360 8 179.784020 0
H  12 1.084097 10 123.903053 9 -179.815459 0
C  12 1.370671 10 112.679339 9 0.220670 0
H  14 1.081760 12 128.156011 10 -179.840196 0
S  14 1.731708 12 111.697827 10 -0.072112 0
$end

 
 --------------------------------------------------------------
             Orbital Energies (a.u.) and Symmetries
 --------------------------------------------------------------
 
 Alpha MOs, Restricted
 -- Occupied --                  
-88.919 -88.919 -10.235 -10.235 -10.224 -10.224 -10.204 -10.204
  1 B     1 A     2 A     2 B     3 B     3 A     4 A     4 B                  
-10.203 -10.203  -7.978  -7.978  -5.942  -5.942  -5.939  -5.939
  5 B     5 A     6 B     6 A     7 B     7 A     8 B     8 A                  
 -5.935  -5.935  -0.898  -0.877  -0.768  -0.741  -0.741  -0.705
  9 B     9 A    10 A    10 B    11 A    12 A    11 B    12 B                  
 -0.600  -0.567  -0.565  -0.534  -0.523  -0.478  -0.417  -0.414
 13 A    13 B    14 A    14 B    15 A    15 B    16 A    16 B                  
 -0.413  -0.406  -0.393  -0.375  -0.375  -0.351  -0.350  -0.264
 17 A    17 B    18 A    19 A    18 B    19 B    20 A    21 A                  
 -0.257  -0.243  -0.243
 20 B    21 B    22 A                                                          
 -- Virtual --                   
 -0.033  -0.033  -0.005  -0.003   0.007   0.013   0.021   0.022
 23 A    22 B    24 A    23 B    25 A    24 B    26 A    25 B                  
  0.026   0.034   0.035   0.041   0.045   0.048   0.065   0.071
 27 A    28 A    26 B    27 B    29 A    28 B    29 B    30 A                  
  0.071   0.071   0.080   0.102   0.102   0.107   0.110   0.112
 30 B    31 A    32 A    33 A    31 B    34 A    32 B    35 A                  
  0.114   0.118   0.125   0.127   0.132   0.132   0.137   0.142
 33 B    34 B    35 B    36 A    36 B    37 A    38 A    37 B                  
  0.146   0.150   0.157   0.162   0.169   0.173   0.178   0.182
 38 B    39 A    40 A    39 B    41 A    42 A    40 B    41 B                  
  0.186   0.190   0.191   0.206   0.212   0.218   0.220   0.226
 43 A    42 B    43 B    44 A    44 B    45 A    45 B    46 A                  
  0.243   0.249   0.256   0.270   0.271   0.274   0.294   0.298
 47 A    46 B    47 B    48 B    48 A    49 A    50 A    49 B                  
  0.306   0.316   0.328   0.332   0.357   0.362   0.372   0.391
 50 B    51 B    51 A    52 A    53 A    52 B    53 B    54 A                  
  0.431   0.472   0.483   0.486   0.519   0.531   0.548   0.578
 54 B    55 A    55 B    56 A    57 A    56 B    57 B    58 A                  
  0.580   0.587   0.616   0.633   0.642   0.666   0.674   0.676
 58 B    59 A    59 B    60 A    60 B    61 A    61 B    62 A                  
  0.690   0.698   0.725   0.727   0.738   0.754   0.768   0.772
 62 B    63 A    63 B    64 A    64 B    65 B    65 A    66 B                  
  0.794   0.801   0.813   0.828   0.842   0.894   0.910   0.942
 66 A    67 B    67 A    68 A    68 B    69 A    69 B    70 A                  
  0.945   0.958   0.960   0.967   0.971   0.987   0.993   1.016
 70 B    71 A    71 B    72 B    72 A    73 A    73 B    74 B                  
  1.020   1.022   1.034   1.058   1.078   1.094   1.103   1.110
 75 B    74 A    75 A    76 B    76 A    77 A    77 B    78 A                  
  1.130   1.184   1.217   1.221   1.245   1.287   1.325   1.346
 78 B    79 A    79 B    80 A    80 B    81 A    81 B    82 A                  
  1.352   1.355   1.363   1.395   1.459   1.471   1.476   1.522
 82 B    83 A    83 B    84 A    84 B    85 B    85 A    86 A                  
  1.563   1.691   1.695   1.780   1.828   1.849   1.875   1.881
 86 B    87 A    87 B    88 A    89 A    88 B    90 A    89 B                  
  1.917   1.924   1.960   1.972   2.011   2.018   2.061   2.108
 90 B    91 A    92 A    91 B    93 A    92 B    93 B    94 A                  
  2.125   2.162   2.186   2.197   2.208   2.252   2.266   2.340
 95 A    94 B    95 B    96 B    96 A    97 B    97 A    98 A                  
  2.367   2.371   2.429   2.438   2.465   2.478   2.493   2.511
 99 A    98 B    99 B   100 A   101 A   100 B   101 B   102 B                  
  2.513   2.522   2.579   2.587   2.611   2.645   2.698   2.702
102 A   103 A   103 B   104 A   104 B   105 A   105 B   106 A                  
  2.755   2.830   2.859   2.878   2.933   3.168   3.171   3.269
106 B   107 A   107 B   108 A   108 B   109 A   109 B   110 B                  
  3.271   3.401   3.426   3.721   3.741   3.967   3.970   4.284
110 A   111 A   111 B   112 A   112 B   113 A   113 B   114 A                  
  4.306   4.320   4.328   4.437   4.534   4.661   4.710
115 A   114 B   115 B   116 A   116 B   117 A   117 B                          
 
 Beta MOs, Restricted
 -- Occupied --                  
-88.919 -88.919 -10.235 -10.235 -10.224 -10.224 -10.204 -10.204
  1 B     1 A     2 A     2 B     3 B     3 A     4 A     4 B                  
-10.203 -10.203  -7.978  -7.978  -5.942  -5.942  -5.939  -5.939
  5 B     5 A     6 B     6 A     7 B     7 A     8 B     8 A                  
 -5.935  -5.935  -0.898  -0.877  -0.768  -0.741  -0.741  -0.705
  9 B     9 A    10 A    10 B    11 A    12 A    11 B    12 B                  
 -0.600  -0.567  -0.565  -0.534  -0.523  -0.478  -0.417  -0.414
 13 A    13 B    14 A    14 B    15 A    15 B    16 A    16 B                  
 -0.413  -0.406  -0.393  -0.375  -0.375  -0.351  -0.350  -0.264
 17 A    17 B    18 A    19 A    18 B    19 B    20 A    21 A                  
 -0.257  -0.243  -0.243
 20 B    21 B    22 A                                                          
 -- Virtual --                   
 -0.033  -0.033  -0.005  -0.003   0.007   0.013   0.021   0.022
 23 A    22 B    24 A    23 B    25 A    24 B    26 A    25 B                  
  0.026   0.034   0.035   0.041   0.045   0.048   0.065   0.071
 27 A    28 A    26 B    27 B    29 A    28 B    29 B    30 A                  
  0.071   0.071   0.080   0.102   0.102   0.107   0.110   0.112
 30 B    31 A    32 A    33 A    31 B    34 A    32 B    35 A                  
  0.114   0.118   0.125   0.127   0.132   0.132   0.137   0.142
 33 B    34 B    35 B    36 A    36 B    37 A    38 A    37 B                  
  0.146   0.150   0.157   0.162   0.169   0.173   0.178   0.182
 38 B    39 A    40 A    39 B    41 A    42 A    40 B    41 B                  
  0.186   0.190   0.191   0.206   0.212   0.218   0.220   0.226
 43 A    42 B    43 B    44 A    44 B    45 A    45 B    46 A                  
  0.243   0.249   0.256   0.270   0.271   0.274   0.294   0.298
 47 A    46 B    47 B    48 B    48 A    49 A    50 A    49 B                  
  0.306   0.316   0.328   0.332   0.357   0.362   0.372   0.391
 50 B    51 B    51 A    52 A    53 A    52 B    53 B    54 A                  
  0.431   0.472   0.483   0.486   0.519   0.531   0.548   0.578
 54 B    55 A    55 B    56 A    57 A    56 B    57 B    58 A                  
  0.580   0.587   0.616   0.633   0.642   0.666   0.674   0.676
 58 B    59 A    59 B    60 A    60 B    61 A    61 B    62 A                  
  0.690   0.698   0.725   0.727   0.738   0.754   0.768   0.772
 62 B    63 A    63 B    64 A    64 B    65 B    65 A    66 B                  
  0.794   0.801   0.813   0.828   0.842   0.894   0.910   0.942
 66 A    67 B    67 A    68 A    68 B    69 A    69 B    70 A                  
  0.945   0.958   0.960   0.967   0.971   0.987   0.993   1.016
 70 B    71 A    71 B    72 B    72 A    73 A    73 B    74 B                  
  1.020   1.022   1.034   1.058   1.078   1.094   1.103   1.110
 75 B    74 A    75 A    76 B    76 A    77 A    77 B    78 A                  
  1.130   1.184   1.217   1.221   1.245   1.287   1.325   1.346
 78 B    79 A    79 B    80 A    80 B    81 A    81 B    82 A                  
  1.352   1.355   1.363   1.395   1.459   1.471   1.476   1.522
 82 B    83 A    83 B    84 A    84 B    85 B    85 A    86 A                  
  1.563   1.691   1.695   1.780   1.828   1.849   1.875   1.881
 86 B    87 A    87 B    88 A    89 A    88 B    90 A    89 B                  
  1.917   1.924   1.960   1.972   2.011   2.018   2.061   2.108
 90 B    91 A    92 A    91 B    93 A    92 B    93 B    94 A                  
  2.125   2.162   2.186   2.197   2.208   2.252   2.266   2.340
 95 A    94 B    95 B    96 B    96 A    97 B    97 A    98 A                  
  2.367   2.371   2.429   2.438   2.465   2.478   2.493   2.511
 99 A    98 B    99 B   100 A   101 A   100 B   101 B   102 B                  
  2.513   2.522   2.579   2.587   2.611   2.645   2.698   2.702
102 A   103 A   103 B   104 A   104 B   105 A   105 B   106 A                  
  2.755   2.830   2.859   2.878   2.933   3.168   3.171   3.269
106 B   107 A   107 B   108 A   108 B   109 A   109 B   110 B                  
  3.271   3.401   3.426   3.721   3.741   3.967   3.970   4.284
110 A   111 A   111 B   112 A   112 B   113 A   113 B   114 A                  
  4.306   4.320   4.328   4.437   4.534   4.661   4.710
115 A   114 B   115 B   116 A   116 B   117 A   117 B                          
 --------------------------------------------------------------
 
          Ground-State Mulliken Net Atomic Charges

     Atom                 Charge (a.u.)
  ----------------------------------------
      1 S                     0.057284
      2 C                    -0.042605
      3 C                    -0.381284
      4 C                     0.319552
      5 C                    -0.391343
      6 H                     0.131955
      7 C                    -0.391343
      8 S                     0.057284
      9 C                     0.319552
     10 C                    -0.042605
     11 C                    -0.381284
     12 H                     0.118788
     13 H                     0.187652
     14 H                     0.118788
     15 H                     0.187652
     16 H                     0.131955
  ----------------------------------------
  Sum of atomic charges =    -0.000000

 -----------------------------------------------------------------
                    Cartesian Multipole Moments
 -----------------------------------------------------------------
    Charge (ESU x 10^10)
                -0.0000
    Dipole Moment (Debye)
         X       0.0000      Y      -0.0000      Z      -0.7485
       Tot       0.7485
    Quadrupole Moments (Debye-Ang)
        XX     -61.0985     XY       1.4115     YY     -73.3286
        XZ       0.0000     YZ       0.0000     ZZ     -73.1356
    Octopole Moments (Debye-Ang^2)
       XXX       0.0000    XXY       0.0000    XYY      -0.0000
       YYY      -0.0000    XXZ       6.2628    XYZ     -13.9663
       YYZ      -4.6166    XZZ      -0.0000    YZZ      -0.0000
       ZZZ       1.1828
    Hexadecapole Moments (Debye-Ang^3)
      XXXX   -1891.0590   XXXY      -3.8925   XXYY    -419.8432
      XYYY       2.6046   YYYY    -359.2562   XXXZ      -0.0000
      XXYZ       0.0000   XYYZ       0.0000   YYYZ       0.0000
      XXZZ    -418.9713   XYZZ       7.8922   YYZZ    -103.4054
      XZZZ       0.0000   YZZZ       0.0000   ZZZZ    -352.7522
 -----------------------------------------------------------------
Archival summary:
1\1\nid01043\OPT\ProcedureUnspecified\BasisUnspecified\286\FriSep218:52:502016FriSep218:52:502016\0\\#,OPT,ProcedureUnspecified,BasisUnspecified,\\0,1\S\C,1,1.73171\H,2,1.08176,1,120.146\C,2,1.37067,1,111.698,3,-179.789,0\H,4,1.0841,2,123.418,1,179.964,0\C,4,1.42723,2,112.679,1,-0.0721118,0\H,6,1.08418,4,124.239,2,-179.792,0\C,6,1.37559,4,113.535,2,0.22067,0\C,8,1.4677,6,128.491,4,179.784,0\C,9,1.37559,8,128.491,6,-90,0\H,10,1.08418,9,122.225,8,-0.203201,0\C,10,1.42723,9,113.535,8,179.784,0\H,12,1.0841,10,123.903,9,-179.815,0\C,12,1.37067,10,112.679,9,0.22067,0\H,14,1.08176,12,128.156,10,-179.84,0\S,14,1.73171,12,111.698,10,-0.0721118,0\\\@

 Total job time:  43.36s(wall), 47.85s(cpu) 
 Fri Sep  2 18:52:50 2016

        *************************************************************
        *                                                           *
        *  Thank you very much for using Q-Chem.  Have a nice day.  *
        *                                                           *
        *************************************************************


0 sent ACK to 0 
now end server 0 ... 
