srun -N 1 --ntasks-per-node 16 --nodelist nid01044 /global/project/projectdirs/jcesr/qchem/qc44/cnl_qc441/dist/exe/qcprog.cori.exe .pt_dft_-10.0.in.65493.qcin.1 /dev/shm/eg_qchem/qchem65493/
Process 1 of 16 is on nid01044 - thread support 0
Process 2 of 16 is on nid01044 - thread support 0
Process 3 of 16 is on nid01044 - thread support 0
Process 4 of 16 is on nid01044 - thread support 0
Process 5 of 16 is on nid01044 - thread support 0
Process 6 of 16 is on nid01044 - thread support 0
Process 0 of 16 is on nid01044 - thread support 0
Process 15 of 16 is on nid01044 - thread support 0
initial socket setup ...start
initial socket setup ...done 
now start server 0 ... 
nid01044 10.128.4
Q-Chem Developer Version! Running on 10.128.4.*
                  Welcome to Q-Chem
     A Quantum Leap Into The Future Of Chemistry


 Q-Chem 4.4, Q-Chem, Inc., Pleasanton, CA (2016)

 Y. Shao,  Z. Gan,  E. Epifanovsky,  A. T. B. Gilbert,  M. Wormit,  
 J. Kussmann,  A. W. Lange,  A. Behn,  J. Deng,  X. Feng,  D. Ghosh,  
 M. Goldey,  P. R. Horn,  L. D. Jacobson,  I. Kaliman,  F.Rob,  
 R. Z. Khaliullin,  T. Kus,  A. Landau,  J. Liu,  E. I. Proynov,  Y. M. Rhee,  
 R. M. Richard,  M. A. Rohrdanz,  R. P. Steele,  E. J. Sundstrom,  
 H. L. Woodcock III,  P. M. Zimmerman,  D. Zuev,  B. Albrecht,  E. Alguire,  
 B. Austin,  S. A. Baeppler,  G. J. O. Beran,  Y. A. Bernard,  E. Berquist,  
 K. Brandhorst,  K. B. Bravaya,  S. T. Brown,  D. Casanova,  C.-M. Chang,  
 Y. Chen,  S. H. Chien,  K. D. Closser,  M. P. Coons,  D. L. Crittenden,  
 S. Dasgupta,  M. Diedenhofen,  R. A. DiStasio Jr.,  H. Do,  A. D. Dutoi,  
 R. G. Edgar,  P.-T. Fang,  S. Fatehi,  Q. Feng,  L. Fusti-Molnar,  
 A. Ghysels,  A. Golubeva-Zadorozhnaya,  J. Gomes,  A. Gunina,  
 M. W. D. Hanson-Heine,  P. H. P. Harbach,  A. W. Hauser,  E. G. Hohenstein,  
 Z. C. Holden,  K. Hui,  T.-C. Jagau,  H. Ji,  B. Kaduk,  K. Khistyaev,  
 Jaehoon Kim,  Jihan Kim,  R. A. King,  P. Klunzinger,  D. Kosenkov,  
 T. Kowalczyk,  C. M. Krauter,  A. Kunitsa,  K. U. Lao,  A. Laurent,  
 K. V. Lawler,  D. Lefrancois,  S. Lehtola,  S. V. Levchenko,  C. Y. Lin,  
 Y.-S. Lin,  F. Liu,  E. Livshits,  R. C. Lochan,  A. Luenser,  P. Manohar,  
 S. F. Manzer,  S.-P. Mao,  Y. Mao,  N. Mardirossian,  A. V. Marenich,  
 L. A. Martinez-Martinez,  S. A. Maurer,  N. J. Mayhall,  J.-M. Mewes,  
 A. F. Morrison,  K. Nanda,  C. M. Oana,  R. Olivares-Amaya,  D. P. O'Neill,  
 J. A. Parkhill,  T. M. Perrine,  R. Peverati,  P. A. Pieniazek,  F. Plasser,  
 A. Prociuk,  D. R. Rehn,  E. Rosta,  N. J. Russ,  N. Sergueev,  
 S. M. Sharada,  S. Sharma,  D. W. Small,  A. Sodt,  T. Stauch,  T. Stein,  
 D. Stuck,  Y.-C. Su,  A. J. W. Thom,  T. Tsuchimochi,  L. Vogt,  O. Vydrov,  
 T. Wang,  M. A. Watson,  J. Wenzel,  A. White,  C. F. Williams,  
 V. Vanovschi,  S. Yeganeh,  S. R. Yost,  Z.-Q. You,  I. Y. Zhang,  X. Zhang,  
 Y. Zhao,  B. R. Brooks,  G. K. L. Chan,  D. M. Chipman,  C. J. Cramer,  
 W. A. Goddard III,  M. S. Gordon,  W. J. Hehre,  A. Klamt,  
 H. F. Schaefer III,  M. W. Schmidt,  C. D. Sherrill,  D. G. Truhlar,  
 A. Warshel,  X. Xu,  A. Aspuru-Guzik,  R. Baer,  A. T. Bell,  N. A. Besley,  
 J.-D. Chai,  A. Dreuw,  B. D. Dunietz,  T. R. Furlani,  S. R. Gwaltney,  
 C.-P. Hsu,  Y. Jung,  J. Kong,  D. S. Lambrecht,  W. Liang,  C. Ochsenfeld,  
 V. A. Rassolov,  L. V. Slipchenko,  J. E. Subotnik,  T. Van Voorhis,  
 J. M. Herbert,  A. I. Krylov,  P. M. W. Gill,  M. Head-Gordon

 Contributors to earlier versions of Q-Chem not listed above: 
 R. D. Adamson,  J. Baker,  E. F. C. Byrd,  A. K. Chakraborty,  C.-L. Cheng,  
 H. Dachsel,  R. J. Doerksen,  G. Hawkins,  A. Heyden,  S. Hirata,  
 G. Kedziora,  F. J. Keil,  C. Kelley,  P. P. Korambath,  W. Kurlancheek,  
 A. M. Lee,  M. S. Lee,  D. Liotard,  I. Lotan,  P. E. Maslen,  N. Nair,  
 D. Neuhauser,  R. Olson,  B. Peters,  J. Ritchie,  N. E. Schultz,  
 N. Shenvi,  A. C. Simmonett,  K. S. Thanthiriwatte,  Q. Wu,  W. Zhang

 Please cite Q-Chem as follows:
 Y. Shao et al., Mol. Phys. 113, 184-215 (2015)
 DOI: 10.1080/00268976.2014.952696

 Q-Chem 4.4.1 for Intel X86 EM64T Linux

 Parts of Q-Chem use Armadillo 5.200.1 (Boston Tea Smuggler).
 http://arma.sourceforge.net/

 Q-Chem begins on Fri Sep  2 18:57:44 2016  

Host: nid01043
0

     Scratch files written to /dev/shm/eg_qchem/qchem65493.0//
 Parallel job on  16  processors

Checking the input file for inconsistencies... 	...done.

--------------------------------------------------------------
User input:
--------------------------------------------------------------
$molecule
 0  1
 S           1.82267924       -1.19997629        0.28714109
 C           3.20006180       -0.17260711        0.06528466
 C           2.82980603        1.10216298       -0.25610036
 C           1.41909100        1.26345446       -0.34254814
 C           0.71738150        0.10901545       -0.08456145
 H           0.93627498        2.19419272       -0.61095402
 C          -0.71741859       -0.10899254       -0.08455524
 S          -1.37749492       -1.73017070        0.01232441
 C          -1.73472742        0.81364706       -0.15872793
 C          -3.00222863       -1.12962874       -0.02614873
 C          -3.03258060        0.23215198       -0.12639132
 H          -3.94960206        0.80508588       -0.16553498
 H           4.19429620       -0.57452886        0.18632814
 H           3.53860725        1.89960515       -0.43610218
 H          -3.83060461       -1.81928354        0.02736890
 H          -1.55532431        1.87978385       -0.20965551
$end


$rem
         jobtype = opt
        exchange = b3lyp
           basis = 6-31++g**
  max_scf_cycles = 75
      mem_static = 100
       mem_total = 1500
$end


$opt
CONSTRAINT
tors 4 5 7 9 -10.0
ENDCONSTRAINT
$end

--------------------------------------------------------------
 Atom   8: ( -1.6230247145, -0.1233972589,  1.1449499261)
         ->( -1.6230248044, -0.1233971806,  1.1449499655)
 Atom  10: ( -3.1381382931, -0.0158833708,  0.3114260425)
         ->( -3.1381383030, -0.0158834754,  0.3114259325)
 Atom  11: ( -2.9625032740,  0.0943649941, -1.0385421743)
         ->( -2.9625031972,  0.0943646828, -1.0385422531)
 Atom   9: ( -1.5918242447,  0.1084780455, -1.4188642505)
         ->( -1.5918241533,  0.1084783349, -1.4188642474)
 Atom   7: ( -0.7255999397,  0.0070330292, -0.3553572985)
         ->( -0.7255998846,  0.0070329587, -0.3553572496)
 Atom  16: ( -1.2532514665,  0.2152926538, -2.4413053797)
         ->( -1.2532513227,  0.2152932508, -2.4413053198)
 Atom  14: (  3.7823236135, -0.1736144953, -1.7402029912)
         ->(  3.7823237278, -0.1736149867, -1.7402028473)
 Atom  15: ( -4.0610019750, -0.0411262408,  0.8703357547)
         ->( -4.0610020736, -0.0411264168,  0.8703355085)
 ----------------------------------------------------------------
             Standard Nuclear Orientation (Angstroms)
    I     Atom           X                Y                Z
 ----------------------------------------------------------------
    1      S       1.6230248044     0.1233971806     1.1449499655
    2      C       3.1381383030     0.0158834754     0.3114259325
    3      C       2.9625031972    -0.0943646828    -1.0385422531
    4      C       1.5918241533    -0.1084783349    -1.4188642474
    5      C       0.7255998846    -0.0070329587    -0.3553572496
    6      H       1.2532513227    -0.2152932508    -2.4413053198
    7      C      -0.7255998846     0.0070329587    -0.3553572496
    8      S      -1.6230248044    -0.1233971806     1.1449499655
    9      C      -1.5918241533     0.1084783349    -1.4188642474
   10      C      -3.1381383030    -0.0158834754     0.3114259325
   11      C      -2.9625031972     0.0943646828    -1.0385422531
   12      H      -3.7823237278     0.1736149867    -1.7402028473
   13      H       4.0610020736     0.0411264168     0.8703355085
   14      H       3.7823237278    -0.1736149867    -1.7402028473
   15      H      -4.0610020736    -0.0411264168     0.8703355085
   16      H      -1.2532513227     0.2152932508    -2.4413053198
 ----------------------------------------------------------------
 Molecular Point Group                 C2    NOp =  2
 Largest Abelian Subgroup              C2    NOp =  2
 Nuclear Repulsion Energy =   634.2613643300 hartrees
 There are       43 alpha and       43 beta electrons
 Requested basis set is 6-31++G(d,p)
 There are 76 shells and 234 basis functions

 Total QAlloc Memory Limit   1500 MB
 Mega-Array Size        98 MB
 MEM_STATIC part       100 MB
 A cutoff of  1.0D-11 yielded   2489 shell pairs
 There are     24591 function pairs
 
 -------------------------------------------------------
 OpenMP Integral Computing Module                       
 Release: version 1.0, May 2013, Q-Chem Inc. Pittsburgh 
 -------------------------------------------------------
 Integral Job Info:
 Integral job number is                      11
 Integral operator is                         1
 short-range coefficients                     0
 long-range coefficients              100000000
 Omega coefficients                           0
 if combine SR and LR in K                    0
 Integral screening is                        0
 Integral computing path is                   2
 max size of driver memory is            800000
 size of driver memory is                593474
 size of scratch memory is             15166112
 max col of scratch BK array               1296
 max len of scratch array in speh3          155
 max len of scratch index in speh4           18
 max int batch size is                      520
 min int batch size is                       52
 fixed nKL is                                52
 max L of basis functions is                  2
 order of int derivative is                   0
 number of shells is                         76
 number of basis is                         234
 number of cartesian basis is               234
 number of contracted shell pairs          2489
 number of primitive shell pairs           8065
 maxK2 (contraction) of shell pair           36
 max number of K2 of shell pair               1
 max number of CS2 of shell pair            256
 max number of PS2 of shell pair           1500
 mem total for path MDJ                   51992
 -------------------------------------------------------
 Smallest overlap matrix eigenvalue = 7.08E-07

 Q-Chem warning in module /project/projectdirs/jcesr/qchem/qc44/cnl_qc441/compile/cori/qc_src/stvman/mkSTV.C, line 257:

 Overlap eigenvalue is smaller than square root of threshold

 Linear dependence detected in AO basis
 Number of orthogonalized atomic orbitals = 233
 Maximum deviation from orthogonality = 1.189E-10

 Scale SEOQF with 1.000000e-01/1.000000e-01/1.000000e-01

 Standard Electronic Orientation quadrupole field applied
 Nucleus-field energy     =     0.0000000038 hartrees
 Guess from superposition of atomic densities
 Warning:  Energy on first SCF cycle will be non-variational
 A restricted hybrid HF-DFT SCF calculation will be
 performed using Pulay DIIS extrapolation
 Exchange:     0.2000 Hartree-Fock + 0.0800 Slater + 0.7200 B88
 Correlation:  0.1900 VWN1RPA + 0.8100 LYP
 Using SG-1 standard quadrature grid
 SCF converges when DIIS error is below 1.0E-08
 ---------------------------------------
  Cycle       Energy         DIIS Error
 ---------------------------------------
    1   -1107.2292368408      4.45E-02
    2   -1029.4379042140      9.81E-02
    3   -1063.6116554469      1.42E-01
    4   -1104.6871569173      1.10E-01
    5   -1286.5971614832      4.00E-01
    6   -1029.3185431996      1.62E-01
    7   -1001.5514246044      3.80E-01
    8   -1075.5737782238      2.14E-01
    9   -1075.5741058886      2.14E-01
   10   -1098.6523954903      2.99E-02
   11   -1083.3525961608      5.12E-02
   12   -1103.7657679036      1.18E-02
   13   -1104.3572787342      8.35E-03
   14   -1104.7729818910      2.82E-03
   15   -1104.8290287991      1.10E-03
   16   -1104.8367141432      5.29E-04
   17   -1104.8385891660      1.29E-04
   18   -1104.8387140718      1.30E-05
   19   -1104.8387142329      7.04E-06
   20   -1104.8387151408      1.03E-06
   21   -1104.8387155686      2.34E-07
   22   -1104.8387147075      1.09E-07
   23   -1104.8387148231      4.87E-08
   24   -1104.8387150260      2.87E-08
   25   -1104.8387149776      3.66E-08
   26   -1104.8387152262      2.86E-08
   27   -1104.8387150843      8.52E-09 Convergence criterion met
 ---------------------------------------
 SCF time:  CPU 11.60 s  wall 9.87 s
 SCF   energy in the final basis set = -1104.8387150843
 Total energy in the final basis set = -1104.8387150843
 
 --------------------------------------------------------------
             Orbital Energies (a.u.) and Symmetries
 --------------------------------------------------------------
 
 Alpha MOs, Restricted
 -- Occupied --                  
-88.919 -88.919 -10.238 -10.238 -10.224 -10.224 -10.204 -10.204
  1 B     1 A     2 A     2 B     3 B     3 A     4 B     4 A                  
-10.203 -10.202  -7.979  -7.979  -5.943  -5.943  -5.939  -5.939
  5 B     5 A     6 B     6 A     7 B     7 A     8 B     8 A                  
 -5.936  -5.936  -0.902  -0.879  -0.773  -0.751  -0.737  -0.706
  9 A     9 B    10 A    10 B    11 A    12 A    11 B    12 B                  
 -0.604  -0.581  -0.554  -0.534  -0.529  -0.477  -0.422  -0.419
 13 A    14 A    13 B    14 B    15 A    15 B    16 A    17 A                  
 -0.409  -0.404  -0.402  -0.376  -0.374  -0.361  -0.342  -0.284
 16 B    17 B    18 A    18 B    19 A    20 A    19 B    20 B                  
 -0.266  -0.257  -0.212
 21 B    21 A    22 A                                                          
 -- Virtual --                   
 -0.059  -0.015  -0.003   0.000   0.006   0.014   0.020   0.027
 22 B    23 A    24 A    23 B    25 A    26 A    24 B    25 B                  
  0.027   0.036   0.041   0.044   0.051   0.061   0.066   0.071
 27 A    28 A    26 B    29 A    27 B    30 A    28 B    29 B                  
  0.080   0.084   0.088   0.094   0.102   0.103   0.107   0.113
 31 A    30 B    31 B    32 A    33 A    32 B    34 A    35 A                  
  0.116   0.122   0.128   0.128   0.137   0.139   0.144   0.146
 33 B    36 A    34 B    37 A    38 A    35 B    39 A    36 B                  
  0.149   0.157   0.157   0.160   0.166   0.178   0.184   0.189
 40 A    37 B    41 A    38 B    39 B    40 B    42 A    43 A                  
  0.190   0.193   0.196   0.207   0.210   0.216   0.229   0.240
 41 B    42 B    44 A    43 B    45 A    46 A    44 B    47 A                  
  0.259   0.262   0.266   0.273   0.285   0.296   0.302   0.311
 45 B    48 A    46 B    49 A    47 B    48 B    50 A    49 B                  
  0.312   0.317   0.339   0.347   0.365   0.381   0.385   0.428
 51 A    52 A    50 B    53 A    51 B    54 A    52 B    53 B                  
  0.448   0.467   0.490   0.536   0.553   0.566   0.568   0.574
 55 A    56 A    54 B    57 A    55 B    56 B    58 A    57 B                  
  0.593   0.625   0.644   0.654   0.656   0.670   0.676   0.676
 59 A    60 A    58 B    61 A    59 B    62 A    60 B    63 A                  
  0.702   0.719   0.722   0.723   0.734   0.752   0.766   0.793
 64 A    61 B    65 A    62 B    63 B    66 A    64 B    67 A                  
  0.807   0.818   0.830   0.844   0.886   0.925   0.929   0.947
 65 B    66 B    68 A    67 B    69 A    68 B    70 A    71 A                  
  0.954   0.958   0.971   0.979   0.986   1.002   1.011   1.012
 72 A    69 B    70 B    71 B    73 A    72 B    74 A    73 B                  
  1.026   1.035   1.081   1.085   1.111   1.117   1.136   1.171
 75 A    76 A    77 A    74 B    78 A    75 B    76 B    79 A                  
  1.189   1.191   1.209   1.250   1.256   1.331   1.337   1.355
 80 A    77 B    78 B    81 A    79 B    80 B    82 A    81 B                  
  1.356   1.370   1.376   1.452   1.501   1.531   1.557   1.599
 83 A    82 B    84 A    83 B    85 A    84 B    86 A    85 B                  
  1.643   1.694   1.712   1.782   1.859   1.874   1.896   1.921
 86 B    87 A    87 B    88 A    89 A    90 A    88 B    89 B                  
  1.927   1.979   1.994   2.019   2.025   2.077   2.094   2.125
 91 A    92 A    90 B    91 B    93 A    94 A    92 B    95 A                  
  2.130   2.172   2.186   2.250   2.252   2.294   2.296   2.362
 93 B    96 A    94 B    97 A    95 B    96 B    98 A    97 B                  
  2.368   2.418   2.456   2.476   2.480   2.503   2.512   2.536
 99 A    98 B   100 A   101 A    99 B   102 A   100 B   101 B                  
  2.550   2.573   2.579   2.600   2.691   2.695   2.729   2.763
103 A   104 A   105 A   102 B   103 B   104 B   106 A   107 A                  
  2.803   2.857   2.960   2.990   3.146   3.225   3.274   3.278
105 B   108 A   106 B   107 B   109 A   108 B   110 A   109 B                  
  3.399   3.440   3.715   3.765   3.942   4.025   4.227   4.300
111 A   110 B   112 A   111 B   113 A   112 B   114 A   115 A                  
  4.311   4.336   4.402   4.554   4.649   4.742
113 B   114 B   116 A   115 B   117 A   116 B                                  
 
 Beta MOs, Restricted
 -- Occupied --                  
-88.919 -88.919 -10.238 -10.238 -10.224 -10.224 -10.204 -10.204
  1 B     1 A     2 A     2 B     3 B     3 A     4 B     4 A                  
-10.203 -10.202  -7.979  -7.979  -5.943  -5.943  -5.939  -5.939
  5 B     5 A     6 B     6 A     7 B     7 A     8 B     8 A                  
 -5.936  -5.936  -0.902  -0.879  -0.773  -0.751  -0.737  -0.706
  9 A     9 B    10 A    10 B    11 A    12 A    11 B    12 B                  
 -0.604  -0.581  -0.554  -0.534  -0.529  -0.477  -0.422  -0.419
 13 A    14 A    13 B    14 B    15 A    15 B    16 A    17 A                  
 -0.409  -0.404  -0.402  -0.376  -0.374  -0.361  -0.342  -0.284
 16 B    17 B    18 A    18 B    19 A    20 A    19 B    20 B                  
 -0.266  -0.257  -0.212
 21 B    21 A    22 A                                                          
 -- Virtual --                   
 -0.059  -0.015  -0.003   0.000   0.006   0.014   0.020   0.027
 22 B    23 A    24 A    23 B    25 A    26 A    24 B    25 B                  
  0.027   0.036   0.041   0.044   0.051   0.061   0.066   0.071
 27 A    28 A    26 B    29 A    27 B    30 A    28 B    29 B                  
  0.080   0.084   0.088   0.094   0.102   0.103   0.107   0.113
 31 A    30 B    31 B    32 A    33 A    32 B    34 A    35 A                  
  0.116   0.122   0.128   0.128   0.137   0.139   0.144   0.146
 33 B    36 A    34 B    37 A    38 A    35 B    39 A    36 B                  
  0.149   0.157   0.157   0.160   0.166   0.178   0.184   0.189
 40 A    37 B    41 A    38 B    39 B    40 B    42 A    43 A                  
  0.190   0.193   0.196   0.207   0.210   0.216   0.229   0.240
 41 B    42 B    44 A    43 B    45 A    46 A    44 B    47 A                  
  0.259   0.262   0.266   0.273   0.285   0.296   0.302   0.311
 45 B    48 A    46 B    49 A    47 B    48 B    50 A    49 B                  
  0.312   0.317   0.339   0.347   0.365   0.381   0.385   0.428
 51 A    52 A    50 B    53 A    51 B    54 A    52 B    53 B                  
  0.448   0.467   0.490   0.536   0.553   0.566   0.568   0.574
 55 A    56 A    54 B    57 A    55 B    56 B    58 A    57 B                  
  0.593   0.625   0.644   0.654   0.656   0.670   0.676   0.676
 59 A    60 A    58 B    61 A    59 B    62 A    60 B    63 A                  
  0.702   0.719   0.722   0.723   0.734   0.752   0.766   0.793
 64 A    61 B    65 A    62 B    63 B    66 A    64 B    67 A                  
  0.807   0.818   0.830   0.844   0.886   0.925   0.929   0.947
 65 B    66 B    68 A    67 B    69 A    68 B    70 A    71 A                  
  0.954   0.958   0.971   0.979   0.986   1.002   1.011   1.012
 72 A    69 B    70 B    71 B    73 A    72 B    74 A    73 B                  
  1.026   1.035   1.081   1.085   1.111   1.117   1.136   1.171
 75 A    76 A    77 A    74 B    78 A    75 B    76 B    79 A                  
  1.189   1.191   1.209   1.250   1.256   1.331   1.337   1.355
 80 A    77 B    78 B    81 A    79 B    80 B    82 A    81 B                  
  1.356   1.370   1.376   1.452   1.501   1.531   1.557   1.599
 83 A    82 B    84 A    83 B    85 A    84 B    86 A    85 B                  
  1.643   1.694   1.712   1.782   1.859   1.874   1.896   1.921
 86 B    87 A    87 B    88 A    89 A    90 A    88 B    89 B                  
  1.927   1.979   1.994   2.019   2.025   2.077   2.094   2.125
 91 A    92 A    90 B    91 B    93 A    94 A    92 B    95 A                  
  2.130   2.172   2.186   2.250   2.252   2.294   2.296   2.362
 93 B    96 A    94 B    97 A    95 B    96 B    98 A    97 B                  
  2.368   2.418   2.456   2.476   2.480   2.503   2.512   2.536
 99 A    98 B   100 A   101 A    99 B   102 A   100 B   101 B                  
  2.550   2.573   2.579   2.600   2.691   2.695   2.729   2.763
103 A   104 A   105 A   102 B   103 B   104 B   106 A   107 A                  
  2.803   2.857   2.960   2.990   3.146   3.225   3.274   3.278
105 B   108 A   106 B   107 B   109 A   108 B   110 A   109 B                  
  3.399   3.440   3.715   3.765   3.942   4.025   4.227   4.300
111 A   110 B   112 A   111 B   113 A   112 B   114 A   115 A                  
  4.311   4.336   4.402   4.554   4.649   4.742
113 B   114 B   116 A   115 B   117 A   116 B                                  
 --------------------------------------------------------------
 
          Ground-State Mulliken Net Atomic Charges

     Atom                 Charge (a.u.)
  ----------------------------------------
      1 S                    -0.170678
      2 C                     0.036517
      3 C                    -0.420421
      4 C                     0.414862
      5 C                    -0.289886
      6 H                     0.110067
      7 C                    -0.289887
      8 S                    -0.170678
      9 C                     0.414862
     10 C                     0.036517
     11 C                    -0.420421
     12 H                     0.118953
     13 H                     0.200587
     14 H                     0.118953
     15 H                     0.200587
     16 H                     0.110067
  ----------------------------------------
  Sum of atomic charges =     0.000000

 -----------------------------------------------------------------
                    Cartesian Multipole Moments
 -----------------------------------------------------------------
    Charge (ESU x 10^10)
                 0.0000
    Dipole Moment (Debye)
         X       0.0000      Y       0.0000      Z      -1.0200
       Tot       1.0200
    Quadrupole Moments (Debye-Ang)
        XX     -60.9409     XY      -0.3920     YY     -78.7257
        XZ      -0.0000     YZ      -0.0000     ZZ     -67.6036
    Octopole Moments (Debye-Ang^2)
       XXX      -0.0000    XXY       0.0000    XYY      -0.0000
       YYY       0.0000    XXZ       5.3880    XYZ       2.6303
       YYZ       3.6215    XZZ      -0.0000    YZZ       0.0000
       ZZZ      -8.1058
    Hexadecapole Moments (Debye-Ang^3)
      XXXX   -1864.8063   XXXY      -3.7375   XXYY    -419.1639
      XYYY       1.7980   YYYY    -107.6485   XXXZ      -0.0000
      XXYZ      -0.0000   XYYZ      -0.0000   YYYZ      -0.0000
      XXZZ    -401.0244   XYZZ      -3.0919   YYZZ    -124.0442
      XZZZ      -0.0000   YZZZ      -0.0000   ZZZZ    -548.3180
 -----------------------------------------------------------------
 Calculating analytic gradient of the SCF energy
 Gradient of SCF Energy
            1           2           3           4           5           6
    1  -0.0018824  -0.0008380  -0.0002622   0.0000177   0.0018047   0.0000384
    2   0.0001305  -0.0006694   0.0004663   0.0012809  -0.0009284  -0.0001314
    3  -0.0007822  -0.0033840   0.0027953   0.0034510  -0.0037693   0.0012740
            7           8           9          10          11          12
    1  -0.0018047   0.0018824  -0.0000177   0.0008380   0.0002622   0.0010827
    2   0.0009284  -0.0001305  -0.0012809   0.0006694  -0.0004663  -0.0000804
    3  -0.0037693  -0.0007822   0.0034510  -0.0033840   0.0027953   0.0010296
           13          14          15          16
    1  -0.0013308  -0.0010827   0.0013308  -0.0000384
    2  -0.0002803   0.0000804   0.0002803   0.0001314
    3  -0.0006143   0.0010296  -0.0006143   0.0012740
 Max gradient component =       3.769E-03
 RMS gradient           =       1.618E-03
 Gradient time:  CPU 1.94 s  wall 1.92 s
 Geometry Optimization Parameters
   NAtoms,    NIC,     NZ,  NCons,   NDum,   NFix, NCnnct, MaxDiis
       16     111       0       1       0       0       0       0


** CONSTRAINED OPTIMIZATION IN DELOCALIZED INTERNAL COORDINATES **
   Searching for a Minimum

   Optimization Cycle:   1

                       Coordinates (Angstroms)
     ATOM                X               Y               Z
      1  S         1.6230248044    0.1233971806    1.1449499655
      2  C         3.1381383030    0.0158834754    0.3114259325
      3  C         2.9625031972   -0.0943646828   -1.0385422531
      4  C         1.5918241533   -0.1084783349   -1.4188642474
      5  C         0.7255998846   -0.0070329587   -0.3553572496
      6  H         1.2532513227   -0.2152932508   -2.4413053198
      7  C        -0.7255998846    0.0070329587   -0.3553572496
      8  S        -1.6230248044   -0.1233971806    1.1449499655
      9  C        -1.5918241533    0.1084783349   -1.4188642474
     10  C        -3.1381383030   -0.0158834754    0.3114259325
     11  C        -2.9625031972    0.0943646828   -1.0385422531
     12  H        -3.7823237278    0.1736149867   -1.7402028473
     13  H         4.0610020736    0.0411264168    0.8703355085
     14  H         3.7823237278   -0.1736149867   -1.7402028473
     15  H        -4.0610020736   -0.0411264168    0.8703355085
     16  H        -1.2532513227    0.2152932508   -2.4413053198
   Point Group: c2    Number of degrees of freedom:    22


   Energy is  -1104.838715084

              Constraints and their Current Values
                                        Value     Constraint
   Dihedral:        4   5   7   9      -10.000      -10.000

 Attempting to Generate Delocalized Internal Coordinates

 21 Hessian modes will be used to form the next step
  Hessian Eigenvalues:
     0.045000    0.045000    0.045000    0.045002    0.045004    0.045013
     0.159937    0.159990    0.160000    0.221280    0.237833    0.249997
     0.296078    0.314672    0.357149    0.357543    0.360899    0.380793
     0.408411    0.470750    0.505998

 Minimum Search - Taking Simple RFO Step
 Searching for Lamda that Minimizes Along All modes
 Value Taken    Lamda =  -0.00081548
 Step Taken.  Stepsize is  0.060536

                             Maximum     Tolerance    Cnvgd?
         Gradient           0.008427      0.000300      NO
         Displacement       0.037118      0.001200      NO
         Energy change     *********      0.000001      NO


 New Cartesian Coordinates Obtained by Inverse Iteration

 Displacement from previous Coordinates is:  0.273776
 ----------------------------------------------------------------
             Standard Nuclear Orientation (Angstroms)
    I     Atom           X                Y                Z
 ----------------------------------------------------------------
    1      S       1.6628701358     0.1230418808     1.1623884396
    2      C       3.1634319841     0.0207178667     0.2982592172
    3      C       2.9579908290    -0.0982042776    -1.0511127481
    4      C       1.5769560248    -0.1160706405    -1.4027759687
    5      C       0.7280183939    -0.0098220058    -0.3193624328
    6      H       1.2196268256    -0.2231739538    -2.4206772945
    7      C      -0.7280183939     0.0098220058    -0.3193624328
    8      S      -1.6628701358    -0.1230418808     1.1623884396
    9      C      -1.5769560248     0.1160706405    -1.4027759687
   10      C      -3.1634319841    -0.0207178667     0.2982592172
   11      C      -2.9579908290     0.0982042776    -1.0511127481
   12      H      -3.7639883600     0.1767851538    -1.7720051882
   13      H       4.1000154732     0.0539681064     0.8377254648
   14      H       3.7639883600    -0.1767851538    -1.7720051882
   15      H      -4.1000154732    -0.0539681064     0.8377254648
   16      H      -1.2196268256     0.2231739538    -2.4206772945
 ----------------------------------------------------------------
 Molecular Point Group                 C2    NOp =  2
 Largest Abelian Subgroup              C2    NOp =  2
 Nuclear Repulsion Energy =   631.4800808805 hartrees
 There are       43 alpha and       43 beta electrons
 Applying Cartesian multipole field
    Component          Value
    ---------          -----
     (2,0,0)        1.00000E-11
     (0,2,0)        2.00000E-11
     (0,0,2)       -3.00000E-11
 Nucleus-field energy     =     0.0000000040 hartrees
 Requested basis set is 6-31++G(d,p)
 There are 76 shells and 234 basis functions
 A cutoff of  1.0D-11 yielded   2491 shell pairs
 There are     24615 function pairs
 Smallest overlap matrix eigenvalue = 7.14E-07

 Q-Chem warning in module /project/projectdirs/jcesr/qchem/qc44/cnl_qc441/compile/cori/qc_src/stvman/mkSTV.C, line 257:

 Overlap eigenvalue is smaller than square root of threshold

 Linear dependence detected in AO basis
 Number of orthogonalized atomic orbitals = 233
 Maximum deviation from orthogonality = 6.480E-11
 Guess MOs from SCF MO coefficient file
 Reading MOs from coefficient file
 Reading MOs from coefficient file
 A restricted hybrid HF-DFT SCF calculation will be
 performed using Pulay DIIS extrapolation
 Exchange:     0.2000 Hartree-Fock + 0.0800 Slater + 0.7200 B88
 Correlation:  0.1900 VWN1RPA + 0.8100 LYP
 Using SG-1 standard quadrature grid
 SCF converges when DIIS error is below 1.0E-08
 Geometry optimization detected.  Setting ReadMinima to 0
 Setting SaveMinima to 0
 ---------------------------------------
  Cycle       Energy         DIIS Error
 ---------------------------------------
    1   -1104.7894376890      1.17E-03
    2   -1104.8380264895      3.64E-04
    3   -1104.8348460134      7.39E-04
    4   -1104.8391129970      5.07E-05
    5   -1104.8391287989      1.99E-05
    6   -1104.8391313725      7.01E-06
    7   -1104.8391317590      2.09E-06
    8   -1104.8391317867      5.98E-07
    9   -1104.8391317885      1.23E-07
   10   -1104.8391317906      3.55E-08
   11   -1104.8391317908      1.33E-08
   12   -1104.8391317921      2.08E-09 Convergence criterion met
 ---------------------------------------
 SCF time:  CPU 6.33 s  wall 5.59 s
 SCF   energy in the final basis set = -1104.8391317921
 Total energy in the final basis set = -1104.8391317921
 
 --------------------------------------------------------------
             Orbital Energies (a.u.) and Symmetries
 --------------------------------------------------------------
 
 Alpha MOs, Restricted
 -- Occupied --                  
-88.920 -88.920 -10.240 -10.240 -10.225 -10.225 -10.205 -10.205
  1 B     1 A     2 A     2 B     3 B     3 A     4 B     4 A                  
-10.204 -10.204  -7.979  -7.979  -5.944  -5.944  -5.940  -5.940
  5 B     5 A     6 B     6 A     7 B     7 A     8 B     8 A                  
 -5.937  -5.937  -0.900  -0.878  -0.772  -0.750  -0.737  -0.705
  9 A     9 B    10 A    10 B    11 A    12 A    11 B    12 B                  
 -0.604  -0.580  -0.554  -0.533  -0.528  -0.477  -0.422  -0.419
 13 A    14 A    13 B    14 B    15 A    15 B    16 A    17 A                  
 -0.407  -0.403  -0.402  -0.377  -0.374  -0.360  -0.343  -0.284
 16 B    17 B    18 A    18 B    19 A    20 A    19 B    20 B                  
 -0.265  -0.258  -0.212
 21 B    21 A    22 A                                                          
 -- Virtual --                   
 -0.059  -0.014  -0.003  -0.000   0.005   0.014   0.019   0.026
 22 B    23 A    24 A    23 B    25 A    26 A    24 B    25 B                  
  0.027   0.036   0.040   0.045   0.051   0.061   0.066   0.070
 27 A    28 A    26 B    29 A    27 B    30 A    28 B    29 B                  
  0.078   0.084   0.086   0.093   0.101   0.102   0.107   0.113
 31 A    30 B    31 B    32 A    33 A    32 B    34 A    35 A                  
  0.115   0.123   0.127   0.128   0.137   0.138   0.144   0.146
 33 B    36 A    34 B    37 A    38 A    35 B    39 A    36 B                  
  0.148   0.155   0.157   0.160   0.166   0.178   0.184   0.189
 40 A    37 B    41 A    38 B    39 B    40 B    42 A    43 A                  
  0.190   0.193   0.196   0.206   0.210   0.216   0.229   0.240
 41 B    42 B    44 A    43 B    45 A    46 A    44 B    47 A                  
  0.259   0.260   0.266   0.273   0.284   0.295   0.302   0.309
 45 B    48 A    46 B    49 A    47 B    48 B    50 A    49 B                  
  0.312   0.314   0.336   0.346   0.363   0.380   0.383   0.426
 51 A    52 A    50 B    53 A    51 B    54 A    52 B    53 B                  
  0.443   0.466   0.491   0.535   0.549   0.562   0.566   0.574
 55 A    56 A    54 B    57 A    55 B    56 B    58 A    57 B                  
  0.595   0.625   0.646   0.653   0.656   0.667   0.672   0.673
 59 A    60 A    58 B    61 A    59 B    62 A    60 B    63 A                  
  0.702   0.718   0.721   0.722   0.732   0.753   0.764   0.791
 64 A    61 B    62 B    65 A    63 B    66 A    64 B    67 A                  
  0.805   0.815   0.831   0.841   0.884   0.923   0.929   0.947
 65 B    66 B    68 A    67 B    69 A    68 B    70 A    71 A                  
  0.954   0.956   0.970   0.980   0.985   1.009   1.009   1.012
 72 A    69 B    70 B    71 B    73 A    74 A    72 B    73 B                  
  1.024   1.031   1.079   1.083   1.107   1.114   1.135   1.169
 75 A    76 A    77 A    74 B    78 A    75 B    76 B    79 A                  
  1.187   1.188   1.207   1.246   1.257   1.334   1.339   1.352
 80 A    77 B    78 B    81 A    79 B    80 B    82 A    81 B                  
  1.355   1.369   1.372   1.445   1.496   1.529   1.551   1.595
 83 A    82 B    84 A    83 B    85 A    84 B    86 A    85 B                  
  1.642   1.693   1.711   1.780   1.856   1.872   1.893   1.915
 86 B    87 A    87 B    88 A    89 A    90 A    88 B    89 B                  
  1.922   1.978   1.992   2.010   2.018   2.072   2.089   2.125
 91 A    92 A    90 B    91 B    93 A    94 A    92 B    95 A                  
  2.127   2.168   2.181   2.245   2.245   2.291   2.292   2.360
 93 B    96 A    94 B    95 B    97 A    96 B    98 A    97 B                  
  2.366   2.415   2.454   2.475   2.476   2.499   2.508   2.532
 99 A    98 B   100 A   101 A    99 B   102 A   100 B   101 B                  
  2.543   2.566   2.575   2.596   2.685   2.689   2.721   2.755
103 A   104 A   105 A   102 B   103 B   104 B   106 A   107 A                  
  2.801   2.853   2.951   2.977   3.139   3.215   3.270   3.272
105 B   108 A   106 B   107 B   109 A   108 B   110 A   109 B                  
  3.394   3.434   3.706   3.756   3.941   4.021   4.227   4.297
111 A   110 B   112 A   111 B   113 A   112 B   114 A   115 A                  
  4.309   4.333   4.399   4.547   4.644   4.733
113 B   114 B   116 A   115 B   117 A   116 B                                  
 
 Beta MOs, Restricted
 -- Occupied --                  
-88.920 -88.920 -10.240 -10.240 -10.225 -10.225 -10.205 -10.205
  1 B     1 A     2 A     2 B     3 B     3 A     4 B     4 A                  
-10.204 -10.204  -7.979  -7.979  -5.944  -5.944  -5.940  -5.940
  5 B     5 A     6 B     6 A     7 B     7 A     8 B     8 A                  
 -5.937  -5.937  -0.900  -0.878  -0.772  -0.750  -0.737  -0.705
  9 A     9 B    10 A    10 B    11 A    12 A    11 B    12 B                  
 -0.604  -0.580  -0.554  -0.533  -0.528  -0.477  -0.422  -0.419
 13 A    14 A    13 B    14 B    15 A    15 B    16 A    17 A                  
 -0.407  -0.403  -0.402  -0.377  -0.374  -0.360  -0.343  -0.284
 16 B    17 B    18 A    18 B    19 A    20 A    19 B    20 B                  
 -0.265  -0.258  -0.212
 21 B    21 A    22 A                                                          
 -- Virtual --                   
 -0.059  -0.014  -0.003  -0.000   0.005   0.014   0.019   0.026
 22 B    23 A    24 A    23 B    25 A    26 A    24 B    25 B                  
  0.027   0.036   0.040   0.045   0.051   0.061   0.066   0.070
 27 A    28 A    26 B    29 A    27 B    30 A    28 B    29 B                  
  0.078   0.084   0.086   0.093   0.101   0.102   0.107   0.113
 31 A    30 B    31 B    32 A    33 A    32 B    34 A    35 A                  
  0.115   0.123   0.127   0.128   0.137   0.138   0.144   0.146
 33 B    36 A    34 B    37 A    38 A    35 B    39 A    36 B                  
  0.148   0.155   0.157   0.160   0.166   0.178   0.184   0.189
 40 A    37 B    41 A    38 B    39 B    40 B    42 A    43 A                  
  0.190   0.193   0.196   0.206   0.210   0.216   0.229   0.240
 41 B    42 B    44 A    43 B    45 A    46 A    44 B    47 A                  
  0.259   0.260   0.266   0.273   0.284   0.295   0.302   0.309
 45 B    48 A    46 B    49 A    47 B    48 B    50 A    49 B                  
  0.312   0.314   0.336   0.346   0.363   0.380   0.383   0.426
 51 A    52 A    50 B    53 A    51 B    54 A    52 B    53 B                  
  0.443   0.466   0.491   0.535   0.549   0.562   0.566   0.574
 55 A    56 A    54 B    57 A    55 B    56 B    58 A    57 B                  
  0.595   0.625   0.646   0.653   0.656   0.667   0.672   0.673
 59 A    60 A    58 B    61 A    59 B    62 A    60 B    63 A                  
  0.702   0.718   0.721   0.722   0.732   0.753   0.764   0.791
 64 A    61 B    62 B    65 A    63 B    66 A    64 B    67 A                  
  0.805   0.815   0.831   0.841   0.884   0.923   0.929   0.947
 65 B    66 B    68 A    67 B    69 A    68 B    70 A    71 A                  
  0.954   0.956   0.970   0.980   0.985   1.009   1.009   1.012
 72 A    69 B    70 B    71 B    73 A    74 A    72 B    73 B                  
  1.024   1.031   1.079   1.083   1.107   1.114   1.135   1.169
 75 A    76 A    77 A    74 B    78 A    75 B    76 B    79 A                  
  1.187   1.188   1.207   1.246   1.257   1.334   1.339   1.352
 80 A    77 B    78 B    81 A    79 B    80 B    82 A    81 B                  
  1.355   1.369   1.372   1.445   1.496   1.529   1.551   1.595
 83 A    82 B    84 A    83 B    85 A    84 B    86 A    85 B                  
  1.642   1.693   1.711   1.780   1.856   1.872   1.893   1.915
 86 B    87 A    87 B    88 A    89 A    90 A    88 B    89 B                  
  1.922   1.978   1.992   2.010   2.018   2.072   2.089   2.125
 91 A    92 A    90 B    91 B    93 A    94 A    92 B    95 A                  
  2.127   2.168   2.181   2.245   2.245   2.291   2.292   2.360
 93 B    96 A    94 B    95 B    97 A    96 B    98 A    97 B                  
  2.366   2.415   2.454   2.475   2.476   2.499   2.508   2.532
 99 A    98 B   100 A   101 A    99 B   102 A   100 B   101 B                  
  2.543   2.566   2.575   2.596   2.685   2.689   2.721   2.755
103 A   104 A   105 A   102 B   103 B   104 B   106 A   107 A                  
  2.801   2.853   2.951   2.977   3.139   3.215   3.270   3.272
105 B   108 A   106 B   107 B   109 A   108 B   110 A   109 B                  
  3.394   3.434   3.706   3.756   3.941   4.021   4.227   4.297
111 A   110 B   112 A   111 B   113 A   112 B   114 A   115 A                  
  4.309   4.333   4.399   4.547   4.644   4.733
113 B   114 B   116 A   115 B   117 A   116 B                                  
 --------------------------------------------------------------
 
          Ground-State Mulliken Net Atomic Charges

     Atom                 Charge (a.u.)
  ----------------------------------------
      1 S                    -0.147655
      2 C                     0.025209
      3 C                    -0.412420
      4 C                     0.372450
      5 C                    -0.265789
      6 H                     0.108230
      7 C                    -0.265789
      8 S                    -0.147655
      9 C                     0.372450
     10 C                     0.025210
     11 C                    -0.412420
     12 H                     0.119416
     13 H                     0.200559
     14 H                     0.119416
     15 H                     0.200559
     16 H                     0.108230
  ----------------------------------------
  Sum of atomic charges =    -0.000000

 -----------------------------------------------------------------
                    Cartesian Multipole Moments
 -----------------------------------------------------------------
    Charge (ESU x 10^10)
                -0.0000
    Dipole Moment (Debye)
         X       0.0000      Y      -0.0000      Z      -1.0446
       Tot       1.0446
    Quadrupole Moments (Debye-Ang)
        XX     -60.8247     XY      -0.2967     YY     -78.8438
        XZ      -0.0000     YZ      -0.0000     ZZ     -67.7260
    Octopole Moments (Debye-Ang^2)
       XXX      -0.0000    XXY       0.0000    XYY      -0.0000
       YYY       0.0000    XXZ       4.6618    XYZ       2.7442
       YYZ       2.9770    XZZ      -0.0000    YZZ      -0.0000
       ZZZ     -10.3299
    Hexadecapole Moments (Debye-Ang^3)
      XXXX   -1883.5949   XXXY      -1.8857   XXYY    -424.6042
      XYYY       1.5765   YYYY    -108.2312   XXXZ      -0.0000
      XXYZ      -0.0000   XYYZ       0.0000   YYYZ      -0.0000
      XXZZ    -406.5811   XYZZ      -3.1706   YYZZ    -124.6481
      XZZZ      -0.0000   YZZZ      -0.0000   ZZZZ    -552.2948
 -----------------------------------------------------------------
 Calculating analytic gradient of the SCF energy
 Gradient of SCF Energy
            1           2           3           4           5           6
    1   0.0002464   0.0004417   0.0006321  -0.0002266   0.0002936  -0.0002183
    2  -0.0000353  -0.0000566  -0.0001038   0.0008527  -0.0004919  -0.0001119
    3   0.0004109   0.0000581   0.0003562   0.0006111  -0.0013141  -0.0000990
            7           8           9          10          11          12
    1  -0.0002936  -0.0002464   0.0002266  -0.0004417  -0.0006321  -0.0000865
    2   0.0004919   0.0000353  -0.0008527   0.0000566   0.0001038   0.0000007
    3  -0.0013141   0.0004109   0.0006111   0.0000581   0.0003562  -0.0000279
           13          14          15          16
    1   0.0001473   0.0000865  -0.0001473   0.0002183
    2  -0.0000628  -0.0000007   0.0000628   0.0001119
    3   0.0000047  -0.0000279   0.0000047  -0.0000990
 Max gradient component =       1.314E-03
 RMS gradient           =       4.223E-04
 Gradient time:  CPU 1.90 s  wall 1.92 s
 Geometry Optimization Parameters
   NAtoms,    NIC,     NZ,  NCons,   NDum,   NFix, NCnnct, MaxDiis
       16     111       0       1       0       0       0       0

 Cartesian Hessian Update
 Hessian Updated using BFGS Update


** CONSTRAINED OPTIMIZATION IN DELOCALIZED INTERNAL COORDINATES **
   Searching for a Minimum

   Optimization Cycle:   2

                       Coordinates (Angstroms)
     ATOM                X               Y               Z
      1  S         1.6628701358    0.1230418808    1.1623884396
      2  C         3.1634319841    0.0207178667    0.2982592172
      3  C         2.9579908290   -0.0982042776   -1.0511127481
      4  C         1.5769560248   -0.1160706405   -1.4027759687
      5  C         0.7280183939   -0.0098220058   -0.3193624328
      6  H         1.2196268256   -0.2231739538   -2.4206772945
      7  C        -0.7280183939    0.0098220058   -0.3193624328
      8  S        -1.6628701358   -0.1230418808    1.1623884396
      9  C        -1.5769560248    0.1160706405   -1.4027759687
     10  C        -3.1634319841   -0.0207178667    0.2982592172
     11  C        -2.9579908290    0.0982042776   -1.0511127481
     12  H        -3.7639883600    0.1767851538   -1.7720051882
     13  H         4.1000154732    0.0539681064    0.8377254648
     14  H         3.7639883600   -0.1767851538   -1.7720051882
     15  H        -4.1000154732   -0.0539681064    0.8377254648
     16  H        -1.2196268256    0.2231739538   -2.4206772945
   Point Group: c2    Number of degrees of freedom:    22


   Energy is  -1104.839131792

              Constraints and their Current Values
                                        Value     Constraint
   Dihedral:        4   5   7   9      -10.000      -10.000
 Hessian Updated using BFGS Update

 21 Hessian modes will be used to form the next step
  Hessian Eigenvalues:
     0.042681    0.045000    0.045001    0.045002    0.045010    0.045120
     0.158972    0.159984    0.160085    0.212625    0.221596    0.249471
     0.304215    0.315355    0.357296    0.358190    0.361477    0.390032
     0.436183    0.470321    0.510475

 Minimum Search - Taking Simple RFO Step
 Searching for Lamda that Minimizes Along All modes
 Value Taken    Lamda =  -0.00004741
 Step Taken.  Stepsize is  0.020909

                             Maximum     Tolerance    Cnvgd?
         Gradient           0.002013      0.000300      NO
         Displacement       0.011896      0.001200      NO
         Energy change     -0.000417      0.000001      NO


 New Cartesian Coordinates Obtained by Inverse Iteration

 Displacement from previous Coordinates is:  0.067475
 ----------------------------------------------------------------
             Standard Nuclear Orientation (Angstroms)
    I     Atom           X                Y                Z
 ----------------------------------------------------------------
    1      S       1.6663525349     0.1238571943     1.1663713617
    2      C       3.1622206824     0.0226711137     0.2945102391
    3      C       2.9517190839    -0.0997808029    -1.0541033964
    4      C       1.5702628444    -0.1206922815    -1.3992871893
    5      C       0.7271102478    -0.0117864961    -0.3108547683
    6      H       1.2092132050    -0.2282951636    -2.4156381387
    7      C      -0.7271102478     0.0117864961    -0.3108547683
    8      S      -1.6663525349    -0.1238571943     1.1663713617
    9      C      -1.5702628444     0.1206922815    -1.3992871893
   10      C      -3.1622206824    -0.0226711137     0.2945102391
   11      C      -2.9517190839     0.0997808029    -1.0541033964
   12      H      -3.7546454238     0.1780495514    -1.7784419447
   13      H       4.1009286971     0.0595005825     0.8298833259
   14      H       3.7546454238    -0.1780495514    -1.7784419447
   15      H      -4.1009286971    -0.0595005825     0.8298833259
   16      H      -1.2092132050     0.2282951636    -2.4156381387
 ----------------------------------------------------------------
 Molecular Point Group                 C2    NOp =  2
 Largest Abelian Subgroup              C2    NOp =  2
 Nuclear Repulsion Energy =   631.6294567597 hartrees
 There are       43 alpha and       43 beta electrons
 Applying Cartesian multipole field
    Component          Value
    ---------          -----
     (2,0,0)        1.00000E-11
     (0,2,0)        2.00000E-11
     (0,0,2)       -3.00000E-11
 Nucleus-field energy     =     0.0000000039 hartrees
 Requested basis set is 6-31++G(d,p)
 There are 76 shells and 234 basis functions
 A cutoff of  1.0D-11 yielded   2495 shell pairs
 There are     24651 function pairs
 Smallest overlap matrix eigenvalue = 6.96E-07

 Q-Chem warning in module /project/projectdirs/jcesr/qchem/qc44/cnl_qc441/compile/cori/qc_src/stvman/mkSTV.C, line 257:

 Overlap eigenvalue is smaller than square root of threshold

 Linear dependence detected in AO basis
 Number of orthogonalized atomic orbitals = 233
 Maximum deviation from orthogonality = 4.714E-11
 Guess MOs from SCF MO coefficient file
 Reading MOs from coefficient file
 Reading MOs from coefficient file
 A restricted hybrid HF-DFT SCF calculation will be
 performed using Pulay DIIS extrapolation
 Exchange:     0.2000 Hartree-Fock + 0.0800 Slater + 0.7200 B88
 Correlation:  0.1900 VWN1RPA + 0.8100 LYP
 Using SG-1 standard quadrature grid
 SCF converges when DIIS error is below 1.0E-08
 Geometry optimization detected.  Setting ReadMinima to 0
 Setting SaveMinima to 0
 ---------------------------------------
  Cycle       Energy         DIIS Error
 ---------------------------------------
    1   -1104.8366232837      3.36E-04
    2   -1104.8391142593      7.31E-05
    3   -1104.8389776577      1.52E-04
    4   -1104.8391562612      1.31E-05
    5   -1104.8391574102      4.87E-06
    6   -1104.8391575596      1.82E-06
    7   -1104.8391575849      4.88E-07
    8   -1104.8391575886      1.60E-07
    9   -1104.8391575888      2.73E-08
   10   -1104.8391575895      7.16E-09 Convergence criterion met
 ---------------------------------------
 SCF time:  CPU 5.36 s  wall 4.69 s
 SCF   energy in the final basis set = -1104.8391575895
 Total energy in the final basis set = -1104.8391575895
 
 --------------------------------------------------------------
             Orbital Energies (a.u.) and Symmetries
 --------------------------------------------------------------
 
 Alpha MOs, Restricted
 -- Occupied --                  
-88.920 -88.920 -10.240 -10.239 -10.225 -10.225 -10.205 -10.205
  1 B     1 A     2 A     2 B     3 B     3 A     4 B     4 A                  
-10.203 -10.203  -7.980  -7.980  -5.944  -5.944  -5.940  -5.940
  5 B     5 A     6 B     6 A     7 B     7 A     8 B     8 A                  
 -5.937  -5.937  -0.900  -0.878  -0.772  -0.750  -0.737  -0.705
  9 A     9 B    10 A    10 B    11 A    12 A    11 B    12 B                  
 -0.604  -0.580  -0.553  -0.533  -0.528  -0.477  -0.422  -0.419
 13 A    14 A    13 B    14 B    15 A    15 B    16 A    17 A                  
 -0.408  -0.403  -0.402  -0.377  -0.374  -0.360  -0.343  -0.283
 16 B    17 B    18 A    18 B    19 A    20 A    19 B    20 B                  
 -0.266  -0.258  -0.211
 21 B    21 A    22 A                                                          
 -- Virtual --                   
 -0.059  -0.014  -0.003  -0.000   0.005   0.014   0.019   0.026
 22 B    23 A    24 A    23 B    25 A    26 A    24 B    25 B                  
  0.026   0.036   0.040   0.045   0.051   0.061   0.066   0.070
 27 A    28 A    26 B    29 A    27 B    30 A    28 B    29 B                  
  0.078   0.084   0.086   0.094   0.101   0.102   0.107   0.113
 31 A    30 B    31 B    32 A    33 A    32 B    34 A    35 A                  
  0.115   0.123   0.127   0.128   0.138   0.138   0.144   0.145
 33 B    36 A    34 B    37 A    38 A    35 B    39 A    36 B                  
  0.148   0.155   0.157   0.160   0.166   0.178   0.184   0.189
 40 A    37 B    41 A    38 B    39 B    40 B    42 A    43 A                  
  0.190   0.193   0.196   0.206   0.210   0.216   0.229   0.240
 41 B    42 B    44 A    43 B    45 A    46 A    44 B    47 A                  
  0.259   0.260   0.266   0.273   0.283   0.294   0.302   0.310
 45 B    48 A    46 B    49 A    47 B    48 B    50 A    49 B                  
  0.312   0.314   0.336   0.345   0.362   0.380   0.384   0.426
 51 A    52 A    50 B    53 A    51 B    54 A    52 B    53 B                  
  0.444   0.465   0.492   0.534   0.548   0.562   0.566   0.574
 55 A    56 A    54 B    57 A    55 B    56 B    58 A    57 B                  
  0.595   0.625   0.647   0.653   0.657   0.668   0.671   0.672
 59 A    60 A    58 B    61 A    59 B    62 A    60 B    63 A                  
  0.703   0.718   0.721   0.722   0.733   0.754   0.764   0.791
 64 A    61 B    62 B    65 A    63 B    66 A    64 B    67 A                  
  0.804   0.815   0.831   0.842   0.884   0.923   0.929   0.947
 65 B    66 B    68 A    67 B    69 A    68 B    70 A    71 A                  
  0.954   0.956   0.970   0.980   0.986   1.008   1.011   1.012
 72 A    69 B    70 B    71 B    73 A    74 A    72 B    73 B                  
  1.025   1.031   1.079   1.084   1.107   1.114   1.136   1.169
 75 A    76 A    77 A    74 B    78 A    75 B    76 B    79 A                  
  1.188   1.188   1.207   1.247   1.258   1.335   1.340   1.352
 80 A    77 B    78 B    81 A    79 B    80 B    82 A    81 B                  
  1.355   1.369   1.371   1.444   1.496   1.529   1.551   1.594
 83 A    82 B    84 A    83 B    85 A    84 B    86 A    85 B                  
  1.643   1.693   1.711   1.782   1.856   1.873   1.893   1.915
 86 B    87 A    87 B    88 A    89 A    90 A    88 B    89 B                  
  1.923   1.979   1.993   2.011   2.019   2.073   2.089   2.126
 91 A    92 A    90 B    91 B    93 A    94 A    92 B    93 B                  
  2.127   2.169   2.182   2.245   2.245   2.293   2.294   2.360
 95 A    96 A    94 B    95 B    97 A    96 B    98 A    97 B                  
  2.366   2.416   2.454   2.476   2.476   2.499   2.508   2.533
 99 A    98 B   100 A    99 B   101 A   102 A   100 B   101 B                  
  2.544   2.566   2.575   2.596   2.684   2.689   2.722   2.755
103 A   104 A   105 A   102 B   103 B   104 B   106 A   107 A                  
  2.803   2.855   2.950   2.976   3.140   3.216   3.270   3.272
105 B   108 A   106 B   107 B   109 A   108 B   110 A   109 B                  
  3.394   3.434   3.707   3.757   3.942   4.021   4.228   4.298
111 A   110 B   112 A   111 B   113 A   112 B   114 A   115 A                  
  4.307   4.333   4.399   4.547   4.645   4.733
113 B   114 B   116 A   115 B   117 A   116 B                                  
 
 Beta MOs, Restricted
 -- Occupied --                  
-88.920 -88.920 -10.240 -10.239 -10.225 -10.225 -10.205 -10.205
  1 B     1 A     2 A     2 B     3 B     3 A     4 B     4 A                  
-10.203 -10.203  -7.980  -7.980  -5.944  -5.944  -5.940  -5.940
  5 B     5 A     6 B     6 A     7 B     7 A     8 B     8 A                  
 -5.937  -5.937  -0.900  -0.878  -0.772  -0.750  -0.737  -0.705
  9 A     9 B    10 A    10 B    11 A    12 A    11 B    12 B                  
 -0.604  -0.580  -0.553  -0.533  -0.528  -0.477  -0.422  -0.419
 13 A    14 A    13 B    14 B    15 A    15 B    16 A    17 A                  
 -0.408  -0.403  -0.402  -0.377  -0.374  -0.360  -0.343  -0.283
 16 B    17 B    18 A    18 B    19 A    20 A    19 B    20 B                  
 -0.266  -0.258  -0.211
 21 B    21 A    22 A                                                          
 -- Virtual --                   
 -0.059  -0.014  -0.003  -0.000   0.005   0.014   0.019   0.026
 22 B    23 A    24 A    23 B    25 A    26 A    24 B    25 B                  
  0.026   0.036   0.040   0.045   0.051   0.061   0.066   0.070
 27 A    28 A    26 B    29 A    27 B    30 A    28 B    29 B                  
  0.078   0.084   0.086   0.094   0.101   0.102   0.107   0.113
 31 A    30 B    31 B    32 A    33 A    32 B    34 A    35 A                  
  0.115   0.123   0.127   0.128   0.138   0.138   0.144   0.145
 33 B    36 A    34 B    37 A    38 A    35 B    39 A    36 B                  
  0.148   0.155   0.157   0.160   0.166   0.178   0.184   0.189
 40 A    37 B    41 A    38 B    39 B    40 B    42 A    43 A                  
  0.190   0.193   0.196   0.206   0.210   0.216   0.229   0.240
 41 B    42 B    44 A    43 B    45 A    46 A    44 B    47 A                  
  0.259   0.260   0.266   0.273   0.283   0.294   0.302   0.310
 45 B    48 A    46 B    49 A    47 B    48 B    50 A    49 B                  
  0.312   0.314   0.336   0.345   0.362   0.380   0.384   0.426
 51 A    52 A    50 B    53 A    51 B    54 A    52 B    53 B                  
  0.444   0.465   0.492   0.534   0.548   0.562   0.566   0.574
 55 A    56 A    54 B    57 A    55 B    56 B    58 A    57 B                  
  0.595   0.625   0.647   0.653   0.657   0.668   0.671   0.672
 59 A    60 A    58 B    61 A    59 B    62 A    60 B    63 A                  
  0.703   0.718   0.721   0.722   0.733   0.754   0.764   0.791
 64 A    61 B    62 B    65 A    63 B    66 A    64 B    67 A                  
  0.804   0.815   0.831   0.842   0.884   0.923   0.929   0.947
 65 B    66 B    68 A    67 B    69 A    68 B    70 A    71 A                  
  0.954   0.956   0.970   0.980   0.986   1.008   1.011   1.012
 72 A    69 B    70 B    71 B    73 A    74 A    72 B    73 B                  
  1.025   1.031   1.079   1.084   1.107   1.114   1.136   1.169
 75 A    76 A    77 A    74 B    78 A    75 B    76 B    79 A                  
  1.188   1.188   1.207   1.247   1.258   1.335   1.340   1.352
 80 A    77 B    78 B    81 A    79 B    80 B    82 A    81 B                  
  1.355   1.369   1.371   1.444   1.496   1.529   1.551   1.594
 83 A    82 B    84 A    83 B    85 A    84 B    86 A    85 B                  
  1.643   1.693   1.711   1.782   1.856   1.873   1.893   1.915
 86 B    87 A    87 B    88 A    89 A    90 A    88 B    89 B                  
  1.923   1.979   1.993   2.011   2.019   2.073   2.089   2.126
 91 A    92 A    90 B    91 B    93 A    94 A    92 B    93 B                  
  2.127   2.169   2.182   2.245   2.245   2.293   2.294   2.360
 95 A    96 A    94 B    95 B    97 A    96 B    98 A    97 B                  
  2.366   2.416   2.454   2.476   2.476   2.499   2.508   2.533
 99 A    98 B   100 A    99 B   101 A   102 A   100 B   101 B                  
  2.544   2.566   2.575   2.596   2.684   2.689   2.722   2.755
103 A   104 A   105 A   102 B   103 B   104 B   106 A   107 A                  
  2.803   2.855   2.950   2.976   3.140   3.216   3.270   3.272
105 B   108 A   106 B   107 B   109 A   108 B   110 A   109 B                  
  3.394   3.434   3.707   3.757   3.942   4.021   4.228   4.298
111 A   110 B   112 A   111 B   113 A   112 B   114 A   115 A                  
  4.307   4.333   4.399   4.547   4.645   4.733
113 B   114 B   116 A   115 B   117 A   116 B                                  
 --------------------------------------------------------------
 
          Ground-State Mulliken Net Atomic Charges

     Atom                 Charge (a.u.)
  ----------------------------------------
      1 S                    -0.142702
      2 C                     0.021111
      3 C                    -0.405542
      4 C                     0.362370
      5 C                    -0.262449
      6 H                     0.107700
      7 C                    -0.262449
      8 S                    -0.142702
      9 C                     0.362370
     10 C                     0.021111
     11 C                    -0.405542
     12 H                     0.119391
     13 H                     0.200122
     14 H                     0.119391
     15 H                     0.200122
     16 H                     0.107700
  ----------------------------------------
  Sum of atomic charges =    -0.000000

 -----------------------------------------------------------------
                    Cartesian Multipole Moments
 -----------------------------------------------------------------
    Charge (ESU x 10^10)
                -0.0000
    Dipole Moment (Debye)
         X       0.0000      Y      -0.0000      Z      -1.0429
       Tot       1.0429
    Quadrupole Moments (Debye-Ang)
        XX     -60.9120     XY      -0.2549     YY     -78.8313
        XZ      -0.0000     YZ      -0.0000     ZZ     -67.7049
    Octopole Moments (Debye-Ang^2)
       XXX      -0.0000    XXY      -0.0000    XYY      -0.0000
       YYY       0.0000    XXZ       4.4124    XYZ       2.7929
       YYZ       2.8272    XZZ      -0.0000    YZZ      -0.0000
       ZZZ     -10.7800
    Hexadecapole Moments (Debye-Ang^3)
      XXXX   -1882.3050   XXXY      -1.0402   XXYY    -424.0217
      XYYY       1.5836   YYYY    -108.3869   XXXZ       0.0000
      XXYZ      -0.0000   XYYZ      -0.0000   YYYZ      -0.0000
      XXZZ    -406.3608   XYZZ      -3.1456   YYZZ    -124.7089
      XZZZ       0.0000   YZZZ      -0.0000   ZZZZ    -552.8415
 -----------------------------------------------------------------
 Calculating analytic gradient of the SCF energy
 Gradient of SCF Energy
            1           2           3           4           5           6
    1   0.0000825  -0.0001861   0.0000969  -0.0000421  -0.0000041  -0.0000273
    2  -0.0001000  -0.0000068  -0.0001326   0.0005791  -0.0004979  -0.0000345
    3   0.0007158   0.0000101  -0.0001399   0.0000397  -0.0004028  -0.0001265
            7           8           9          10          11          12
    1   0.0000041  -0.0000825   0.0000421   0.0001861  -0.0000969  -0.0000161
    2   0.0004979   0.0001000  -0.0005791   0.0000068   0.0001326  -0.0000159
    3  -0.0004028   0.0007158   0.0000397   0.0000101  -0.0001399  -0.0001108
           13          14          15          16
    1   0.0000484   0.0000161  -0.0000484   0.0000273
    2   0.0000096   0.0000159  -0.0000096   0.0000345
    3   0.0000144  -0.0001108   0.0000144  -0.0001265
 Max gradient component =       7.158E-04
 RMS gradient           =       2.409E-04
 Gradient time:  CPU 1.90 s  wall 1.91 s
 Geometry Optimization Parameters
   NAtoms,    NIC,     NZ,  NCons,   NDum,   NFix, NCnnct, MaxDiis
       16     111       0       1       0       0       0       0

 Cartesian Hessian Update
 Hessian Updated using BFGS Update


** CONSTRAINED OPTIMIZATION IN DELOCALIZED INTERNAL COORDINATES **
   Searching for a Minimum

   Optimization Cycle:   3

                       Coordinates (Angstroms)
     ATOM                X               Y               Z
      1  S         1.6663525349    0.1238571943    1.1663713617
      2  C         3.1622206824    0.0226711137    0.2945102391
      3  C         2.9517190839   -0.0997808029   -1.0541033964
      4  C         1.5702628444   -0.1206922815   -1.3992871893
      5  C         0.7271102478   -0.0117864961   -0.3108547683
      6  H         1.2092132050   -0.2282951636   -2.4156381387
      7  C        -0.7271102478    0.0117864961   -0.3108547683
      8  S        -1.6663525349   -0.1238571943    1.1663713617
      9  C        -1.5702628444    0.1206922815   -1.3992871893
     10  C        -3.1622206824   -0.0226711137    0.2945102391
     11  C        -2.9517190839    0.0997808029   -1.0541033964
     12  H        -3.7546454238    0.1780495514   -1.7784419447
     13  H         4.1009286971    0.0595005825    0.8298833259
     14  H         3.7546454238   -0.1780495514   -1.7784419447
     15  H        -4.1009286971   -0.0595005825    0.8298833259
     16  H        -1.2092132050    0.2282951636   -2.4156381387
   Point Group: c2    Number of degrees of freedom:    22


   Energy is  -1104.839157589

              Constraints and their Current Values
                                        Value     Constraint
   Dihedral:        4   5   7   9      -10.000      -10.000
 Hessian Updated using BFGS Update

 21 Hessian modes will be used to form the next step
  Hessian Eigenvalues:
     0.032373    0.045000    0.045002    0.045005    0.045032    0.045756
     0.158706    0.160022    0.161014    0.209760    0.224744    0.283061
     0.296031    0.316384    0.357101    0.358340    0.361562    0.391257
     0.451161    0.483545    0.509751

 Minimum Search - Taking Simple RFO Step
 Searching for Lamda that Minimizes Along All modes
 Value Taken    Lamda =  -0.00000894
 Step Taken.  Stepsize is  0.013502

                             Maximum     Tolerance    Cnvgd?
         Gradient           0.000528      0.000300      NO
         Displacement       0.009997      0.001200      NO
         Energy change     -0.000026      0.000001      NO


 New Cartesian Coordinates Obtained by Inverse Iteration

 Displacement from previous Coordinates is:  0.023370
 ----------------------------------------------------------------
             Standard Nuclear Orientation (Angstroms)
    I     Atom           X                Y                Z
 ----------------------------------------------------------------
    1      S       1.6675113387     0.1260436155     1.1656327514
    2      C       3.1628651558     0.0241952112     0.2935166799
    3      C       2.9508741577    -0.1009398957    -1.0544506392
    4      C       1.5692360775    -0.1239113355    -1.3982565973
    5      C       0.7269467221    -0.0132520803    -0.3091047080
    6      H       1.2075075362    -0.2326810918    -2.4139906420
    7      C      -0.7269467221     0.0132520803    -0.3091047080
    8      S      -1.6675113387    -0.1260436155     1.1656327514
    9      C      -1.5692360775     0.1239113355    -1.3982565973
   10      C      -3.1628651558    -0.0241952112     0.2935166799
   11      C      -2.9508741577     0.1009398957    -1.0544506392
   12      H      -3.7533209919     0.1798677225    -1.7790587049
   13      H       4.1018204024     0.0629767809     0.8281513494
   14      H       3.7533209919    -0.1798677225    -1.7790587049
   15      H      -4.1018204024    -0.0629767809     0.8281513494
   16      H      -1.2075075362     0.2326810918    -2.4139906420
 ----------------------------------------------------------------
 Molecular Point Group                 C2    NOp =  2
 Largest Abelian Subgroup              C2    NOp =  2
 Nuclear Repulsion Energy =   631.7087910596 hartrees
 There are       43 alpha and       43 beta electrons
 Applying Cartesian multipole field
    Component          Value
    ---------          -----
     (2,0,0)        1.00000E-11
     (0,2,0)        2.00000E-11
     (0,0,2)       -3.00000E-11
 Nucleus-field energy     =     0.0000000040 hartrees
 Requested basis set is 6-31++G(d,p)
 There are 76 shells and 234 basis functions
 A cutoff of  1.0D-11 yielded   2495 shell pairs
 There are     24651 function pairs
 Smallest overlap matrix eigenvalue = 6.91E-07

 Q-Chem warning in module /project/projectdirs/jcesr/qchem/qc44/cnl_qc441/compile/cori/qc_src/stvman/mkSTV.C, line 257:

 Overlap eigenvalue is smaller than square root of threshold

 Linear dependence detected in AO basis
 Number of orthogonalized atomic orbitals = 233
 Maximum deviation from orthogonality = 7.249E-11
 Guess MOs from SCF MO coefficient file
 Reading MOs from coefficient file
 Reading MOs from coefficient file
 A restricted hybrid HF-DFT SCF calculation will be
 performed using Pulay DIIS extrapolation
 Exchange:     0.2000 Hartree-Fock + 0.0800 Slater + 0.7200 B88
 Correlation:  0.1900 VWN1RPA + 0.8100 LYP
 Using SG-1 standard quadrature grid
 SCF converges when DIIS error is below 1.0E-08
 Geometry optimization detected.  Setting ReadMinima to 0
 Setting SaveMinima to 0
 ---------------------------------------
  Cycle       Energy         DIIS Error
 ---------------------------------------
    1   -1104.8405226190      1.43E-04
    2   -1104.8391600974      2.00E-05
    3   -1104.8391521488      3.80E-05
    4   -1104.8391634084      5.30E-06
    5   -1104.8391636104      1.68E-06
    6   -1104.8391636240      9.24E-07
    7   -1104.8391636294      1.93E-07
    8   -1104.8391636312      7.57E-08
    9   -1104.8391636324      1.18E-08
   10   -1104.8391636335      5.07E-09 Convergence criterion met
 ---------------------------------------
 SCF time:  CPU 5.24 s  wall 4.61 s
 SCF   energy in the final basis set = -1104.8391636335
 Total energy in the final basis set = -1104.8391636335
 
 --------------------------------------------------------------
             Orbital Energies (a.u.) and Symmetries
 --------------------------------------------------------------
 
 Alpha MOs, Restricted
 -- Occupied --                  
-88.920 -88.920 -10.240 -10.239 -10.225 -10.225 -10.205 -10.205
  1 B     1 A     2 A     2 B     3 B     3 A     4 B     4 A                  
-10.203 -10.203  -7.980  -7.980  -5.944  -5.944  -5.940  -5.940
  5 B     5 A     6 B     6 A     7 B     7 A     8 B     8 A                  
 -5.937  -5.937  -0.901  -0.878  -0.772  -0.750  -0.737  -0.705
  9 A     9 B    10 A    10 B    11 A    12 A    11 B    12 B                  
 -0.604  -0.580  -0.553  -0.533  -0.528  -0.477  -0.422  -0.419
 13 A    14 A    13 B    14 B    15 A    15 B    16 A    17 A                  
 -0.408  -0.403  -0.402  -0.377  -0.374  -0.360  -0.343  -0.283
 16 B    17 B    18 A    18 B    19 A    20 A    19 B    20 B                  
 -0.266  -0.258  -0.211
 21 B    21 A    22 A                                                          
 -- Virtual --                   
 -0.059  -0.014  -0.003  -0.000   0.005   0.014   0.019   0.026
 22 B    23 A    24 A    23 B    25 A    26 A    24 B    25 B                  
  0.026   0.036   0.040   0.045   0.050   0.061   0.066   0.070
 27 A    28 A    26 B    29 A    27 B    30 A    28 B    29 B                  
  0.078   0.084   0.086   0.094   0.101   0.102   0.107   0.113
 31 A    30 B    31 B    32 A    33 A    32 B    34 A    35 A                  
  0.115   0.123   0.127   0.128   0.138   0.138   0.144   0.145
 33 B    36 A    34 B    37 A    38 A    35 B    39 A    36 B                  
  0.148   0.155   0.157   0.160   0.166   0.178   0.184   0.189
 40 A    37 B    41 A    38 B    39 B    40 B    42 A    43 A                  
  0.190   0.193   0.196   0.206   0.210   0.216   0.229   0.240
 41 B    42 B    44 A    43 B    45 A    46 A    44 B    47 A                  
  0.259   0.260   0.266   0.273   0.282   0.294   0.302   0.310
 45 B    48 A    46 B    49 A    47 B    48 B    50 A    49 B                  
  0.312   0.314   0.336   0.345   0.362   0.380   0.383   0.426
 51 A    52 A    50 B    53 A    51 B    54 A    52 B    53 B                  
  0.443   0.465   0.492   0.534   0.547   0.562   0.567   0.574
 55 A    56 A    54 B    57 A    55 B    56 B    58 A    57 B                  
  0.595   0.626   0.647   0.653   0.657   0.668   0.670   0.672
 59 A    60 A    58 B    61 A    59 B    62 A    60 B    63 A                  
  0.703   0.718   0.720   0.722   0.733   0.754   0.764   0.792
 64 A    61 B    62 B    65 A    63 B    66 A    64 B    67 A                  
  0.804   0.815   0.831   0.842   0.884   0.923   0.929   0.947
 65 B    66 B    68 A    67 B    69 A    68 B    70 A    71 A                  
  0.954   0.956   0.970   0.980   0.986   1.009   1.010   1.012
 72 A    69 B    70 B    71 B    73 A    74 A    72 B    73 B                  
  1.025   1.032   1.079   1.084   1.107   1.114   1.135   1.169
 75 A    76 A    77 A    74 B    78 A    75 B    76 B    79 A                  
  1.188   1.188   1.206   1.247   1.258   1.336   1.340   1.352
 80 A    77 B    78 B    81 A    79 B    80 B    82 A    81 B                  
  1.355   1.369   1.371   1.443   1.496   1.529   1.550   1.593
 83 A    82 B    84 A    83 B    85 A    84 B    86 A    85 B                  
  1.644   1.693   1.711   1.782   1.856   1.874   1.893   1.915
 86 B    87 A    87 B    88 A    89 A    90 A    88 B    89 B                  
  1.923   1.978   1.993   2.011   2.019   2.073   2.089   2.126
 91 A    92 A    90 B    91 B    93 A    94 A    92 B    93 B                  
  2.128   2.170   2.182   2.245   2.245   2.294   2.294   2.360
 95 A    96 A    94 B    95 B    97 A    96 B    98 A    97 B                  
  2.366   2.416   2.455   2.476   2.476   2.499   2.509   2.533
 99 A    98 B   100 A    99 B   101 A   102 A   100 B   101 B                  
  2.544   2.566   2.575   2.597   2.685   2.689   2.722   2.756
103 A   104 A   105 A   102 B   103 B   104 B   106 A   107 A                  
  2.803   2.855   2.950   2.976   3.140   3.216   3.270   3.273
105 B   108 A   106 B   107 B   109 A   108 B   110 A   109 B                  
  3.395   3.434   3.708   3.757   3.942   4.020   4.229   4.298
111 A   110 B   112 A   111 B   113 A   112 B   114 A   115 A                  
  4.307   4.333   4.399   4.547   4.645   4.733
113 B   114 B   116 A   115 B   117 A   116 B                                  
 
 Beta MOs, Restricted
 -- Occupied --                  
-88.920 -88.920 -10.240 -10.239 -10.225 -10.225 -10.205 -10.205
  1 B     1 A     2 A     2 B     3 B     3 A     4 B     4 A                  
-10.203 -10.203  -7.980  -7.980  -5.944  -5.944  -5.940  -5.940
  5 B     5 A     6 B     6 A     7 B     7 A     8 B     8 A                  
 -5.937  -5.937  -0.901  -0.878  -0.772  -0.750  -0.737  -0.705
  9 A     9 B    10 A    10 B    11 A    12 A    11 B    12 B                  
 -0.604  -0.580  -0.553  -0.533  -0.528  -0.477  -0.422  -0.419
 13 A    14 A    13 B    14 B    15 A    15 B    16 A    17 A                  
 -0.408  -0.403  -0.402  -0.377  -0.374  -0.360  -0.343  -0.283
 16 B    17 B    18 A    18 B    19 A    20 A    19 B    20 B                  
 -0.266  -0.258  -0.211
 21 B    21 A    22 A                                                          
 -- Virtual --                   
 -0.059  -0.014  -0.003  -0.000   0.005   0.014   0.019   0.026
 22 B    23 A    24 A    23 B    25 A    26 A    24 B    25 B                  
  0.026   0.036   0.040   0.045   0.050   0.061   0.066   0.070
 27 A    28 A    26 B    29 A    27 B    30 A    28 B    29 B                  
  0.078   0.084   0.086   0.094   0.101   0.102   0.107   0.113
 31 A    30 B    31 B    32 A    33 A    32 B    34 A    35 A                  
  0.115   0.123   0.127   0.128   0.138   0.138   0.144   0.145
 33 B    36 A    34 B    37 A    38 A    35 B    39 A    36 B                  
  0.148   0.155   0.157   0.160   0.166   0.178   0.184   0.189
 40 A    37 B    41 A    38 B    39 B    40 B    42 A    43 A                  
  0.190   0.193   0.196   0.206   0.210   0.216   0.229   0.240
 41 B    42 B    44 A    43 B    45 A    46 A    44 B    47 A                  
  0.259   0.260   0.266   0.273   0.282   0.294   0.302   0.310
 45 B    48 A    46 B    49 A    47 B    48 B    50 A    49 B                  
  0.312   0.314   0.336   0.345   0.362   0.380   0.383   0.426
 51 A    52 A    50 B    53 A    51 B    54 A    52 B    53 B                  
  0.443   0.465   0.492   0.534   0.547   0.562   0.567   0.574
 55 A    56 A    54 B    57 A    55 B    56 B    58 A    57 B                  
  0.595   0.626   0.647   0.653   0.657   0.668   0.670   0.672
 59 A    60 A    58 B    61 A    59 B    62 A    60 B    63 A                  
  0.703   0.718   0.720   0.722   0.733   0.754   0.764   0.792
 64 A    61 B    62 B    65 A    63 B    66 A    64 B    67 A                  
  0.804   0.815   0.831   0.842   0.884   0.923   0.929   0.947
 65 B    66 B    68 A    67 B    69 A    68 B    70 A    71 A                  
  0.954   0.956   0.970   0.980   0.986   1.009   1.010   1.012
 72 A    69 B    70 B    71 B    73 A    74 A    72 B    73 B                  
  1.025   1.032   1.079   1.084   1.107   1.114   1.135   1.169
 75 A    76 A    77 A    74 B    78 A    75 B    76 B    79 A                  
  1.188   1.188   1.206   1.247   1.258   1.336   1.340   1.352
 80 A    77 B    78 B    81 A    79 B    80 B    82 A    81 B                  
  1.355   1.369   1.371   1.443   1.496   1.529   1.550   1.593
 83 A    82 B    84 A    83 B    85 A    84 B    86 A    85 B                  
  1.644   1.693   1.711   1.782   1.856   1.874   1.893   1.915
 86 B    87 A    87 B    88 A    89 A    90 A    88 B    89 B                  
  1.923   1.978   1.993   2.011   2.019   2.073   2.089   2.126
 91 A    92 A    90 B    91 B    93 A    94 A    92 B    93 B                  
  2.128   2.170   2.182   2.245   2.245   2.294   2.294   2.360
 95 A    96 A    94 B    95 B    97 A    96 B    98 A    97 B                  
  2.366   2.416   2.455   2.476   2.476   2.499   2.509   2.533
 99 A    98 B   100 A    99 B   101 A   102 A   100 B   101 B                  
  2.544   2.566   2.575   2.597   2.685   2.689   2.722   2.756
103 A   104 A   105 A   102 B   103 B   104 B   106 A   107 A                  
  2.803   2.855   2.950   2.976   3.140   3.216   3.270   3.273
105 B   108 A   106 B   107 B   109 A   108 B   110 A   109 B                  
  3.395   3.434   3.708   3.757   3.942   4.020   4.229   4.298
111 A   110 B   112 A   111 B   113 A   112 B   114 A   115 A                  
  4.307   4.333   4.399   4.547   4.645   4.733
113 B   114 B   116 A   115 B   117 A   116 B                                  
 --------------------------------------------------------------
 
          Ground-State Mulliken Net Atomic Charges

     Atom                 Charge (a.u.)
  ----------------------------------------
      1 S                    -0.141545
      2 C                     0.021766
      3 C                    -0.403416
      4 C                     0.359920
      5 C                    -0.263949
      6 H                     0.107782
      7 C                    -0.263949
      8 S                    -0.141545
      9 C                     0.359920
     10 C                     0.021766
     11 C                    -0.403416
     12 H                     0.119375
     13 H                     0.200067
     14 H                     0.119375
     15 H                     0.200067
     16 H                     0.107782
  ----------------------------------------
  Sum of atomic charges =     0.000000

 -----------------------------------------------------------------
                    Cartesian Multipole Moments
 -----------------------------------------------------------------
    Charge (ESU x 10^10)
                -0.0000
    Dipole Moment (Debye)
         X      -0.0000      Y       0.0000      Z      -1.0421
       Tot       1.0421
    Quadrupole Moments (Debye-Ang)
        XX     -60.9012     XY      -0.2369     YY     -78.8201
        XZ      -0.0000     YZ       0.0000     ZZ     -67.7235
    Octopole Moments (Debye-Ang^2)
       XXX      -0.0000    XXY      -0.0000    XYY      -0.0000
       YYY       0.0000    XXZ       4.4292    XYZ       2.8406
       YYZ       2.8312    XZZ       0.0000    YZZ       0.0000
       ZZZ     -10.7625
    Hexadecapole Moments (Debye-Ang^3)
      XXXX   -1882.1179   XXXY      -0.8113   XXYY    -424.0200
      XYYY       1.4330   YYYY    -108.5651   XXXZ      -0.0000
      XXYZ       0.0000   XYYZ      -0.0000   YYYZ       0.0000
      XXZZ    -406.4425   XYZZ      -3.1965   YYZZ    -124.6033
      XZZZ      -0.0000   YZZZ      -0.0000   ZZZZ    -552.4494
 -----------------------------------------------------------------
 Calculating analytic gradient of the SCF energy
 Gradient of SCF Energy
            1           2           3           4           5           6
    1   0.0000563  -0.0000481   0.0000178  -0.0000476  -0.0002054   0.0000350
    2  -0.0001439  -0.0000380  -0.0000602   0.0004867  -0.0006627   0.0000207
    3   0.0000621  -0.0000548   0.0000181  -0.0000525   0.0000221   0.0000133
            7           8           9          10          11          12
    1   0.0002054  -0.0000563   0.0000476   0.0000481  -0.0000178   0.0000177
    2   0.0006627   0.0001439  -0.0004867   0.0000380   0.0000602  -0.0000335
    3   0.0000221   0.0000621  -0.0000525  -0.0000548   0.0000181  -0.0000022
           13          14          15          16
    1   0.0000061  -0.0000177  -0.0000061  -0.0000350
    2   0.0000334   0.0000335  -0.0000334  -0.0000207
    3  -0.0000060  -0.0000022  -0.0000060   0.0000133
 Max gradient component =       6.627E-04
 RMS gradient           =       1.788E-04
 Gradient time:  CPU 1.92 s  wall 1.92 s
 Geometry Optimization Parameters
   NAtoms,    NIC,     NZ,  NCons,   NDum,   NFix, NCnnct, MaxDiis
       16     111       0       1       0       0       0       0

 Cartesian Hessian Update
 Hessian Updated using BFGS Update


** CONSTRAINED OPTIMIZATION IN DELOCALIZED INTERNAL COORDINATES **
   Searching for a Minimum

   Optimization Cycle:   4

                       Coordinates (Angstroms)
     ATOM                X               Y               Z
      1  S         1.6675113387    0.1260436155    1.1656327514
      2  C         3.1628651558    0.0241952112    0.2935166799
      3  C         2.9508741577   -0.1009398957   -1.0544506392
[...]
  3.395   3.434   3.708   3.757   3.942   4.020   4.229   4.298
111 A   110 B   112 A   111 B   113 A   112 B   114 A   115 A                  
  4.307   4.332   4.400   4.546   4.645   4.733
113 B   114 B   116 A   115 B   117 A   116 B                                  
 --------------------------------------------------------------
 
          Ground-State Mulliken Net Atomic Charges

     Atom                 Charge (a.u.)
  ----------------------------------------
      1 S                    -0.140762
      2 C                     0.025186
      3 C                    -0.400534
      4 C                     0.361297
      5 C                    -0.273157
      6 H                     0.108797
      7 C                    -0.273157
      8 S                    -0.140762
      9 C                     0.361297
     10 C                     0.025186
     11 C                    -0.400534
     12 H                     0.119281
     13 H                     0.199892
     14 H                     0.119281
     15 H                     0.199892
     16 H                     0.108797
  ----------------------------------------
  Sum of atomic charges =    -0.000000

 -----------------------------------------------------------------
                    Cartesian Multipole Moments
 -----------------------------------------------------------------
    Charge (ESU x 10^10)
                -0.0000
    Dipole Moment (Debye)
         X       0.0000      Y       0.0000      Z      -1.0403
       Tot       1.0403
    Quadrupole Moments (Debye-Ang)
        XX     -60.8970     XY      -0.2322     YY     -78.8013
        XZ       0.0000     YZ       0.0000     ZZ     -67.7422
    Octopole Moments (Debye-Ang^2)
       XXX       0.0000    XXY      -0.0000    XYY      -0.0000
       YYY       0.0000    XXZ       4.4930    XYZ       3.0758
       YYZ       2.8645    XZZ       0.0000    YZZ       0.0000
       ZZZ     -10.5784
    Hexadecapole Moments (Debye-Ang^3)
      XXXX   -1881.9222   XXXY      -1.7416   XXYY    -423.9612
      XYYY       0.0859   YYYY    -109.4404   XXXZ       0.0000
      XXYZ       0.0000   XYYZ       0.0000   YYYZ       0.0000
      XXZZ    -406.4544   XYZZ      -3.7432   YYZZ    -124.4466
      XZZZ       0.0000   YZZZ       0.0000   ZZZZ    -551.7922
 -----------------------------------------------------------------
 Calculating analytic gradient of the SCF energy
 Gradient of SCF Energy
            1           2           3           4           5           6
    1  -0.0000493   0.0000380  -0.0000557   0.0000608   0.0000468  -0.0000021
    2  -0.0000016  -0.0000235   0.0000256   0.0006992  -0.0016123   0.0000406
    3  -0.0001365   0.0000349  -0.0000143  -0.0001042   0.0001987   0.0000078
            7           8           9          10          11          12
    1  -0.0000468   0.0000493  -0.0000608  -0.0000380   0.0000557  -0.0000061
    2   0.0016123   0.0000016  -0.0006992   0.0000235  -0.0000256   0.0000092
    3   0.0001987  -0.0001365  -0.0001042   0.0000349  -0.0000143   0.0000137
           13          14          15          16
    1  -0.0000110   0.0000061   0.0000110   0.0000021
    2   0.0000217  -0.0000092  -0.0000217  -0.0000406
    3  -0.0000001   0.0000137  -0.0000001   0.0000078
 Max gradient component =       1.612E-03
 RMS gradient           =       3.637E-04
 Gradient time:  CPU 1.90 s  wall 1.91 s
 Geometry Optimization Parameters
   NAtoms,    NIC,     NZ,  NCons,   NDum,   NFix, NCnnct, MaxDiis
       16     111       0       1       0       0       0       0

 Cartesian Hessian Update
 Hessian Updated using BFGS Update


** CONSTRAINED OPTIMIZATION IN DELOCALIZED INTERNAL COORDINATES **
   Searching for a Minimum

   Optimization Cycle:   7

                       Coordinates (Angstroms)
     ATOM                X               Y               Z
      1  S         1.6670640443    0.1380160020    1.1637053812
      2  C         3.1627751375    0.0310579991    0.2929476086
      3  C         2.9510477540   -0.1047276867   -1.0541326385
      4  C         1.5694819809   -0.1326625483   -1.3979545655
      5  C         0.7270565105   -0.0173232739   -0.3093576039
      6  H         1.2074604193   -0.2493248049   -2.4127391566
      7  C        -0.7270565105    0.0173232739   -0.3093576039
      8  S        -1.6670640443   -0.1380160020    1.1637053812
      9  C        -1.5694819809    0.1326625483   -1.3979545655
     10  C        -3.1627751375   -0.0310579991    0.2929476086
     11  C        -2.9510477540    0.1047276867   -1.0541326385
     12  H        -3.7538742056    0.1894807922   -1.7776872381
     13  H         4.1015202049    0.0732539576    0.8276577022
     14  H         3.7538742056   -0.1894807922   -1.7776872381
     15  H        -4.1015202049   -0.0732539576    0.8276577022
     16  H        -1.2074604193    0.2493248049   -2.4127391566
   Point Group: c2    Number of degrees of freedom:    22


   Energy is  -1104.839170733

              Constraints and their Current Values
                                        Value     Constraint
   Dihedral:        4   5   7   9      -10.000      -10.000
 Hessian Updated using BFGS Update

 21 Hessian modes will be used to form the next step
  Hessian Eigenvalues:
     0.007082    0.038686    0.045000    0.045002    0.045058    0.045759
     0.157875    0.159973    0.160660    0.202477    0.224457    0.275611
     0.292983    0.319188    0.357284    0.360888    0.361802    0.394802
     0.445687    0.481619    0.529765

 Minimum Search - Taking Simple RFO Step
 Searching for Lamda that Minimizes Along All modes
 Value Taken    Lamda =   0.00000000
 Step Taken.  Stepsize is  0.002859

                             Maximum     Tolerance    Cnvgd?
         Gradient           0.000118      0.000300     YES
         Displacement       0.001807      0.001200      NO
         Energy change     -0.000001      0.000001     YES

 Final energy is   -1104.83917073302     


 ******************************
 **  OPTIMIZATION CONVERGED  **
 ******************************

                       Coordinates (Angstroms)
     ATOM                X               Y               Z
      1  S         1.6670640443    0.1380160020    1.1637053812
      2  C         3.1627751375    0.0310579991    0.2929476086
      3  C         2.9510477540   -0.1047276867   -1.0541326385
      4  C         1.5694819809   -0.1326625483   -1.3979545655
      5  C         0.7270565105   -0.0173232739   -0.3093576039
      6  H         1.2074604193   -0.2493248049   -2.4127391566
      7  C        -0.7270565105    0.0173232739   -0.3093576039
      8  S        -1.6670640443   -0.1380160020    1.1637053812
      9  C        -1.5694819809    0.1326625483   -1.3979545655
     10  C        -3.1627751375   -0.0310579991    0.2929476086
     11  C        -2.9510477540    0.1047276867   -1.0541326385
     12  H        -3.7538742056    0.1894807922   -1.7776872381
     13  H         4.1015202049    0.0732539576    0.8276577022
     14  H         3.7538742056   -0.1894807922   -1.7776872381
     15  H        -4.1015202049   -0.0732539576    0.8276577022
     16  H        -1.2074604193    0.2493248049   -2.4127391566

Z-matrix Print:
$molecule
0 1
S 
C  1 1.734016
H  2 1.081174 1 119.879689
C  2 1.370362 1 111.498189 3 -179.899169 0
H  4 1.084087 2 123.327249 1 179.934080 0
C  4 1.423980 2 112.904477 1 0.385761 0
H  6 1.083724 4 123.525436 2 179.028459 0
C  6 1.381314 4 113.564696 2 -0.021446 0
C  8 1.454526 6 127.711703 4 -178.654962 0
C  9 1.381314 8 127.711703 6 10.000024 0
H  10 1.083724 9 122.902698 8 2.288395 0
C  10 1.423980 9 113.564696 8 -178.654962 0
H  12 1.084087 10 123.766625 9 -179.567462 0
C  12 1.370362 10 112.904477 9 -0.021446 0
H  14 1.081174 12 128.622030 10 -179.502336 0
S  14 1.734016 12 111.498189 10 0.385761 0
$end

 
 --------------------------------------------------------------
             Orbital Energies (a.u.) and Symmetries
 --------------------------------------------------------------
 
 Alpha MOs, Restricted
 -- Occupied --                  
-88.920 -88.920 -10.240 -10.239 -10.225 -10.225 -10.205 -10.205
  1 B     1 A     2 A     2 B     3 B     3 A     4 B     4 A                  
-10.203 -10.203  -7.980  -7.980  -5.944  -5.944  -5.940  -5.940
  5 B     5 A     6 B     6 A     7 B     7 A     8 B     8 A                  
 -5.937  -5.937  -0.901  -0.878  -0.772  -0.750  -0.737  -0.705
  9 A     9 B    10 A    10 B    11 A    12 A    11 B    12 B                  
 -0.604  -0.580  -0.553  -0.533  -0.528  -0.477  -0.422  -0.419
 13 A    14 A    13 B    14 B    15 A    15 B    16 A    17 A                  
 -0.408  -0.403  -0.402  -0.377  -0.374  -0.360  -0.343  -0.283
 16 B    17 B    18 A    18 B    19 A    20 A    19 B    20 B                  
 -0.265  -0.258  -0.211
 21 B    21 A    22 A                                                          
 -- Virtual --                   
 -0.059  -0.014  -0.003  -0.000   0.005   0.014   0.019   0.026
 22 B    23 A    24 A    23 B    25 A    26 A    24 B    25 B                  
  0.026   0.036   0.040   0.045   0.050   0.061   0.066   0.070
 27 A    28 A    26 B    29 A    27 B    30 A    28 B    29 B                  
  0.078   0.084   0.086   0.094   0.102   0.102   0.107   0.113
 31 A    30 B    31 B    32 A    33 A    32 B    34 A    35 A                  
  0.115   0.123   0.127   0.129   0.138   0.138   0.144   0.145
 33 B    36 A    34 B    37 A    38 A    35 B    39 A    36 B                  
  0.148   0.155   0.158   0.160   0.166   0.178   0.184   0.189
 40 A    37 B    41 A    38 B    39 B    40 B    42 A    43 A                  
  0.190   0.192   0.196   0.207   0.210   0.216   0.228   0.240
 41 B    42 B    44 A    43 B    45 A    46 A    44 B    47 A                  
  0.257   0.260   0.267   0.272   0.280   0.292   0.302   0.310
 45 B    48 A    46 B    49 A    47 B    48 B    50 A    49 B                  
  0.312   0.314   0.334   0.346   0.362   0.381   0.383   0.426
 51 A    52 A    50 B    53 A    51 B    54 A    52 B    53 B                  
  0.443   0.465   0.492   0.534   0.546   0.561   0.567   0.572
 55 A    56 A    54 B    57 A    55 B    56 B    58 A    57 B                  
  0.595   0.626   0.646   0.653   0.657   0.667   0.668   0.673
 59 A    60 A    58 B    61 A    59 B    60 B    62 A    63 A                  
  0.703   0.720   0.720   0.722   0.733   0.754   0.763   0.792
 64 A    61 B    62 B    65 A    63 B    66 A    64 B    67 A                  
  0.802   0.816   0.831   0.843   0.884   0.922   0.930   0.947
 65 B    66 B    68 A    67 B    69 A    68 B    70 A    71 A                  
  0.954   0.955   0.970   0.979   0.986   1.008   1.009   1.011
 72 A    69 B    70 B    71 B    73 A    72 B    74 A    73 B                  
  1.026   1.032   1.079   1.084   1.107   1.113   1.135   1.169
 75 A    76 A    77 A    74 B    78 A    75 B    76 B    79 A                  
  1.187   1.188   1.205   1.247   1.257   1.334   1.340   1.353
 77 B    80 A    78 B    81 A    79 B    80 B    82 A    81 B                  
  1.355   1.368   1.371   1.440   1.496   1.529   1.551   1.591
 83 A    82 B    84 A    83 B    85 A    84 B    86 A    85 B                  
  1.647   1.693   1.711   1.782   1.856   1.874   1.893   1.915
 86 B    87 A    87 B    88 A    89 A    90 A    88 B    89 B                  
  1.923   1.977   1.992   2.011   2.019   2.072   2.088   2.127
 91 A    92 A    90 B    91 B    93 A    94 A    92 B    93 B                  
  2.128   2.172   2.182   2.245   2.245   2.293   2.295   2.360
 95 A    96 A    94 B    95 B    97 A    96 B    98 A    97 B                  
  2.366   2.416   2.455   2.476   2.476   2.499   2.508   2.532
 99 A    98 B   100 A    99 B   101 A   102 A   100 B   101 B                  
  2.544   2.565   2.575   2.597   2.684   2.690   2.722   2.756
103 A   104 A   105 A   102 B   103 B   104 B   106 A   107 A                  
  2.802   2.855   2.949   2.976   3.140   3.216   3.270   3.273
105 B   108 A   106 B   107 B   109 A   108 B   110 A   109 B                  
  3.395   3.434   3.708   3.757   3.942   4.020   4.229   4.298
111 A   110 B   112 A   111 B   113 A   112 B   114 A   115 A                  
  4.307   4.332   4.400   4.546   4.645   4.733
113 B   114 B   116 A   115 B   117 A   116 B                                  
 
 Beta MOs, Restricted
 -- Occupied --                  
-88.920 -88.920 -10.240 -10.239 -10.225 -10.225 -10.205 -10.205
  1 B     1 A     2 A     2 B     3 B     3 A     4 B     4 A                  
-10.203 -10.203  -7.980  -7.980  -5.944  -5.944  -5.940  -5.940
  5 B     5 A     6 B     6 A     7 B     7 A     8 B     8 A                  
 -5.937  -5.937  -0.901  -0.878  -0.772  -0.750  -0.737  -0.705
  9 A     9 B    10 A    10 B    11 A    12 A    11 B    12 B                  
 -0.604  -0.580  -0.553  -0.533  -0.528  -0.477  -0.422  -0.419
 13 A    14 A    13 B    14 B    15 A    15 B    16 A    17 A                  
 -0.408  -0.403  -0.402  -0.377  -0.374  -0.360  -0.343  -0.283
 16 B    17 B    18 A    18 B    19 A    20 A    19 B    20 B                  
 -0.265  -0.258  -0.211
 21 B    21 A    22 A                                                          
 -- Virtual --                   
 -0.059  -0.014  -0.003  -0.000   0.005   0.014   0.019   0.026
 22 B    23 A    24 A    23 B    25 A    26 A    24 B    25 B                  
  0.026   0.036   0.040   0.045   0.050   0.061   0.066   0.070
 27 A    28 A    26 B    29 A    27 B    30 A    28 B    29 B                  
  0.078   0.084   0.086   0.094   0.102   0.102   0.107   0.113
 31 A    30 B    31 B    32 A    33 A    32 B    34 A    35 A                  
  0.115   0.123   0.127   0.129   0.138   0.138   0.144   0.145
 33 B    36 A    34 B    37 A    38 A    35 B    39 A    36 B                  
  0.148   0.155   0.158   0.160   0.166   0.178   0.184   0.189
 40 A    37 B    41 A    38 B    39 B    40 B    42 A    43 A                  
  0.190   0.192   0.196   0.207   0.210   0.216   0.228   0.240
 41 B    42 B    44 A    43 B    45 A    46 A    44 B    47 A                  
  0.257   0.260   0.267   0.272   0.280   0.292   0.302   0.310
 45 B    48 A    46 B    49 A    47 B    48 B    50 A    49 B                  
  0.312   0.314   0.334   0.346   0.362   0.381   0.383   0.426
 51 A    52 A    50 B    53 A    51 B    54 A    52 B    53 B                  
  0.443   0.465   0.492   0.534   0.546   0.561   0.567   0.572
 55 A    56 A    54 B    57 A    55 B    56 B    58 A    57 B                  
  0.595   0.626   0.646   0.653   0.657   0.667   0.668   0.673
 59 A    60 A    58 B    61 A    59 B    60 B    62 A    63 A                  
  0.703   0.720   0.720   0.722   0.733   0.754   0.763   0.792
 64 A    61 B    62 B    65 A    63 B    66 A    64 B    67 A                  
  0.802   0.816   0.831   0.843   0.884   0.922   0.930   0.947
 65 B    66 B    68 A    67 B    69 A    68 B    70 A    71 A                  
  0.954   0.955   0.970   0.979   0.986   1.008   1.009   1.011
 72 A    69 B    70 B    71 B    73 A    72 B    74 A    73 B                  
  1.026   1.032   1.079   1.084   1.107   1.113   1.135   1.169
 75 A    76 A    77 A    74 B    78 A    75 B    76 B    79 A                  
  1.187   1.188   1.205   1.247   1.257   1.334   1.340   1.353
 77 B    80 A    78 B    81 A    79 B    80 B    82 A    81 B                  
  1.355   1.368   1.371   1.440   1.496   1.529   1.551   1.591
 83 A    82 B    84 A    83 B    85 A    84 B    86 A    85 B                  
  1.647   1.693   1.711   1.782   1.856   1.874   1.893   1.915
 86 B    87 A    87 B    88 A    89 A    90 A    88 B    89 B                  
  1.923   1.977   1.992   2.011   2.019   2.072   2.088   2.127
 91 A    92 A    90 B    91 B    93 A    94 A    92 B    93 B                  
  2.128   2.172   2.182   2.245   2.245   2.293   2.295   2.360
 95 A    96 A    94 B    95 B    97 A    96 B    98 A    97 B                  
  2.366   2.416   2.455   2.476   2.476   2.499   2.508   2.532
 99 A    98 B   100 A    99 B   101 A   102 A   100 B   101 B                  
  2.544   2.565   2.575   2.597   2.684   2.690   2.722   2.756
103 A   104 A   105 A   102 B   103 B   104 B   106 A   107 A                  
  2.802   2.855   2.949   2.976   3.140   3.216   3.270   3.273
105 B   108 A   106 B   107 B   109 A   108 B   110 A   109 B                  
  3.395   3.434   3.708   3.757   3.942   4.020   4.229   4.298
111 A   110 B   112 A   111 B   113 A   112 B   114 A   115 A                  
  4.307   4.332   4.400   4.546   4.645   4.733
113 B   114 B   116 A   115 B   117 A   116 B                                  
 --------------------------------------------------------------
 
          Ground-State Mulliken Net Atomic Charges

     Atom                 Charge (a.u.)
  ----------------------------------------
      1 S                    -0.140762
      2 C                     0.025186
      3 C                    -0.400534
      4 C                     0.361297
      5 C                    -0.273157
      6 H                     0.108797
      7 C                    -0.273157
      8 S                    -0.140762
      9 C                     0.361297
     10 C                     0.025186
     11 C                    -0.400534
     12 H                     0.119281
     13 H                     0.199892
     14 H                     0.119281
     15 H                     0.199892
     16 H                     0.108797
  ----------------------------------------
  Sum of atomic charges =    -0.000000

 -----------------------------------------------------------------
                    Cartesian Multipole Moments
 -----------------------------------------------------------------
    Charge (ESU x 10^10)
                -0.0000
    Dipole Moment (Debye)
         X       0.0000      Y       0.0000      Z      -1.0403
       Tot       1.0403
    Quadrupole Moments (Debye-Ang)
        XX     -60.8970     XY      -0.2322     YY     -78.8013
        XZ       0.0000     YZ       0.0000     ZZ     -67.7422
    Octopole Moments (Debye-Ang^2)
       XXX       0.0000    XXY      -0.0000    XYY      -0.0000
       YYY       0.0000    XXZ       4.4930    XYZ       3.0758
       YYZ       2.8645    XZZ       0.0000    YZZ       0.0000
       ZZZ     -10.5784
    Hexadecapole Moments (Debye-Ang^3)
      XXXX   -1881.9222   XXXY      -1.7416   XXYY    -423.9612
      XYYY       0.0859   YYYY    -109.4404   XXXZ       0.0000
      XXYZ       0.0000   XYYZ       0.0000   YYYZ       0.0000
      XXZZ    -406.4544   XYZZ      -3.7432   YYZZ    -124.4466
      XZZZ       0.0000   YZZZ       0.0000   ZZZZ    -551.7922
 -----------------------------------------------------------------
Archival summary:
1\1\nid01044\OPT\ProcedureUnspecified\BasisUnspecified\286\FriSep218:58:362016FriSep218:58:362016\0\\#,OPT,ProcedureUnspecified,BasisUnspecified,\\0,1\S\C,1,1.73402\H,2,1.08117,1,119.88\C,2,1.37036,1,111.498,3,-179.899,0\H,4,1.08409,2,123.327,1,179.934,0\C,4,1.42398,2,112.904,1,0.385761,0\H,6,1.08372,4,123.525,2,179.028,0\C,6,1.38131,4,113.565,2,-0.0214461,0\C,8,1.45453,6,127.712,4,-178.655,0\C,9,1.38131,8,127.712,6,10,0\H,10,1.08372,9,122.903,8,2.28839,0\C,10,1.42398,9,113.565,8,-178.655,0\H,12,1.08409,10,123.767,9,-179.567,0\C,12,1.37036,10,112.904,9,-0.0214461,0\H,14,1.08117,12,128.622,10,-179.502,0\S,14,1.73402,12,111.498,10,0.385761,0\\\@

 Total job time:  52.35s(wall), 57.77s(cpu) 
 Fri Sep  2 18:58:36 2016

        *************************************************************
        *                                                           *
        *  Thank you very much for using Q-Chem.  Have a nice day.  *
        *                                                           *
        *************************************************************


0 sent ACK to 0 
now end server 0 ... 
