srun -N 1 --ntasks-per-node 16 --nodelist nid01044 /global/project/projectdirs/jcesr/qchem/qc44/cnl_qc441/dist/exe/qcprog.cori.exe .pt_dft_-110.0.in.46269.qcin.1 /dev/shm/eg_qchem/qchem46269/
Process 1 of 16 is on nid01044 - thread support 0
Process 2 of 16 is on nid01044 - thread support 0
Process 3 of 16 is on nid01044 - thread support 0
Process 4 of 16 is on nid01044 - thread support 0
Process 5 of 16 is on nid01044 - thread support 0
Process 6 of 16 is on nid01044 - thread support 0
Process 0 of 16 is on nid01044 - thread support 0
initial socket setup ...start
Process 15 of 16 is on nid01044 - thread support 0
initial socket setup ...done 
now start server 0 ... 
nid01044 10.128.4
Q-Chem Developer Version! Running on 10.128.4.*
                  Welcome to Q-Chem
     A Quantum Leap Into The Future Of Chemistry


 Q-Chem 4.4, Q-Chem, Inc., Pleasanton, CA (2016)

 Y. Shao,  Z. Gan,  E. Epifanovsky,  A. T. B. Gilbert,  M. Wormit,  
 J. Kussmann,  A. W. Lange,  A. Behn,  J. Deng,  X. Feng,  D. Ghosh,  
 M. Goldey,  P. R. Horn,  L. D. Jacobson,  I. Kaliman,  F.Rob,  
 R. Z. Khaliullin,  T. Kus,  A. Landau,  J. Liu,  E. I. Proynov,  Y. M. Rhee,  
 R. M. Richard,  M. A. Rohrdanz,  R. P. Steele,  E. J. Sundstrom,  
 H. L. Woodcock III,  P. M. Zimmerman,  D. Zuev,  B. Albrecht,  E. Alguire,  
 B. Austin,  S. A. Baeppler,  G. J. O. Beran,  Y. A. Bernard,  E. Berquist,  
 K. Brandhorst,  K. B. Bravaya,  S. T. Brown,  D. Casanova,  C.-M. Chang,  
 Y. Chen,  S. H. Chien,  K. D. Closser,  M. P. Coons,  D. L. Crittenden,  
 S. Dasgupta,  M. Diedenhofen,  R. A. DiStasio Jr.,  H. Do,  A. D. Dutoi,  
 R. G. Edgar,  P.-T. Fang,  S. Fatehi,  Q. Feng,  L. Fusti-Molnar,  
 A. Ghysels,  A. Golubeva-Zadorozhnaya,  J. Gomes,  A. Gunina,  
 M. W. D. Hanson-Heine,  P. H. P. Harbach,  A. W. Hauser,  E. G. Hohenstein,  
 Z. C. Holden,  K. Hui,  T.-C. Jagau,  H. Ji,  B. Kaduk,  K. Khistyaev,  
 Jaehoon Kim,  Jihan Kim,  R. A. King,  P. Klunzinger,  D. Kosenkov,  
 T. Kowalczyk,  C. M. Krauter,  A. Kunitsa,  K. U. Lao,  A. Laurent,  
 K. V. Lawler,  D. Lefrancois,  S. Lehtola,  S. V. Levchenko,  C. Y. Lin,  
 Y.-S. Lin,  F. Liu,  E. Livshits,  R. C. Lochan,  A. Luenser,  P. Manohar,  
 S. F. Manzer,  S.-P. Mao,  Y. Mao,  N. Mardirossian,  A. V. Marenich,  
 L. A. Martinez-Martinez,  S. A. Maurer,  N. J. Mayhall,  J.-M. Mewes,  
 A. F. Morrison,  K. Nanda,  C. M. Oana,  R. Olivares-Amaya,  D. P. O'Neill,  
 J. A. Parkhill,  T. M. Perrine,  R. Peverati,  P. A. Pieniazek,  F. Plasser,  
 A. Prociuk,  D. R. Rehn,  E. Rosta,  N. J. Russ,  N. Sergueev,  
 S. M. Sharada,  S. Sharma,  D. W. Small,  A. Sodt,  T. Stauch,  T. Stein,  
 D. Stuck,  Y.-C. Su,  A. J. W. Thom,  T. Tsuchimochi,  L. Vogt,  O. Vydrov,  
 T. Wang,  M. A. Watson,  J. Wenzel,  A. White,  C. F. Williams,  
 V. Vanovschi,  S. Yeganeh,  S. R. Yost,  Z.-Q. You,  I. Y. Zhang,  X. Zhang,  
 Y. Zhao,  B. R. Brooks,  G. K. L. Chan,  D. M. Chipman,  C. J. Cramer,  
 W. A. Goddard III,  M. S. Gordon,  W. J. Hehre,  A. Klamt,  
 H. F. Schaefer III,  M. W. Schmidt,  C. D. Sherrill,  D. G. Truhlar,  
 A. Warshel,  X. Xu,  A. Aspuru-Guzik,  R. Baer,  A. T. Bell,  N. A. Besley,  
 J.-D. Chai,  A. Dreuw,  B. D. Dunietz,  T. R. Furlani,  S. R. Gwaltney,  
 C.-P. Hsu,  Y. Jung,  J. Kong,  D. S. Lambrecht,  W. Liang,  C. Ochsenfeld,  
 V. A. Rassolov,  L. V. Slipchenko,  J. E. Subotnik,  T. Van Voorhis,  
 J. M. Herbert,  A. I. Krylov,  P. M. W. Gill,  M. Head-Gordon

 Contributors to earlier versions of Q-Chem not listed above: 
 R. D. Adamson,  J. Baker,  E. F. C. Byrd,  A. K. Chakraborty,  C.-L. Cheng,  
 H. Dachsel,  R. J. Doerksen,  G. Hawkins,  A. Heyden,  S. Hirata,  
 G. Kedziora,  F. J. Keil,  C. Kelley,  P. P. Korambath,  W. Kurlancheek,  
 A. M. Lee,  M. S. Lee,  D. Liotard,  I. Lotan,  P. E. Maslen,  N. Nair,  
 D. Neuhauser,  R. Olson,  B. Peters,  J. Ritchie,  N. E. Schultz,  
 N. Shenvi,  A. C. Simmonett,  K. S. Thanthiriwatte,  Q. Wu,  W. Zhang

 Please cite Q-Chem as follows:
 Y. Shao et al., Mol. Phys. 113, 184-215 (2015)
 DOI: 10.1080/00268976.2014.952696

 Q-Chem 4.4.1 for Intel X86 EM64T Linux

 Parts of Q-Chem use Armadillo 5.200.1 (Boston Tea Smuggler).
 http://arma.sourceforge.net/

 Q-Chem begins on Fri Sep  2 18:09:50 2016  

Host: nid01043
0

     Scratch files written to /dev/shm/eg_qchem/qchem46269.0//
 Parallel job on  16  processors

Checking the input file for inconsistencies... 	...done.

--------------------------------------------------------------
User input:
--------------------------------------------------------------
$molecule
 0  1
 S           1.82267924       -1.19997629        0.28714109
 C           3.20006180       -0.17260711        0.06528466
 C           2.82980603        1.10216298       -0.25610036
 C           1.41909100        1.26345446       -0.34254814
 C           0.71738150        0.10901545       -0.08456145
 H           0.93627498        2.19419272       -0.61095402
 C          -0.71741859       -0.10899254       -0.08455524
 S          -1.62826584       -0.07978980       -1.58215650
 C          -1.55793391       -0.34987115        0.97713877
 C          -3.11098192       -0.41389936       -0.75040275
 C          -2.91799000       -0.52199515        0.59736800
 H          -3.71664854       -0.72803510        1.29765788
 H           4.19429620       -0.57452886        0.18632814
 H           3.53860725        1.89960515       -0.43610218
 H          -4.02971430       -0.50889909       -1.30861464
 H          -1.20497993       -0.42591337        1.99746607
$end


$rem
         jobtype = opt
        exchange = b3lyp
           basis = 6-31++g**
  max_scf_cycles = 75
      mem_static = 100
       mem_total = 1500
$end


$opt
CONSTRAINT
tors 4 5 7 9 -110.0
ENDCONSTRAINT
$end

--------------------------------------------------------------
 Atom   8: ( -1.7644312265,  1.0253343236, -0.6524026996)
         ->( -1.7644313666,  1.0253343471, -0.6524027598)
 Atom  10: ( -3.1808721132,  0.1423473016, -0.1877311960)
         ->( -3.1808721247,  0.1423472504, -0.1877310588)
 Atom  11: ( -2.8688368181, -0.9330809104,  0.5942564708)
         ->( -2.8688367073, -0.9330808166,  0.5942566775)
 Atom   9: ( -1.4704153905, -1.0675421377,  0.8177352534)
         ->( -1.4704152285, -1.0675423219,  0.8177349252)
 Atom   7: ( -0.7198932787, -0.0910956343,  0.2054024482)
         ->( -0.7198932247, -0.0910954926,  0.2054024226)
 Atom  16: ( -1.0283534543, -1.8724141576,  1.3906130820)
         ->( -1.0283531734, -1.8724145068,  1.3906124336)
 Atom  14: (  3.6096636916,  1.6148113467,  0.9906563531)
         ->(  3.6096638646,  1.6148114553,  0.9906560063)
 Atom  15: ( -4.1526572310,  0.4730909231, -0.5208032461)
         ->( -4.1526573360,  0.4730907879, -0.5208029353)
 ----------------------------------------------------------------
             Standard Nuclear Orientation (Angstroms)
    I     Atom           X                Y                Z
 ----------------------------------------------------------------
    1      S       1.7644313666    -1.0253343471    -0.6524027598
    2      C       3.1808721247    -0.1423472504    -0.1877310588
    3      C       2.8688367073     0.9330808166     0.5942566775
    4      C       1.4704152285     1.0675423219     0.8177349252
    5      C       0.7198932247     0.0910954926     0.2054024226
    6      H       1.0283531734     1.8724145068     1.3906124336
    7      C      -0.7198932247    -0.0910954926     0.2054024226
    8      S      -1.7644313666     1.0253343471    -0.6524027598
    9      C      -1.4704152285    -1.0675423219     0.8177349252
   10      C      -3.1808721247     0.1423472504    -0.1877310588
   11      C      -2.8688367073    -0.9330808166     0.5942566775
   12      H      -3.6096638646    -1.6148114553     0.9906560063
   13      H       4.1526573360    -0.4730907879    -0.5208029353
   14      H       3.6096638646     1.6148114553     0.9906560063
   15      H      -4.1526573360     0.4730907879    -0.5208029353
   16      H      -1.0283531734    -1.8724145068     1.3906124336
 ----------------------------------------------------------------
 Molecular Point Group                 C2    NOp =  2
 Largest Abelian Subgroup              C2    NOp =  2
 Nuclear Repulsion Energy =   629.4906844167 hartrees
 There are       43 alpha and       43 beta electrons
 Requested basis set is 6-31++G(d,p)
 There are 76 shells and 234 basis functions

 Total QAlloc Memory Limit   1500 MB
 Mega-Array Size        98 MB
 MEM_STATIC part       100 MB
 A cutoff of  1.0D-11 yielded   2490 shell pairs
 There are     24594 function pairs
 
 -------------------------------------------------------
 OpenMP Integral Computing Module                       
 Release: version 1.0, May 2013, Q-Chem Inc. Pittsburgh 
 -------------------------------------------------------
 Integral Job Info:
 Integral job number is                      11
 Integral operator is                         1
 short-range coefficients                     0
 long-range coefficients              100000000
 Omega coefficients                           0
 if combine SR and LR in K                    0
 Integral screening is                        0
 Integral computing path is                   2
 max size of driver memory is            800000
 size of driver memory is                593474
 size of scratch memory is             15166112
 max col of scratch BK array               1296
 max len of scratch array in speh3          155
 max len of scratch index in speh4           18
 max int batch size is                      520
 min int batch size is                       52
 fixed nKL is                                52
 max L of basis functions is                  2
 order of int derivative is                   0
 number of shells is                         76
 number of basis is                         234
 number of cartesian basis is               234
 number of contracted shell pairs          2490
 number of primitive shell pairs           8047
 maxK2 (contraction) of shell pair           36
 max number of K2 of shell pair               1
 max number of CS2 of shell pair            260
 max number of PS2 of shell pair           1524
 mem total for path MDJ                   51378
 -------------------------------------------------------
 Smallest overlap matrix eigenvalue = 1.09E-06

 Q-Chem warning in module /project/projectdirs/jcesr/qchem/qc44/cnl_qc441/compile/cori/qc_src/stvman/mkSTV.C, line 257:

 Overlap eigenvalue is smaller than square root of threshold


 Scale SEOQF with 1.000000e-01/1.000000e-01/1.000000e-01

 Standard Electronic Orientation quadrupole field applied
 Nucleus-field energy     =     0.0000000163 hartrees
 Guess from superposition of atomic densities
 Warning:  Energy on first SCF cycle will be non-variational
 A restricted hybrid HF-DFT SCF calculation will be
 performed using Pulay DIIS extrapolation
 Exchange:     0.2000 Hartree-Fock + 0.0800 Slater + 0.7200 B88
 Correlation:  0.1900 VWN1RPA + 0.8100 LYP
 Using SG-1 standard quadrature grid
 SCF converges when DIIS error is below 1.0E-08
 ---------------------------------------
  Cycle       Energy         DIIS Error
 ---------------------------------------
    1   -1107.2265420945      4.44E-02
    2   -1114.5288147354      1.42E-01
    3   -1123.7513205080      6.77E-01
    4   -1105.9633112253      4.64E-01
    5   -1091.5256576548      8.86E-01
    6   -1100.2894025756      2.31E-01
    7   -1076.6865574899      1.51E-01
    8   -1086.1138434561      3.88E-02
    9   -1091.4030101518      1.08E-01
   10   -1105.7778592876      3.55E-02
   11   -1102.6004555644      3.83E-02
   12   -1102.7420829507      3.57E-02
   13   -1103.8130136279      3.23E-02
   14   -1103.1645029168      5.12E-02
   15   -1103.5466734621      2.41E-02
   16   -1104.5741616428      5.55E-03
   17   -1104.7482160627      4.30E-03
   18   -1104.7934232312      3.50E-03
   19   -1104.8035573626      3.31E-03
   20   -1104.8054896886      3.24E-03
   21   -1104.8077731467      3.12E-03
   22   -1104.8162268048      2.62E-03
   23   -1104.8356953623      6.63E-04
   24   -1104.8374284608      1.85E-04
   25   -1104.8376486429      4.87E-05
   26   -1104.8376695518      8.74E-06
   27   -1104.8376710106      2.31E-06
   28   -1104.8376742845      4.66E-07
   29   -1104.8376752693      2.55E-07
   30   -1104.8376751953      1.12E-07
   31   -1104.8376753165      4.74E-08
   32   -1104.8376751607      7.32E-08
   33   -1104.8376750745      6.11E-08
   34   -1104.8376751772      5.27E-08
   35   -1104.8376749688      4.16E-08
   36   -1104.8376749678      2.83E-08
   37   -1104.8376750061      6.95E-09 Convergence criterion met
 ---------------------------------------
 SCF time:  CPU 15.88 s  wall 13.48 s
 SCF   energy in the final basis set = -1104.8376750061
 Total energy in the final basis set = -1104.8376750061
 
 --------------------------------------------------------------
             Orbital Energies (a.u.) and Symmetries
 --------------------------------------------------------------
 
 Alpha MOs, Restricted
 -- Occupied --                  
-88.919 -88.919 -10.235 -10.234 -10.223 -10.223 -10.203 -10.203
  1 B     1 A     2 A     2 B     3 B     3 A     4 A     4 B                  
-10.202 -10.202  -7.978  -7.978  -5.942  -5.942  -5.939  -5.939
  5 B     5 A     6 B     6 A     7 B     7 A     8 B     8 A                  
 -5.935  -5.935  -0.900  -0.878  -0.771  -0.744  -0.740  -0.706
  9 B     9 A    10 A    10 B    11 A    11 B    12 A    12 B                  
 -0.603  -0.572  -0.560  -0.535  -0.524  -0.478  -0.418  -0.417
 13 A    13 B    14 A    14 B    15 A    15 B    16 A    16 B                  
 -0.412  -0.406  -0.395  -0.375  -0.375  -0.352  -0.348  -0.264
 17 A    17 B    18 A    19 A    18 B    19 B    20 A    21 A                  
 -0.258  -0.256  -0.231
 20 B    22 A    21 B                                                          
 -- Virtual --                   
 -0.041  -0.025  -0.005  -0.003   0.006   0.012   0.019   0.022
 23 A    22 B    24 A    23 B    25 A    24 B    25 B    26 A                  
  0.027   0.036   0.037   0.040   0.045   0.053   0.064   0.065
 27 A    28 A    26 B    27 B    29 A    28 B    29 B    30 A                  
  0.070   0.073   0.085   0.100   0.103   0.106   0.109   0.110
 30 B    31 A    32 A    31 B    33 A    34 A    35 A    32 B                  
  0.117   0.121   0.124   0.131   0.132   0.133   0.136   0.143
 33 B    34 B    35 B    36 A    36 B    37 A    38 A    37 B                  
  0.148   0.151   0.154   0.162   0.169   0.176   0.178   0.179
 38 B    39 A    40 A    39 B    41 A    40 B    42 A    41 B                  
  0.187   0.189   0.195   0.210   0.213   0.221   0.223   0.229
 43 A    42 B    43 B    44 A    44 B    45 A    45 B    46 A                  
  0.237   0.246   0.261   0.268   0.276   0.281   0.287   0.295
 47 A    46 B    47 B    48 A    49 A    48 B    50 A    49 B                  
  0.312   0.317   0.327   0.336   0.357   0.362   0.376   0.392
 50 B    51 B    51 A    52 A    52 B    53 A    53 B    54 A                  
  0.434   0.469   0.469   0.507   0.516   0.533   0.533   0.577
 54 B    55 B    55 A    56 A    57 A    56 B    57 B    58 B                  
  0.581   0.594   0.620   0.626   0.648   0.664   0.674   0.685
 58 A    59 A    59 B    60 A    60 B    61 B    61 A    62 A                  
  0.698   0.711   0.723   0.726   0.741   0.752   0.764   0.780
 63 A    62 B    63 B    64 A    64 B    65 B    65 A    66 B                  
  0.790   0.804   0.808   0.827   0.840   0.886   0.914   0.938
 66 A    67 B    67 A    68 A    68 B    69 A    69 B    70 A                  
  0.940   0.954   0.961   0.964   0.972   0.986   0.996   1.014
 70 B    71 B    71 A    72 B    72 A    73 A    73 B    74 B                  
  1.018   1.025   1.032   1.075   1.088   1.092   1.110   1.112
 75 B    74 A    75 A    76 A    76 B    77 A    78 A    77 B                  
  1.136   1.181   1.211   1.218   1.262   1.270   1.319   1.350
 78 B    79 A    80 A    79 B    80 B    81 A    81 B    82 A                  
  1.352   1.358   1.367   1.385   1.452   1.469   1.493   1.539
 82 B    83 A    83 B    84 A    85 A    84 B    85 B    86 A                  
  1.554   1.692   1.696   1.772   1.808   1.860   1.879   1.888
 86 B    87 A    87 B    88 A    89 A    88 B    90 A    89 B                  
  1.919   1.928   1.975   1.995   2.004   2.031   2.069   2.109
 90 B    91 A    92 A    91 B    93 A    92 B    93 B    94 A                  
  2.130   2.144   2.184   2.195   2.216   2.265   2.268   2.353
 95 A    94 B    95 B    96 A    96 B    97 B    97 A    98 A                  
  2.369   2.370   2.425   2.436   2.468   2.482   2.499   2.513
 99 A    98 B    99 B   100 A   101 A   100 B   101 B   102 A                  
  2.519   2.524   2.586   2.593   2.604   2.654   2.706   2.707
102 B   103 A   103 B   104 A   104 B   105 A   106 A   105 B                  
  2.758   2.854   2.863   2.894   2.938   3.168   3.188   3.276
106 B   107 A   107 B   108 A   108 B   109 B   109 A   110 B                  
  3.277   3.409   3.432   3.730   3.750   3.973   3.973   4.280
110 A   111 A   111 B   112 A   112 B   113 B   113 A   114 A                  
  4.305   4.321   4.333   4.434   4.538   4.662   4.717
115 A   114 B   115 B   116 A   116 B   117 A   117 B                          
 
 Beta MOs, Restricted
 -- Occupied --                  
-88.919 -88.919 -10.235 -10.234 -10.223 -10.223 -10.203 -10.203
  1 B     1 A     2 A     2 B     3 B     3 A     4 A     4 B                  
-10.202 -10.202  -7.978  -7.978  -5.942  -5.942  -5.939  -5.939
  5 B     5 A     6 B     6 A     7 B     7 A     8 B     8 A                  
 -5.935  -5.935  -0.900  -0.878  -0.771  -0.744  -0.740  -0.706
  9 B     9 A    10 A    10 B    11 A    11 B    12 A    12 B                  
 -0.603  -0.572  -0.560  -0.535  -0.524  -0.478  -0.418  -0.417
 13 A    13 B    14 A    14 B    15 A    15 B    16 A    16 B                  
 -0.412  -0.406  -0.395  -0.375  -0.375  -0.352  -0.348  -0.264
 17 A    17 B    18 A    19 A    18 B    19 B    20 A    21 A                  
 -0.258  -0.256  -0.231
 20 B    22 A    21 B                                                          
 -- Virtual --                   
 -0.041  -0.025  -0.005  -0.003   0.006   0.012   0.019   0.022
 23 A    22 B    24 A    23 B    25 A    24 B    25 B    26 A                  
  0.027   0.036   0.037   0.040   0.045   0.053   0.064   0.065
 27 A    28 A    26 B    27 B    29 A    28 B    29 B    30 A                  
  0.070   0.073   0.085   0.100   0.103   0.106   0.109   0.110
 30 B    31 A    32 A    31 B    33 A    34 A    35 A    32 B                  
  0.117   0.121   0.124   0.131   0.132   0.133   0.136   0.143
 33 B    34 B    35 B    36 A    36 B    37 A    38 A    37 B                  
  0.148   0.151   0.154   0.162   0.169   0.176   0.178   0.179
 38 B    39 A    40 A    39 B    41 A    40 B    42 A    41 B                  
  0.187   0.189   0.195   0.210   0.213   0.221   0.223   0.229
 43 A    42 B    43 B    44 A    44 B    45 A    45 B    46 A                  
  0.237   0.246   0.261   0.268   0.276   0.281   0.287   0.295
 47 A    46 B    47 B    48 A    49 A    48 B    50 A    49 B                  
  0.312   0.317   0.327   0.336   0.357   0.362   0.376   0.392
 50 B    51 B    51 A    52 A    52 B    53 A    53 B    54 A                  
  0.434   0.469   0.469   0.507   0.516   0.533   0.533   0.577
 54 B    55 B    55 A    56 A    57 A    56 B    57 B    58 B                  
  0.581   0.594   0.620   0.626   0.648   0.664   0.674   0.685
 58 A    59 A    59 B    60 A    60 B    61 B    61 A    62 A                  
  0.698   0.711   0.723   0.726   0.741   0.752   0.764   0.780
 63 A    62 B    63 B    64 A    64 B    65 B    65 A    66 B                  
  0.790   0.804   0.808   0.827   0.840   0.886   0.914   0.938
 66 A    67 B    67 A    68 A    68 B    69 A    69 B    70 A                  
  0.940   0.954   0.961   0.964   0.972   0.986   0.996   1.014
 70 B    71 B    71 A    72 B    72 A    73 A    73 B    74 B                  
  1.018   1.025   1.032   1.075   1.088   1.092   1.110   1.112
 75 B    74 A    75 A    76 A    76 B    77 A    78 A    77 B                  
  1.136   1.181   1.211   1.218   1.262   1.270   1.319   1.350
 78 B    79 A    80 A    79 B    80 B    81 A    81 B    82 A                  
  1.352   1.358   1.367   1.385   1.452   1.469   1.493   1.539
 82 B    83 A    83 B    84 A    85 A    84 B    85 B    86 A                  
  1.554   1.692   1.696   1.772   1.808   1.860   1.879   1.888
 86 B    87 A    87 B    88 A    89 A    88 B    90 A    89 B                  
  1.919   1.928   1.975   1.995   2.004   2.031   2.069   2.109
 90 B    91 A    92 A    91 B    93 A    92 B    93 B    94 A                  
  2.130   2.144   2.184   2.195   2.216   2.265   2.268   2.353
 95 A    94 B    95 B    96 A    96 B    97 B    97 A    98 A                  
  2.369   2.370   2.425   2.436   2.468   2.482   2.499   2.513
 99 A    98 B    99 B   100 A   101 A   100 B   101 B   102 A                  
  2.519   2.524   2.586   2.593   2.604   2.654   2.706   2.707
102 B   103 A   103 B   104 A   104 B   105 A   106 A   105 B                  
  2.758   2.854   2.863   2.894   2.938   3.168   3.188   3.276
106 B   107 A   107 B   108 A   108 B   109 B   109 A   110 B                  
  3.277   3.409   3.432   3.730   3.750   3.973   3.973   4.280
110 A   111 A   111 B   112 A   112 B   113 B   113 A   114 A                  
  4.305   4.321   4.333   4.434   4.538   4.662   4.717
115 A   114 B   115 B   116 A   116 B   117 A   117 B                          
 --------------------------------------------------------------
 
          Ground-State Mulliken Net Atomic Charges

     Atom                 Charge (a.u.)
  ----------------------------------------
      1 S                     0.060743
      2 C                    -0.048738
      3 C                    -0.378539
      4 C                     0.270538
      5 C                    -0.342414
      6 H                     0.133603
      7 C                    -0.342414
      8 S                     0.060743
      9 C                     0.270538
     10 C                    -0.048738
     11 C                    -0.378539
     12 H                     0.117980
     13 H                     0.186827
     14 H                     0.117980
     15 H                     0.186827
     16 H                     0.133603
  ----------------------------------------
  Sum of atomic charges =    -0.000000

 -----------------------------------------------------------------
                    Cartesian Multipole Moments
 -----------------------------------------------------------------
    Charge (ESU x 10^10)
                 0.0000
    Dipole Moment (Debye)
         X      -0.0000      Y      -0.0000      Z       0.5419
       Tot       0.5419
    Quadrupole Moments (Debye-Ang)
        XX     -61.2550     XY       1.6845     YY     -71.3568
        XZ      -0.0000     YZ      -0.0000     ZZ     -75.0579
    Octopole Moments (Debye-Ang^2)
       XXX      -0.0000    XXY      -0.0000    XYY      -0.0000
       YYY      -0.0000    XXZ      -7.1658    XYZ      12.7635
       YYZ       6.0554    XZZ      -0.0000    YZZ      -0.0000
       ZZZ      -2.9185
    Hexadecapole Moments (Debye-Ang^3)
      XXXX   -1881.2003   XXXY      -8.3044   XXYY    -416.8480
      XYYY       5.7065   YYYY    -436.9950   XXXZ      -0.0000
      XXYZ      -0.0000   XYYZ      -0.0000   YYYZ      -0.0000
      XXZZ    -417.4380   XYZZ       1.7697   YYZZ    -106.2044
      XZZZ      -0.0000   YZZZ      -0.0000   ZZZZ    -269.4139
 -----------------------------------------------------------------
 Calculating analytic gradient of the SCF energy
 Gradient of SCF Energy
            1           2           3           4           5           6
    1  -0.0005718   0.0005089  -0.0016319   0.0015532  -0.0075129   0.0012175
    2   0.0000577   0.0045320  -0.0031527  -0.0025234   0.0012237  -0.0000997
    3   0.0011906   0.0015495  -0.0004265   0.0022325  -0.0019809  -0.0015498
            7           8           9          10          11          12
    1   0.0075129   0.0005718  -0.0015532  -0.0005089   0.0016319   0.0010928
    2  -0.0012237  -0.0000577   0.0025234  -0.0045320   0.0031527   0.0009502
    3  -0.0019809   0.0011906   0.0022325   0.0015495  -0.0004265  -0.0007046
           13          14          15          16
    1  -0.0019257  -0.0010928   0.0019257  -0.0012175
    2   0.0005766  -0.0009502  -0.0005766   0.0000997
    3  -0.0003109  -0.0007046  -0.0003109  -0.0015498
 Max gradient component =       7.513E-03
 RMS gradient           =       2.273E-03
 Gradient time:  CPU 1.90 s  wall 1.90 s
 Geometry Optimization Parameters
   NAtoms,    NIC,     NZ,  NCons,   NDum,   NFix, NCnnct, MaxDiis
       16     111       0       1       0       0       0       0


** CONSTRAINED OPTIMIZATION IN DELOCALIZED INTERNAL COORDINATES **
   Searching for a Minimum

   Optimization Cycle:   1

                       Coordinates (Angstroms)
     ATOM                X               Y               Z
      1  S         1.7644313666   -1.0253343471   -0.6524027598
      2  C         3.1808721247   -0.1423472504   -0.1877310588
      3  C         2.8688367073    0.9330808166    0.5942566775
      4  C         1.4704152285    1.0675423219    0.8177349252
      5  C         0.7198932247    0.0910954926    0.2054024226
      6  H         1.0283531734    1.8724145068    1.3906124336
      7  C        -0.7198932247   -0.0910954926    0.2054024226
      8  S        -1.7644313666    1.0253343471   -0.6524027598
      9  C        -1.4704152285   -1.0675423219    0.8177349252
     10  C        -3.1808721247    0.1423472504   -0.1877310588
     11  C        -2.8688367073   -0.9330808166    0.5942566775
     12  H        -3.6096638646   -1.6148114553    0.9906560063
     13  H         4.1526573360   -0.4730907879   -0.5208029353
     14  H         3.6096638646    1.6148114553    0.9906560063
     15  H        -4.1526573360    0.4730907879   -0.5208029353
     16  H        -1.0283531734   -1.8724145068    1.3906124336
   Point Group: c2    Number of degrees of freedom:    22


   Energy is  -1104.837675006

              Constraints and their Current Values
                                        Value     Constraint
   Dihedral:        4   5   7   9     -110.000     -110.000

 Attempting to Generate Delocalized Internal Coordinates

 21 Hessian modes will be used to form the next step
  Hessian Eigenvalues:
     0.045000    0.045000    0.045000    0.045002    0.045004    0.045013
     0.159937    0.159990    0.160000    0.221280    0.237833    0.249997
     0.296078    0.314672    0.357149    0.357543    0.360899    0.380793
     0.408411    0.470750    0.505998

 Minimum Search - Taking Simple RFO Step
 Searching for Lamda that Minimizes Along All modes
 Value Taken    Lamda =  -0.00077479
 Step Taken.  Stepsize is  0.087701

                             Maximum     Tolerance    Cnvgd?
         Gradient           0.008080      0.000300      NO
         Displacement       0.050560      0.001200      NO
         Energy change     *********      0.000001      NO


 New Cartesian Coordinates Obtained by Inverse Iteration

 Displacement from previous Coordinates is:  0.186823
 ----------------------------------------------------------------
             Standard Nuclear Orientation (Angstroms)
    I     Atom           X                Y                Z
 ----------------------------------------------------------------
    1      S       1.7807483312    -1.0216651602    -0.6635822887
    2      C       3.1963304736    -0.1503404705    -0.1731145780
    3      C       2.8761842917     0.9400646557     0.5931869164
    4      C       1.4708040758     1.0771331805     0.7999999180
    5      C       0.7259497056     0.0952065051     0.1861050146
    6      H       1.0176063646     1.8772428345     1.3747434759
    7      C      -0.7259497056    -0.0952065051     0.1861050146
    8      S      -1.7807483312     1.0216651602    -0.6635822887
    9      C      -1.4708040758    -1.0771331805     0.7999999180
   10      C      -3.1963304736     0.1503404705    -0.1731145780
   11      C      -2.8761842917    -0.9400646557     0.5931869164
   12      H      -3.6154073900    -1.6203832978     1.0013185427
   13      H       4.1757905857    -0.4914196350    -0.4809312894
   14      H       3.6154073900     1.6203832978     1.0013185427
   15      H      -4.1757905857     0.4914196350    -0.4809312894
   16      H      -1.0176063646    -1.8772428345     1.3747434759
 ----------------------------------------------------------------
 Molecular Point Group                 C2    NOp =  2
 Largest Abelian Subgroup              C2    NOp =  2
 Nuclear Repulsion Energy =   627.6483353270 hartrees
 There are       43 alpha and       43 beta electrons
 Applying Cartesian multipole field
    Component          Value
    ---------          -----
     (2,0,0)        1.00000E-11
     (0,2,0)        2.00000E-11
     (0,0,2)       -3.00000E-11
 Nucleus-field energy     =     0.0000000165 hartrees
 Requested basis set is 6-31++G(d,p)
 There are 76 shells and 234 basis functions
 A cutoff of  1.0D-11 yielded   2486 shell pairs
 There are     24538 function pairs
 Smallest overlap matrix eigenvalue = 1.15E-06

 Q-Chem warning in module /project/projectdirs/jcesr/qchem/qc44/cnl_qc441/compile/cori/qc_src/stvman/mkSTV.C, line 257:

 Overlap eigenvalue is smaller than square root of threshold

 Guess MOs from SCF MO coefficient file
 Reading MOs from coefficient file
 Reading MOs from coefficient file
 A restricted hybrid HF-DFT SCF calculation will be
 performed using Pulay DIIS extrapolation
 Exchange:     0.2000 Hartree-Fock + 0.0800 Slater + 0.7200 B88
 Correlation:  0.1900 VWN1RPA + 0.8100 LYP
 Using SG-1 standard quadrature grid
 SCF converges when DIIS error is below 1.0E-08
 Geometry optimization detected.  Setting ReadMinima to 0
 Setting SaveMinima to 0
 ---------------------------------------
  Cycle       Energy         DIIS Error
 ---------------------------------------
    1   -1104.8203913130      7.95E-04
    2   -1104.8378989457      1.47E-04
    3   -1104.8373951021      2.95E-04
    4   -1104.8380845188      3.61E-05
    5   -1104.8380915621      1.81E-05
    6   -1104.8380939360      3.74E-06
    7   -1104.8380940266      1.58E-06
    8   -1104.8380940426      3.27E-07
    9   -1104.8380940446      6.39E-08
   10   -1104.8380940435      2.75E-08
   11   -1104.8380940451      7.97E-09 Convergence criterion met
 ---------------------------------------
 SCF time:  CPU 5.84 s  wall 5.17 s
 SCF   energy in the final basis set = -1104.8380940451
 Total energy in the final basis set = -1104.8380940451
 
 --------------------------------------------------------------
             Orbital Energies (a.u.) and Symmetries
 --------------------------------------------------------------
 
 Alpha MOs, Restricted
 -- Occupied --                  
-88.919 -88.919 -10.236 -10.236 -10.225 -10.225 -10.204 -10.204
  1 B     1 A     2 A     2 B     3 B     3 A     4 A     4 B                  
-10.203 -10.203  -7.978  -7.978  -5.942  -5.942  -5.939  -5.939
  5 B     5 A     6 B     6 A     7 B     7 A     8 B     8 A                  
 -5.936  -5.936  -0.898  -0.877  -0.769  -0.744  -0.739  -0.705
  9 B     9 A    10 A    10 B    11 A    11 B    12 A    12 B                  
 -0.601  -0.571  -0.560  -0.534  -0.523  -0.478  -0.417  -0.416
 13 A    13 B    14 A    14 B    15 A    15 B    16 A    16 B                  
 -0.411  -0.405  -0.395  -0.375  -0.374  -0.352  -0.348  -0.264
 17 A    17 B    18 A    19 A    18 B    19 B    20 A    21 A                  
 -0.258  -0.256  -0.231
 20 B    22 A    21 B                                                          
 -- Virtual --                   
 -0.042  -0.024  -0.005  -0.003   0.007   0.011   0.019   0.022
 23 A    22 B    24 A    23 B    25 A    24 B    25 B    26 A                  
  0.027   0.035   0.037   0.039   0.045   0.053   0.064   0.064
 27 A    28 A    26 B    27 B    29 A    28 B    29 B    30 A                  
  0.070   0.074   0.085   0.099   0.103   0.106   0.109   0.109
 30 B    31 A    32 A    31 B    33 A    34 A    35 A    32 B                  
  0.117   0.121   0.124   0.130   0.132   0.133   0.135   0.143
 33 B    34 B    35 B    36 A    36 B    37 A    38 A    37 B                  
  0.146   0.150   0.153   0.161   0.168   0.175   0.178   0.178
 38 B    39 A    40 A    39 B    41 A    40 B    42 A    41 B                  
  0.187   0.189   0.195   0.209   0.212   0.222   0.223   0.228
 43 A    42 B    43 B    44 A    44 B    45 A    45 B    46 A                  
  0.236   0.245   0.261   0.267   0.275   0.279   0.287   0.292
 47 A    46 B    47 B    48 A    49 A    48 B    50 A    49 B                  
  0.310   0.315   0.325   0.335   0.357   0.360   0.374   0.390
 50 B    51 B    51 A    52 A    52 B    53 A    53 B    54 A                  
  0.433   0.467   0.468   0.505   0.516   0.530   0.533   0.576
 54 B    55 B    55 A    56 A    57 A    56 B    57 B    58 B                  
  0.581   0.593   0.620   0.626   0.645   0.663   0.674   0.683
 58 A    59 A    59 B    60 A    60 B    61 B    61 A    62 A                  
  0.697   0.710   0.723   0.725   0.737   0.751   0.764   0.779
 63 A    62 B    63 B    64 A    64 B    65 B    65 A    66 B                  
  0.789   0.802   0.806   0.826   0.839   0.883   0.913   0.939
 66 A    67 B    67 A    68 A    68 B    69 A    69 B    70 A                  
  0.941   0.953   0.960   0.964   0.970   0.985   0.995   1.014
 70 B    71 B    71 A    72 B    72 A    73 A    73 B    74 B                  
  1.017   1.025   1.029   1.076   1.086   1.091   1.107   1.111
 75 B    74 A    75 A    76 A    76 B    77 A    78 A    77 B                  
  1.135   1.181   1.208   1.216   1.259   1.268   1.320   1.350
 78 B    79 A    80 A    79 B    80 B    81 A    81 B    82 A                  
  1.350   1.351   1.366   1.388   1.455   1.464   1.488   1.536
 82 B    83 A    83 B    84 A    85 A    84 B    85 B    86 A                  
  1.551   1.690   1.695   1.767   1.802   1.862   1.874   1.884
 86 B    87 A    87 B    88 A    89 A    88 B    90 A    89 B                  
  1.916   1.922   1.967   1.992   2.002   2.026   2.065   2.107
 90 B    91 A    92 A    91 B    93 A    92 B    93 B    94 A                  
  2.128   2.141   2.181   2.191   2.209   2.259   2.263   2.342
 95 A    94 B    95 B    96 A    96 B    97 B    97 A    98 A                  
  2.367   2.368   2.423   2.433   2.466   2.473   2.495   2.508
 99 A    98 B    99 B   100 A   101 A   100 B   101 B   102 A                  
  2.518   2.520   2.580   2.587   2.600   2.648   2.699   2.702
102 B   103 A   103 B   104 A   104 B   105 A   106 A   105 B                  
  2.750   2.844   2.854   2.885   2.931   3.159   3.179   3.269
106 B   107 A   107 B   108 A   108 B   109 B   109 A   110 B                  
  3.271   3.403   3.424   3.720   3.740   3.970   3.972   4.275
110 A   111 A   111 B   112 A   112 B   113 A   113 B   114 A                  
  4.302   4.320   4.329   4.431   4.535   4.658   4.710
115 A   114 B   115 B   116 A   116 B   117 A   117 B                          
 
 Beta MOs, Restricted
 -- Occupied --                  
-88.919 -88.919 -10.236 -10.236 -10.225 -10.225 -10.204 -10.204
  1 B     1 A     2 A     2 B     3 B     3 A     4 A     4 B                  
-10.203 -10.203  -7.978  -7.978  -5.942  -5.942  -5.939  -5.939
  5 B     5 A     6 B     6 A     7 B     7 A     8 B     8 A                  
 -5.936  -5.936  -0.898  -0.877  -0.769  -0.744  -0.739  -0.705
  9 B     9 A    10 A    10 B    11 A    11 B    12 A    12 B                  
 -0.601  -0.571  -0.560  -0.534  -0.523  -0.478  -0.417  -0.416
 13 A    13 B    14 A    14 B    15 A    15 B    16 A    16 B                  
 -0.411  -0.405  -0.395  -0.375  -0.374  -0.352  -0.348  -0.264
 17 A    17 B    18 A    19 A    18 B    19 B    20 A    21 A                  
 -0.258  -0.256  -0.231
 20 B    22 A    21 B                                                          
 -- Virtual --                   
 -0.042  -0.024  -0.005  -0.003   0.007   0.011   0.019   0.022
 23 A    22 B    24 A    23 B    25 A    24 B    25 B    26 A                  
  0.027   0.035   0.037   0.039   0.045   0.053   0.064   0.064
 27 A    28 A    26 B    27 B    29 A    28 B    29 B    30 A                  
  0.070   0.074   0.085   0.099   0.103   0.106   0.109   0.109
 30 B    31 A    32 A    31 B    33 A    34 A    35 A    32 B                  
  0.117   0.121   0.124   0.130   0.132   0.133   0.135   0.143
 33 B    34 B    35 B    36 A    36 B    37 A    38 A    37 B                  
  0.146   0.150   0.153   0.161   0.168   0.175   0.178   0.178
 38 B    39 A    40 A    39 B    41 A    40 B    42 A    41 B                  
  0.187   0.189   0.195   0.209   0.212   0.222   0.223   0.228
 43 A    42 B    43 B    44 A    44 B    45 A    45 B    46 A                  
  0.236   0.245   0.261   0.267   0.275   0.279   0.287   0.292
 47 A    46 B    47 B    48 A    49 A    48 B    50 A    49 B                  
  0.310   0.315   0.325   0.335   0.357   0.360   0.374   0.390
 50 B    51 B    51 A    52 A    52 B    53 A    53 B    54 A                  
  0.433   0.467   0.468   0.505   0.516   0.530   0.533   0.576
 54 B    55 B    55 A    56 A    57 A    56 B    57 B    58 B                  
  0.581   0.593   0.620   0.626   0.645   0.663   0.674   0.683
 58 A    59 A    59 B    60 A    60 B    61 B    61 A    62 A                  
  0.697   0.710   0.723   0.725   0.737   0.751   0.764   0.779
 63 A    62 B    63 B    64 A    64 B    65 B    65 A    66 B                  
  0.789   0.802   0.806   0.826   0.839   0.883   0.913   0.939
 66 A    67 B    67 A    68 A    68 B    69 A    69 B    70 A                  
  0.941   0.953   0.960   0.964   0.970   0.985   0.995   1.014
 70 B    71 B    71 A    72 B    72 A    73 A    73 B    74 B                  
  1.017   1.025   1.029   1.076   1.086   1.091   1.107   1.111
 75 B    74 A    75 A    76 A    76 B    77 A    78 A    77 B                  
  1.135   1.181   1.208   1.216   1.259   1.268   1.320   1.350
 78 B    79 A    80 A    79 B    80 B    81 A    81 B    82 A                  
  1.350   1.351   1.366   1.388   1.455   1.464   1.488   1.536
 82 B    83 A    83 B    84 A    85 A    84 B    85 B    86 A                  
  1.551   1.690   1.695   1.767   1.802   1.862   1.874   1.884
 86 B    87 A    87 B    88 A    89 A    88 B    90 A    89 B                  
  1.916   1.922   1.967   1.992   2.002   2.026   2.065   2.107
 90 B    91 A    92 A    91 B    93 A    92 B    93 B    94 A                  
  2.128   2.141   2.181   2.191   2.209   2.259   2.263   2.342
 95 A    94 B    95 B    96 A    96 B    97 B    97 A    98 A                  
  2.367   2.368   2.423   2.433   2.466   2.473   2.495   2.508
 99 A    98 B    99 B   100 A   101 A   100 B   101 B   102 A                  
  2.518   2.520   2.580   2.587   2.600   2.648   2.699   2.702
102 B   103 A   103 B   104 A   104 B   105 A   106 A   105 B                  
  2.750   2.844   2.854   2.885   2.931   3.159   3.179   3.269
106 B   107 A   107 B   108 A   108 B   109 B   109 A   110 B                  
  3.271   3.403   3.424   3.720   3.740   3.970   3.972   4.275
110 A   111 A   111 B   112 A   112 B   113 A   113 B   114 A                  
  4.302   4.320   4.329   4.431   4.535   4.658   4.710
115 A   114 B   115 B   116 A   116 B   117 A   117 B                          
 --------------------------------------------------------------
 
          Ground-State Mulliken Net Atomic Charges

     Atom                 Charge (a.u.)
  ----------------------------------------
      1 S                     0.061067
      2 C                    -0.051321
      3 C                    -0.369375
      4 C                     0.253320
      5 C                    -0.334344
      6 H                     0.134350
      7 C                    -0.334344
      8 S                     0.061067
      9 C                     0.253320
     10 C                    -0.051321
     11 C                    -0.369375
     12 H                     0.118613
     13 H                     0.187690
     14 H                     0.118613
     15 H                     0.187690
     16 H                     0.134350
  ----------------------------------------
  Sum of atomic charges =    -0.000000

 -----------------------------------------------------------------
                    Cartesian Multipole Moments
 -----------------------------------------------------------------
    Charge (ESU x 10^10)
                 0.0000
    Dipole Moment (Debye)
         X       0.0000      Y      -0.0000      Z       0.5909
       Tot       0.5909
    Quadrupole Moments (Debye-Ang)
        XX     -61.1280     XY       1.5162     YY     -71.4202
        XZ      -0.0000     YZ      -0.0000     ZZ     -75.1677
    Octopole Moments (Debye-Ang^2)
       XXX       0.0000    XXY      -0.0000    XYY      -0.0000
       YYY      -0.0000    XXZ      -5.5571    XYZ      12.8123
       YYZ       6.6062    XZZ       0.0000    YZZ      -0.0000
       ZZZ      -1.4548
    Hexadecapole Moments (Debye-Ang^3)
      XXXX   -1894.2373   XXXY     -11.6544   XXYY    -420.2951
      XYYY       5.9214   YYYY    -439.2364   XXXZ      -0.0000
      XXYZ      -0.0000   XYYZ      -0.0000   YYYZ       0.0000
      XXZZ    -422.3949   XYZZ       2.1427   YYZZ    -106.4210
      XZZZ       0.0000   YZZZ      -0.0000   ZZZZ    -268.6146
 -----------------------------------------------------------------
 Calculating analytic gradient of the SCF energy
 Gradient of SCF Energy
            1           2           3           4           5           6
    1   0.0000126   0.0009275  -0.0001356   0.0003931  -0.0015800   0.0000715
    2   0.0002493   0.0002959  -0.0001669  -0.0014864   0.0015592   0.0005085
    3  -0.0004631   0.0002652  -0.0001365   0.0022571  -0.0011088  -0.0004865
            7           8           9          10          11          12
    1   0.0015800  -0.0000126  -0.0003931  -0.0009275   0.0001356  -0.0001147
    2  -0.0015592  -0.0002493   0.0014864  -0.0002959   0.0001669  -0.0001239
    3  -0.0011088  -0.0004631   0.0022571   0.0002652  -0.0001365   0.0000085
           13          14          15          16
    1  -0.0000108   0.0001147   0.0000108  -0.0000715
    2  -0.0000954   0.0001239   0.0000954  -0.0005085
    3  -0.0003360   0.0000085  -0.0003360  -0.0004865
 Max gradient component =       2.257E-03
 RMS gradient           =       8.069E-04
 Gradient time:  CPU 1.93 s  wall 1.88 s
 Geometry Optimization Parameters
   NAtoms,    NIC,     NZ,  NCons,   NDum,   NFix, NCnnct, MaxDiis
       16     111       0       1       0       0       0       0

 Cartesian Hessian Update
 Hessian Updated using BFGS Update


** CONSTRAINED OPTIMIZATION IN DELOCALIZED INTERNAL COORDINATES **
   Searching for a Minimum

   Optimization Cycle:   2

                       Coordinates (Angstroms)
     ATOM                X               Y               Z
      1  S         1.7807483312   -1.0216651602   -0.6635822887
      2  C         3.1963304736   -0.1503404705   -0.1731145780
      3  C         2.8761842917    0.9400646557    0.5931869164
      4  C         1.4708040758    1.0771331805    0.7999999180
      5  C         0.7259497056    0.0952065051    0.1861050146
      6  H         1.0176063646    1.8772428345    1.3747434759
      7  C        -0.7259497056   -0.0952065051    0.1861050146
      8  S        -1.7807483312    1.0216651602   -0.6635822887
      9  C        -1.4708040758   -1.0771331805    0.7999999180
     10  C        -3.1963304736    0.1503404705   -0.1731145780
     11  C        -2.8761842917   -0.9400646557    0.5931869164
     12  H        -3.6154073900   -1.6203832978    1.0013185427
     13  H         4.1757905857   -0.4914196350   -0.4809312894
     14  H         3.6154073900    1.6203832978    1.0013185427
     15  H        -4.1757905857    0.4914196350   -0.4809312894
     16  H        -1.0176063646   -1.8772428345    1.3747434759
   Point Group: c2    Number of degrees of freedom:    22


   Energy is  -1104.838094045

              Constraints and their Current Values
                                        Value     Constraint
   Dihedral:        4   5   7   9     -110.000     -110.000
 Hessian Updated using BFGS Update

 21 Hessian modes will be used to form the next step
  Hessian Eigenvalues:
     0.035600    0.045000    0.045000    0.045002    0.045008    0.047693
     0.157432    0.159989    0.160088    0.221019    0.238826    0.249173
     0.297513    0.314599    0.357260    0.358559    0.362353    0.385602
     0.431764    0.468438    0.525179

 Minimum Search - Taking Simple RFO Step
 Searching for Lamda that Minimizes Along All modes
 Value Taken    Lamda =  -0.00007635
 Step Taken.  Stepsize is  0.041083

                             Maximum     Tolerance    Cnvgd?
         Gradient           0.001255      0.000300      NO
         Displacement       0.024308      0.001200      NO
         Energy change     -0.000419      0.000001      NO


 New Cartesian Coordinates Obtained by Inverse Iteration

 Displacement from previous Coordinates is:  0.087769
 ----------------------------------------------------------------
             Standard Nuclear Orientation (Angstroms)
    I     Atom           X                Y                Z
 ----------------------------------------------------------------
    1      S       1.7836936074    -1.0256272506    -0.6641685528
    2      C       3.1955179996    -0.1536890393    -0.1662278287
    3      C       2.8727063230     0.9414724373     0.5929568921
    4      C       1.4662447195     1.0808482222     0.7893222447
    5      C       0.7264179929     0.0965532016     0.1743753242
    6      H       1.0082417073     1.8772856384     1.3654438743
    7      C      -0.7264179929    -0.0965532016     0.1743753242
    8      S      -1.7836936074     1.0256272506    -0.6641685528
    9      C      -1.4662447195    -1.0808482222     0.7893222447
   10      C      -3.1955179996     0.1536890393    -0.1662278287
   11      C      -2.8727063230    -0.9414724373     0.5929568921
   12      H      -3.6103790174    -1.6200182698     1.0066955793
   13      H       4.1778623228    -0.4984180977    -0.4606718218
   14      H       3.6103790174     1.6200182698     1.0066955793
   15      H      -4.1778623228     0.4984180977    -0.4606718218
   16      H      -1.0082417073    -1.8772856384     1.3654438743
 ----------------------------------------------------------------
 Molecular Point Group                 C2    NOp =  2
 Largest Abelian Subgroup              C2    NOp =  2
 Nuclear Repulsion Energy =   627.6982273124 hartrees
 There are       43 alpha and       43 beta electrons
 Applying Cartesian multipole field
    Component          Value
    ---------          -----
     (2,0,0)        1.00000E-11
     (0,2,0)        2.00000E-11
     (0,0,2)       -3.00000E-11
 Nucleus-field energy     =     0.0000000166 hartrees
 Requested basis set is 6-31++G(d,p)
 There are 76 shells and 234 basis functions
 A cutoff of  1.0D-11 yielded   2486 shell pairs
 There are     24538 function pairs
 Smallest overlap matrix eigenvalue = 1.13E-06

 Q-Chem warning in module /project/projectdirs/jcesr/qchem/qc44/cnl_qc441/compile/cori/qc_src/stvman/mkSTV.C, line 257:

 Overlap eigenvalue is smaller than square root of threshold

 Guess MOs from SCF MO coefficient file
 Reading MOs from coefficient file
 Reading MOs from coefficient file
 A restricted hybrid HF-DFT SCF calculation will be
 performed using Pulay DIIS extrapolation
 Exchange:     0.2000 Hartree-Fock + 0.0800 Slater + 0.7200 B88
 Correlation:  0.1900 VWN1RPA + 0.8100 LYP
 Using SG-1 standard quadrature grid
 SCF converges when DIIS error is below 1.0E-08
 Geometry optimization detected.  Setting ReadMinima to 0
 Setting SaveMinima to 0
 ---------------------------------------
  Cycle       Energy         DIIS Error
 ---------------------------------------
    1   -1104.8402829064      3.06E-04
    2   -1104.8381227905      5.10E-05
    3   -1104.8380795515      9.11E-05
    4   -1104.8381448093      1.51E-05
    5   -1104.8381463208      5.92E-06
    6   -1104.8381465533      2.21E-06
    7   -1104.8381465892      4.55E-07
    8   -1104.8381465908      1.65E-07
    9   -1104.8381465913      2.24E-08
   10   -1104.8381465905      7.24E-09 Convergence criterion met
 ---------------------------------------
 SCF time:  CPU 5.34 s  wall 4.68 s
 SCF   energy in the final basis set = -1104.8381465905
 Total energy in the final basis set = -1104.8381465905
 
 --------------------------------------------------------------
             Orbital Energies (a.u.) and Symmetries
 --------------------------------------------------------------
 
 Alpha MOs, Restricted
 -- Occupied --                  
-88.919 -88.919 -10.236 -10.236 -10.224 -10.224 -10.204 -10.204
  1 B     1 A     2 A     2 B     3 B     3 A     4 A     4 B                  
-10.203 -10.203  -7.979  -7.979  -5.943  -5.943  -5.939  -5.939
  5 B     5 A     6 B     6 A     7 B     7 A     8 B     8 A                  
 -5.936  -5.936  -0.898  -0.877  -0.768  -0.744  -0.740  -0.705
  9 B     9 A    10 A    10 B    11 A    11 B    12 A    12 B                  
 -0.601  -0.571  -0.560  -0.534  -0.523  -0.478  -0.417  -0.416
 13 A    13 B    14 A    14 B    15 A    15 B    16 A    16 B                  
 -0.411  -0.405  -0.394  -0.376  -0.374  -0.353  -0.348  -0.264
 17 A    17 B    18 A    19 A    18 B    19 B    20 A    21 A                  
 -0.258  -0.256  -0.231
 20 B    22 A    21 B                                                          
 -- Virtual --                   
 -0.042  -0.024  -0.005  -0.003   0.007   0.011   0.019   0.022
 23 A    22 B    24 A    23 B    25 A    24 B    25 B    26 A                  
  0.027   0.035   0.037   0.039   0.045   0.053   0.064   0.064
 27 A    28 A    26 B    27 B    29 A    28 B    29 B    30 A                  
  0.070   0.074   0.086   0.099   0.103   0.106   0.109   0.109
 30 B    31 A    32 A    31 B    33 A    34 A    35 A    32 B                  
  0.117   0.121   0.124   0.131   0.132   0.133   0.135   0.143
 33 B    34 B    35 B    36 A    36 B    37 A    38 A    37 B                  
  0.146   0.151   0.154   0.161   0.167   0.175   0.178   0.179
 38 B    39 A    40 A    39 B    41 A    40 B    42 A    41 B                  
  0.187   0.189   0.195   0.208   0.211   0.222   0.224   0.228
 43 A    42 B    43 B    44 A    44 B    45 A    45 B    46 A                  
  0.236   0.245   0.262   0.267   0.274   0.279   0.288   0.292
 47 A    46 B    47 B    48 A    49 A    48 B    50 A    49 B                  
  0.311   0.314   0.325   0.335   0.358   0.360   0.374   0.389
 50 B    51 B    51 A    52 A    52 B    53 A    53 B    54 A                  
  0.434   0.467   0.469   0.506   0.516   0.529   0.532   0.576
 54 B    55 B    55 A    56 A    57 A    56 B    57 B    58 B                  
  0.581   0.594   0.620   0.625   0.645   0.663   0.674   0.682
 58 A    59 A    59 B    60 A    60 B    61 B    61 A    62 A                  
  0.697   0.711   0.723   0.725   0.738   0.752   0.764   0.779
 63 A    62 B    63 B    64 A    64 B    65 B    65 A    66 B                  
  0.790   0.802   0.805   0.826   0.839   0.883   0.914   0.939
 66 A    67 B    67 A    68 A    68 B    69 A    69 B    70 A                  
  0.942   0.952   0.960   0.965   0.971   0.986   0.995   1.014
 70 B    71 B    71 A    72 B    72 A    73 A    73 B    74 B                  
  1.017   1.024   1.028   1.075   1.087   1.091   1.107   1.111
 75 B    74 A    75 A    76 A    76 B    77 A    78 A    77 B                  
  1.136   1.181   1.208   1.215   1.260   1.268   1.320   1.349
 78 B    79 A    80 A    79 B    80 B    81 A    81 B    82 A                  
  1.351   1.351   1.366   1.390   1.459   1.462   1.486   1.534
 82 B    83 A    83 B    84 A    85 A    84 B    85 B    86 A                  
  1.551   1.690   1.694   1.767   1.800   1.865   1.873   1.884
 86 B    87 A    87 B    88 A    89 A    88 B    90 A    89 B                  
  1.917   1.922   1.966   1.993   2.003   2.026   2.066   2.108
 90 B    91 A    92 A    91 B    93 A    92 B    93 B    94 A                  
  2.128   2.141   2.181   2.191   2.209   2.259   2.264   2.341
 95 A    94 B    95 B    96 A    96 B    97 B    97 A    98 A                  
  2.367   2.369   2.424   2.434   2.466   2.471   2.495   2.506
 99 A    98 B    99 B   100 A   101 A   100 B   101 B   102 A                  
  2.519   2.521   2.579   2.587   2.601   2.648   2.698   2.703
102 B   103 A   103 B   104 A   104 B   105 A   106 A   105 B                  
  2.750   2.844   2.853   2.886   2.931   3.159   3.179   3.268
106 B   107 A   107 B   108 A   108 B   109 B   109 A   110 B                  
  3.271   3.402   3.424   3.721   3.741   3.970   3.973   4.275
110 A   111 A   111 B   112 A   112 B   113 A   113 B   114 A                  
  4.302   4.319   4.329   4.431   4.535   4.658   4.710
115 A   114 B   115 B   116 A   116 B   117 A   117 B                          
 
 Beta MOs, Restricted
 -- Occupied --                  
-88.919 -88.919 -10.236 -10.236 -10.224 -10.224 -10.204 -10.204
  1 B     1 A     2 A     2 B     3 B     3 A     4 A     4 B                  
-10.203 -10.203  -7.979  -7.979  -5.943  -5.943  -5.939  -5.939
  5 B     5 A     6 B     6 A     7 B     7 A     8 B     8 A                  
 -5.936  -5.936  -0.898  -0.877  -0.768  -0.744  -0.740  -0.705
  9 B     9 A    10 A    10 B    11 A    11 B    12 A    12 B                  
 -0.601  -0.571  -0.560  -0.534  -0.523  -0.478  -0.417  -0.416
 13 A    13 B    14 A    14 B    15 A    15 B    16 A    16 B                  
 -0.411  -0.405  -0.394  -0.376  -0.374  -0.353  -0.348  -0.264
 17 A    17 B    18 A    19 A    18 B    19 B    20 A    21 A                  
 -0.258  -0.256  -0.231
 20 B    22 A    21 B                                                          
 -- Virtual --                   
 -0.042  -0.024  -0.005  -0.003   0.007   0.011   0.019   0.022
 23 A    22 B    24 A    23 B    25 A    24 B    25 B    26 A                  
  0.027   0.035   0.037   0.039   0.045   0.053   0.064   0.064
 27 A    28 A    26 B    27 B    29 A    28 B    29 B    30 A                  
  0.070   0.074   0.086   0.099   0.103   0.106   0.109   0.109
 30 B    31 A    32 A    31 B    33 A    34 A    35 A    32 B                  
  0.117   0.121   0.124   0.131   0.132   0.133   0.135   0.143
 33 B    34 B    35 B    36 A    36 B    37 A    38 A    37 B                  
  0.146   0.151   0.154   0.161   0.167   0.175   0.178   0.179
 38 B    39 A    40 A    39 B    41 A    40 B    42 A    41 B                  
  0.187   0.189   0.195   0.208   0.211   0.222   0.224   0.228
 43 A    42 B    43 B    44 A    44 B    45 A    45 B    46 A                  
  0.236   0.245   0.262   0.267   0.274   0.279   0.288   0.292
 47 A    46 B    47 B    48 A    49 A    48 B    50 A    49 B                  
  0.311   0.314   0.325   0.335   0.358   0.360   0.374   0.389
 50 B    51 B    51 A    52 A    52 B    53 A    53 B    54 A                  
  0.434   0.467   0.469   0.506   0.516   0.529   0.532   0.576
 54 B    55 B    55 A    56 A    57 A    56 B    57 B    58 B                  
  0.581   0.594   0.620   0.625   0.645   0.663   0.674   0.682
 58 A    59 A    59 B    60 A    60 B    61 B    61 A    62 A                  
  0.697   0.711   0.723   0.725   0.738   0.752   0.764   0.779
 63 A    62 B    63 B    64 A    64 B    65 B    65 A    66 B                  
  0.790   0.802   0.805   0.826   0.839   0.883   0.914   0.939
 66 A    67 B    67 A    68 A    68 B    69 A    69 B    70 A                  
  0.942   0.952   0.960   0.965   0.971   0.986   0.995   1.014
 70 B    71 B    71 A    72 B    72 A    73 A    73 B    74 B                  
  1.017   1.024   1.028   1.075   1.087   1.091   1.107   1.111
 75 B    74 A    75 A    76 A    76 B    77 A    78 A    77 B                  
  1.136   1.181   1.208   1.215   1.260   1.268   1.320   1.349
 78 B    79 A    80 A    79 B    80 B    81 A    81 B    82 A                  
  1.351   1.351   1.366   1.390   1.459   1.462   1.486   1.534
 82 B    83 A    83 B    84 A    85 A    84 B    85 B    86 A                  
  1.551   1.690   1.694   1.767   1.800   1.865   1.873   1.884
 86 B    87 A    87 B    88 A    89 A    88 B    90 A    89 B                  
  1.917   1.922   1.966   1.993   2.003   2.026   2.066   2.108
 90 B    91 A    92 A    91 B    93 A    92 B    93 B    94 A                  
  2.128   2.141   2.181   2.191   2.209   2.259   2.264   2.341
 95 A    94 B    95 B    96 A    96 B    97 B    97 A    98 A                  
  2.367   2.369   2.424   2.434   2.466   2.471   2.495   2.506
 99 A    98 B    99 B   100 A   101 A   100 B   101 B   102 A                  
  2.519   2.521   2.579   2.587   2.601   2.648   2.698   2.703
102 B   103 A   103 B   104 A   104 B   105 A   106 A   105 B                  
  2.750   2.844   2.853   2.886   2.931   3.159   3.179   3.268
106 B   107 A   107 B   108 A   108 B   109 B   109 A   110 B                  
  3.271   3.402   3.424   3.721   3.741   3.970   3.973   4.275
110 A   111 A   111 B   112 A   112 B   113 A   113 B   114 A                  
  4.302   4.319   4.329   4.431   4.535   4.658   4.710
115 A   114 B   115 B   116 A   116 B   117 A   117 B                          
 --------------------------------------------------------------
 
          Ground-State Mulliken Net Atomic Charges

     Atom                 Charge (a.u.)
  ----------------------------------------
      1 S                     0.062615
      2 C                    -0.053494
      3 C                    -0.366695
      4 C                     0.249851
      5 C                    -0.332753
      6 H                     0.134657
      7 C                    -0.332753
      8 S                     0.062615
      9 C                     0.249851
     10 C                    -0.053494
     11 C                    -0.366695
     12 H                     0.118484
     13 H                     0.187336
     14 H                     0.118484
     15 H                     0.187336
     16 H                     0.134657
  ----------------------------------------
  Sum of atomic charges =     0.000000

 -----------------------------------------------------------------
                    Cartesian Multipole Moments
 -----------------------------------------------------------------
    Charge (ESU x 10^10)
                 0.0000
    Dipole Moment (Debye)
         X      -0.0000      Y       0.0000      Z       0.6227
       Tot       0.6227
    Quadrupole Moments (Debye-Ang)
        XX     -61.1774     XY       1.4178     YY     -71.4013
        XZ      -0.0000     YZ      -0.0000     ZZ     -75.1759
    Octopole Moments (Debye-Ang^2)
       XXX      -0.0000    XXY      -0.0000    XYY      -0.0000
       YYY       0.0000    XXZ      -4.7273    XYZ      12.7795
       YYZ       6.7544    XZZ      -0.0000    YZZ      -0.0000
       ZZZ      -0.8800
    Hexadecapole Moments (Debye-Ang^3)
      XXXX   -1893.5668   XXXY     -12.0287   XXYY    -420.2710
      XYYY       6.7839   YYYY    -441.2940   XXXZ      -0.0000
      XXYZ      -0.0000   XYYZ      -0.0000   YYYZ      -0.0000
      XXZZ    -422.4579   XYZZ       2.7453   YYZZ    -106.5249
      XZZZ      -0.0000   YZZZ      -0.0000   ZZZZ    -266.7552
 -----------------------------------------------------------------
 Calculating analytic gradient of the SCF energy
 Gradient of SCF Energy
            1           2           3           4           5           6
    1   0.0000395  -0.0000084  -0.0000672   0.0001809   0.0001670  -0.0000569
    2  -0.0001407  -0.0001347   0.0003432  -0.0013134   0.0020333   0.0003006
    3  -0.0006753   0.0000017  -0.0000347   0.0018459  -0.0009895  -0.0001774
            7           8           9          10          11          12
    1  -0.0001670  -0.0000395  -0.0001809   0.0000084   0.0000672  -0.0000630
    2  -0.0020333   0.0001407   0.0013134   0.0001347  -0.0003432  -0.0001044
    3  -0.0009895  -0.0006753   0.0018459   0.0000017  -0.0000347   0.0001397
           13          14          15          16
    1   0.0000678   0.0000630  -0.0000678   0.0000569
    2  -0.0000894   0.0001044   0.0000894  -0.0003006
    3  -0.0001103   0.0001397  -0.0001103  -0.0001774
 Max gradient component =       2.033E-03
 RMS gradient           =       6.804E-04
 Gradient time:  CPU 1.90 s  wall 1.89 s
 Geometry Optimization Parameters
   NAtoms,    NIC,     NZ,  NCons,   NDum,   NFix, NCnnct, MaxDiis
       16     111       0       1       0       0       0       0

 Cartesian Hessian Update
 Hessian Updated using BFGS Update


** CONSTRAINED OPTIMIZATION IN DELOCALIZED INTERNAL COORDINATES **
   Searching for a Minimum

   Optimization Cycle:   3

                       Coordinates (Angstroms)
     ATOM                X               Y               Z
      1  S         1.7836936074   -1.0256272506   -0.6641685528
      2  C         3.1955179996   -0.1536890393   -0.1662278287
      3  C         2.8727063230    0.9414724373    0.5929568921
      4  C         1.4662447195    1.0808482222    0.7893222447
      5  C         0.7264179929    0.0965532016    0.1743753242
      6  H         1.0082417073    1.8772856384    1.3654438743
      7  C        -0.7264179929   -0.0965532016    0.1743753242
      8  S        -1.7836936074    1.0256272506   -0.6641685528
      9  C        -1.4662447195   -1.0808482222    0.7893222447
     10  C        -3.1955179996    0.1536890393   -0.1662278287
     11  C        -2.8727063230   -0.9414724373    0.5929568921
     12  H        -3.6103790174   -1.6200182698    1.0066955793
     13  H         4.1778623228   -0.4984180977   -0.4606718218
     14  H         3.6103790174    1.6200182698    1.0066955793
     15  H        -4.1778623228    0.4984180977   -0.4606718218
     16  H        -1.0082417073   -1.8772856384    1.3654438743
   Point Group: c2    Number of degrees of freedom:    22


   Energy is  -1104.838146590

              Constraints and their Current Values
                                        Value     Constraint
   Dihedral:        4   5   7   9     -110.000     -110.000
 Hessian Updated using BFGS Update

 21 Hessian modes will be used to form the next step
  Hessian Eigenvalues:
     0.017889    0.045000    0.045001    0.045006    0.045717    0.047997
     0.156724    0.160044    0.160556    0.222566    0.247973    0.279745
     0.295182    0.313930    0.357353    0.358188    0.361891    0.395364
     0.429775    0.485021    0.519943

 Minimum Search - Taking Simple RFO Step
 Searching for Lamda that Minimizes Along All modes
 Value Taken    Lamda =  -0.00004419
 Step Taken.  Stepsize is  0.047218

                             Maximum     Tolerance    Cnvgd?
         Gradient           0.000642      0.000300      NO
         Displacement       0.026517      0.001200      NO
         Energy change     -0.000053      0.000001      NO


 New Cartesian Coordinates Obtained by Inverse Iteration

 Displacement from previous Coordinates is:  0.097315
 ----------------------------------------------------------------
             Standard Nuclear Orientation (Angstroms)
    I     Atom           X                Y                Z
 ----------------------------------------------------------------
    1      S       1.7882209564    -1.0306602719    -0.6599893601
    2      C       3.1969861787    -0.1573351694    -0.1576389288
    3      C       2.8699343493     0.9424643830     0.5925240707
    4      C       1.4620197813     1.0847826735     0.7769915898
    5      C       0.7262103192     0.0982166381     0.1614758074
    6      H       0.9998954668     1.8786301832     1.3529896203
    7      C      -0.7262103192    -0.0982166381     0.1614758074
    8      S      -1.7882209564     1.0306602719    -0.6599893601
    9      C      -1.4620197813    -1.0847826735     0.7769915898
   10      C      -3.1969861787     0.1573351694    -0.1576389288
   11      C      -2.8699343493    -0.9424643830     0.5925240707
   12      H      -3.6057227478    -1.6203488613     1.0100145692
   13      H       4.1819713480    -0.5053766283    -0.4386416571
   14      H       3.6057227478     1.6203488613     1.0100145692
   15      H      -4.1819713480     0.5053766283    -0.4386416571
   16      H      -0.9998954668    -1.8786301832     1.3529896203
 ----------------------------------------------------------------
 Molecular Point Group                 C2    NOp =  2
 Largest Abelian Subgroup              C2    NOp =  2
 Nuclear Repulsion Energy =   627.7722833923 hartrees
 There are       43 alpha and       43 beta electrons
 Applying Cartesian multipole field
    Component          Value
    ---------          -----
     (2,0,0)        1.00000E-11
     (0,2,0)        2.00000E-11
     (0,0,2)       -3.00000E-11
 Nucleus-field energy     =     0.0000000167 hartrees
 Requested basis set is 6-31++G(d,p)
 There are 76 shells and 234 basis functions
 A cutoff of  1.0D-11 yielded   2486 shell pairs
 There are     24538 function pairs
 Smallest overlap matrix eigenvalue = 1.12E-06

 Q-Chem warning in module /project/projectdirs/jcesr/qchem/qc44/cnl_qc441/compile/cori/qc_src/stvman/mkSTV.C, line 257:

 Overlap eigenvalue is smaller than square root of threshold

 Guess MOs from SCF MO coefficient file
 Reading MOs from coefficient file
 Reading MOs from coefficient file
 A restricted hybrid HF-DFT SCF calculation will be
 performed using Pulay DIIS extrapolation
 Exchange:     0.2000 Hartree-Fock + 0.0800 Slater + 0.7200 B88
 Correlation:  0.1900 VWN1RPA + 0.8100 LYP
 Using SG-1 standard quadrature grid
 SCF converges when DIIS error is below 1.0E-08
 Geometry optimization detected.  Setting ReadMinima to 0
 Setting SaveMinima to 0
 ---------------------------------------
  Cycle       Energy         DIIS Error
 ---------------------------------------
    1   -1104.8408387128      3.67E-04
    2   -1104.8381505638      4.95E-05
    3   -1104.8381105656      8.89E-05
    4   -1104.8381724176      1.17E-05
    5   -1104.8381731955      6.25E-06
    6   -1104.8381734454      2.47E-06
    7   -1104.8381734868      5.63E-07
    8   -1104.8381734904      1.83E-07
    9   -1104.8381734903      2.65E-08
   10   -1104.8381734908      1.21E-08
   11   -1104.8381734904      3.30E-09 Convergence criterion met
 ---------------------------------------
 SCF time:  CPU 5.79 s  wall 5.06 s
 SCF   energy in the final basis set = -1104.8381734904
 Total energy in the final basis set = -1104.8381734904
 
 --------------------------------------------------------------
             Orbital Energies (a.u.) and Symmetries
 --------------------------------------------------------------
 
 Alpha MOs, Restricted
 -- Occupied --                  
-88.919 -88.919 -10.236 -10.236 -10.224 -10.224 -10.204 -10.204
  1 B     1 A     2 A     2 B     3 B     3 A     4 A     4 B                  
-10.203 -10.203  -7.979  -7.979  -5.943  -5.943  -5.939  -5.939
  5 B     5 A     6 B     6 A     7 B     7 A     8 B     8 A                  
 -5.936  -5.936  -0.898  -0.878  -0.769  -0.744  -0.740  -0.705
  9 B     9 A    10 A    10 B    11 A    11 B    12 A    12 B                  
 -0.601  -0.572  -0.560  -0.534  -0.523  -0.478  -0.417  -0.416
 13 A    13 B    14 A    14 B    15 A    15 B    16 A    16 B                  
 -0.410  -0.406  -0.394  -0.376  -0.375  -0.353  -0.348  -0.264
 17 A    17 B    18 A    19 A    18 B    19 B    20 A    21 A                  
 -0.258  -0.257  -0.230
 20 B    22 A    21 B                                                          
 -- Virtual --                   
 -0.042  -0.023  -0.006  -0.003   0.007   0.011   0.019   0.022
 23 A    22 B    24 A    23 B    25 A    24 B    25 B    26 A                  
  0.027   0.035   0.037   0.039   0.045   0.053   0.064   0.064
 27 A    28 A    26 B    27 B    29 A    28 B    29 B    30 A                  
  0.070   0.074   0.086   0.098   0.103   0.106   0.109   0.109
 30 B    31 A    32 A    31 B    33 A    34 A    35 A    32 B                  
  0.117   0.121   0.125   0.131   0.132   0.133   0.135   0.143
 33 B    34 B    35 B    36 A    36 B    37 A    38 A    37 B                  
  0.145   0.151   0.154   0.161   0.167   0.174   0.179   0.179
 38 B    39 A    40 A    39 B    41 A    40 B    42 A    41 B                  
  0.187   0.189   0.195   0.208   0.211   0.222   0.224   0.229
 43 A    42 B    43 B    44 A    44 B    45 A    45 B    46 A                  
  0.236   0.244   0.262   0.268   0.274   0.279   0.288   0.292
 47 A    46 B    47 B    48 A    49 A    48 B    50 A    49 B                  
  0.311   0.314   0.325   0.336   0.358   0.360   0.373   0.389
 50 B    51 B    51 A    52 A    52 B    53 A    53 B    54 A                  
  0.434   0.467   0.469   0.507   0.516   0.528   0.532   0.575
 54 B    55 B    55 A    56 A    57 A    56 B    57 B    58 B                  
  0.582   0.594   0.620   0.624   0.646   0.662   0.674   0.682
 58 A    59 A    59 B    60 A    60 B    61 B    61 A    62 A                  
  0.697   0.712   0.723   0.725   0.738   0.753   0.764   0.779
 63 A    62 B    63 B    64 A    64 B    65 B    65 A    66 B                  
  0.790   0.803   0.805   0.826   0.839   0.882   0.914   0.938
 66 A    67 B    67 A    68 A    68 B    69 A    69 B    70 A                  
  0.943   0.951   0.960   0.965   0.971   0.986   0.995   1.014
 70 B    71 B    71 A    72 B    72 A    73 A    73 B    74 B                  
  1.018   1.023   1.028   1.075   1.088   1.091   1.106   1.111
 75 B    74 A    75 A    76 A    76 B    77 A    78 A    77 B                  
  1.136   1.182   1.208   1.215   1.260   1.268   1.320   1.347
 78 B    79 A    80 A    79 B    80 B    81 A    81 B    82 A                  
  1.351   1.352   1.366   1.393   1.460   1.463   1.483   1.532
 82 B    83 A    83 B    84 A    84 B    85 A    85 B    86 A                  
  1.552   1.690   1.694   1.766   1.798   1.867   1.873   1.884
 86 B    87 A    87 B    88 A    89 A    88 B    90 A    89 B                  
  1.919   1.923   1.966   1.994   2.003   2.027   2.067   2.109
 90 B    91 A    92 A    91 B    93 A    92 B    93 B    94 A                  
  2.128   2.142   2.182   2.191   2.210   2.259   2.265   2.340
 95 A    94 B    95 B    96 A    96 B    97 B    97 A    98 A                  
  2.367   2.369   2.425   2.435   2.467   2.470   2.495   2.505
 99 A    98 B    99 B   100 A   101 A   100 B   101 B   102 A                  
  2.519   2.523   2.579   2.587   2.603   2.649   2.698   2.703
102 B   103 A   103 B   104 A   104 B   105 A   106 A   105 B                  
  2.750   2.844   2.853   2.887   2.931   3.159   3.180   3.269
106 B   107 A   107 B   108 A   108 B   109 B   109 A   110 B                  
  3.271   3.402   3.424   3.721   3.741   3.970   3.973   4.275
110 A   111 A   111 B   112 A   112 B   113 A   113 B   114 A                  
  4.303   4.318   4.328   4.431   4.535   4.658   4.710
115 A   114 B   115 B   116 A   116 B   117 A   117 B                          
 
 Beta MOs, Restricted
 -- Occupied --                  
-88.919 -88.919 -10.236 -10.236 -10.224 -10.224 -10.204 -10.204
  1 B     1 A     2 A     2 B     3 B     3 A     4 A     4 B                  
-10.203 -10.203  -7.979  -7.979  -5.943  -5.943  -5.939  -5.939
  5 B     5 A     6 B     6 A     7 B     7 A     8 B     8 A                  
 -5.936  -5.936  -0.898  -0.878  -0.769  -0.744  -0.740  -0.705
  9 B     9 A    10 A    10 B    11 A    11 B    12 A    12 B                  
 -0.601  -0.572  -0.560  -0.534  -0.523  -0.478  -0.417  -0.416
 13 A    13 B    14 A    14 B    15 A    15 B    16 A    16 B                  
 -0.410  -0.406  -0.394  -0.376  -0.375  -0.353  -0.348  -0.264
 17 A    17 B    18 A    19 A    18 B    19 B    20 A    21 A                  
 -0.258  -0.257  -0.230
 20 B    22 A    21 B                                                          
 -- Virtual --                   
 -0.042  -0.023  -0.006  -0.003   0.007   0.011   0.019   0.022
 23 A    22 B    24 A    23 B    25 A    24 B    25 B    26 A                  
  0.027   0.035   0.037   0.039   0.045   0.053   0.064   0.064
 27 A    28 A    26 B    27 B    29 A    28 B    29 B    30 A                  
  0.070   0.074   0.086   0.098   0.103   0.106   0.109   0.109
 30 B    31 A    32 A    31 B    33 A    34 A    35 A    32 B                  
  0.117   0.121   0.125   0.131   0.132   0.133   0.135   0.143
 33 B    34 B    35 B    36 A    36 B    37 A    38 A    37 B                  
  0.145   0.151   0.154   0.161   0.167   0.174   0.179   0.179
 38 B    39 A    40 A    39 B    41 A    40 B    42 A    41 B                  
  0.187   0.189   0.195   0.208   0.211   0.222   0.224   0.229
 43 A    42 B    43 B    44 A    44 B    45 A    45 B    46 A                  
  0.236   0.244   0.262   0.268   0.274   0.279   0.288   0.292
 47 A    46 B    47 B    48 A    49 A    48 B    50 A    49 B                  
  0.311   0.314   0.325   0.336   0.358   0.360   0.373   0.389
 50 B    51 B    51 A    52 A    52 B    53 A    53 B    54 A                  
  0.434   0.467   0.469   0.507   0.516   0.528   0.532   0.575
 54 B    55 B    55 A    56 A    57 A    56 B    57 B    58 B                  
  0.582   0.594   0.620   0.624   0.646   0.662   0.674   0.682
 58 A    59 A    59 B    60 A    60 B    61 B    61 A    62 A                  
  0.697   0.712   0.723   0.725   0.738   0.753   0.764   0.779
 63 A    62 B    63 B    64 A    64 B    65 B    65 A    66 B                  
  0.790   0.803   0.805   0.826   0.839   0.882   0.914   0.938
 66 A    67 B    67 A    68 A    68 B    69 A    69 B    70 A                  
  0.943   0.951   0.960   0.965   0.971   0.986   0.995   1.014
 70 B    71 B    71 A    72 B    72 A    73 A    73 B    74 B                  
  1.018   1.023   1.028   1.075   1.088   1.091   1.106   1.111
 75 B    74 A    75 A    76 A    76 B    77 A    78 A    77 B                  
  1.136   1.182   1.208   1.215   1.260   1.268   1.320   1.347
 78 B    79 A    80 A    79 B    80 B    81 A    81 B    82 A                  
  1.351   1.352   1.366   1.393   1.460   1.463   1.483   1.532
 82 B    83 A    83 B    84 A    84 B    85 A    85 B    86 A                  
  1.552   1.690   1.694   1.766   1.798   1.867   1.873   1.884
 86 B    87 A    87 B    88 A    89 A    88 B    90 A    89 B                  
  1.919   1.923   1.966   1.994   2.003   2.027   2.067   2.109
 90 B    91 A    92 A    91 B    93 A    92 B    93 B    94 A                  
  2.128   2.142   2.182   2.191   2.210   2.259   2.265   2.340
 95 A    94 B    95 B    96 A    96 B    97 B    97 A    98 A                  
  2.367   2.369   2.425   2.435   2.467   2.470   2.495   2.505
 99 A    98 B    99 B   100 A   101 A   100 B   101 B   102 A                  
  2.519   2.523   2.579   2.587   2.603   2.649   2.698   2.703
102 B   103 A   103 B   104 A   104 B   105 A   106 A   105 B                  
  2.750   2.844   2.853   2.887   2.931   3.159   3.180   3.269
106 B   107 A   107 B   108 A   108 B   109 B   109 A   110 B                  
  3.271   3.402   3.424   3.721   3.741   3.970   3.973   4.275
110 A   111 A   111 B   112 A   112 B   113 A   113 B   114 A                  
  4.303   4.318   4.328   4.431   4.535   4.658   4.710
115 A   114 B   115 B   116 A   116 B   117 A   117 B                          
 --------------------------------------------------------------
 
          Ground-State Mulliken Net Atomic Charges

     Atom                 Charge (a.u.)
  ----------------------------------------
      1 S                     0.062186
      2 C                    -0.052587
      3 C                    -0.365495
      4 C                     0.245837
      5 C                    -0.330465
      6 H                     0.134956
      7 C                    -0.330465
      8 S                     0.062186
      9 C                     0.245836
     10 C                    -0.052587
     11 C                    -0.365494
     12 H                     0.118306
     13 H                     0.187262
     14 H                     0.118306
     15 H                     0.187262
     16 H                     0.134956
  ----------------------------------------
  Sum of atomic charges =    -0.000000

 -----------------------------------------------------------------
                    Cartesian Multipole Moments
 -----------------------------------------------------------------
    Charge (ESU x 10^10)
                -0.0000
    Dipole Moment (Debye)
         X      -0.0000      Y      -0.0000      Z       0.6560
       Tot       0.6560
    Quadrupole Moments (Debye-Ang)
        XX     -61.1578     XY       1.3288     YY     -71.3925
        XZ      -0.0000     YZ      -0.0000     ZZ     -75.2152
    Octopole Moments (Debye-Ang^2)
       XXX      -0.0000    XXY      -0.0000    XYY      -0.0000
       YYY      -0.0000    XXZ      -4.0430    XYZ      12.6783
       YYZ       6.8040    XZZ      -0.0000    YZZ      -0.0000
       ZZZ      -0.6270
    Hexadecapole Moments (Debye-Ang^3)
      XXXX   -1893.1610   XXXY     -12.1772   XXYY    -420.6086
      XYYY       7.9934   YYYY    -443.7795   XXXZ      -0.0000
      XXYZ      -0.0000   XYYZ      -0.0000   YYYZ      -0.0000
      XXZZ    -422.8420   XYZZ       3.4690   YYZZ    -106.6141
      XZZZ      -0.0000   YZZZ      -0.0000   ZZZZ    -263.6918
 -----------------------------------------------------------------
 Calculating analytic gradient of the SCF energy
 Gradient of SCF Energy
            1           2           3           4           5           6
    1   0.0000728  -0.0002471   0.0002422  -0.0001186   0.0004939  -0.0000944
    2   0.0001373  -0.0001182   0.0002029  -0.0012432   0.0023216  -0.0000672
    3  -0.0001281  -0.0002125  -0.0001600   0.0014852  -0.0012410   0.0000329
            7           8           9          10          11          12
    1  -0.0004939  -0.0000728   0.0001186   0.0002471  -0.0002422   0.0000046
    2  -0.0023216  -0.0001373   0.0012432   0.0001182  -0.0002029   0.0000864
    3  -0.0012410  -0.0001281   0.0014852  -0.0002125  -0.0001600   0.0001125
           13          14          15          16
    1   0.0000870  -0.0000046  -0.0000870   0.0000944
    2   0.0000059  -0.0000864  -0.0000059   0.0000672
    3   0.0001111   0.0001125   0.0001111   0.0000329
 Max gradient component =       2.322E-03
 RMS gradient           =       6.856E-04
 Gradient time:  CPU 1.89 s  wall 1.88 s
 Geometry Optimization Parameters
   NAtoms,    NIC,     NZ,  NCons,   NDum,   NFix, NCnnct, MaxDiis
       16     111       0       1       0       0       0       0

 Cartesian Hessian Update
 Hessian Updated using BFGS Update


** CONSTRAINED OPTIMIZATION IN DELOCALIZED INTERNAL COORDINATES **
   Searching for a Minimum

   Optimization Cycle:   4

                       Coordinates (Angstroms)
     ATOM                X               Y               Z
      1  S         1.7882209564   -1.0306602719   -0.6599893601
      2  C         3.1969861787   -0.1573351694   -0.1576389288
      3  C         2.8699343493    0.9424643830    0.5925240707
      4  C         1.4620197813    1.0847826735    0.7769915898
[...]
  3.271   3.403   3.424   3.721   3.741   3.971   3.974   4.275
110 A   111 A   111 B   112 A   112 B   113 A   113 B   114 A                  
  4.303   4.317   4.328   4.430   4.535   4.658   4.710
115 A   114 B   115 B   116 A   116 B   117 A   117 B                          
 --------------------------------------------------------------
 
          Ground-State Mulliken Net Atomic Charges

     Atom                 Charge (a.u.)
  ----------------------------------------
      1 S                     0.060636
      2 C                    -0.050092
      3 C                    -0.364309
      4 C                     0.241226
      5 C                    -0.328340
      6 H                     0.135282
      7 C                    -0.328340
      8 S                     0.060636
      9 C                     0.241226
     10 C                    -0.050092
     11 C                    -0.364309
     12 H                     0.118110
     13 H                     0.187487
     14 H                     0.118110
     15 H                     0.187487
     16 H                     0.135282
  ----------------------------------------
  Sum of atomic charges =    -0.000000

 -----------------------------------------------------------------
                    Cartesian Multipole Moments
 -----------------------------------------------------------------
    Charge (ESU x 10^10)
                -0.0000
    Dipole Moment (Debye)
         X      -0.0000      Y       0.0000      Z       0.6586
       Tot       0.6586
    Quadrupole Moments (Debye-Ang)
        XX     -61.1596     XY       1.2971     YY     -71.2898
        XZ       0.0000     YZ       0.0000     ZZ     -75.3359
    Octopole Moments (Debye-Ang^2)
       XXX      -0.0000    XXY       0.0000    XYY      -0.0000
       YYY       0.0000    XXZ      -3.8916    XYZ      12.5400
       YYZ       6.6079    XZZ      -0.0000    YZZ       0.0000
       ZZZ      -1.3325
    Hexadecapole Moments (Debye-Ang^3)
      XXXX   -1893.7893   XXXY     -11.2291   XXYY    -420.6644
      XYYY      10.4784   YYYY    -447.6748   XXXZ       0.0000
      XXYZ       0.0000   XYYZ       0.0000   YYYZ       0.0000
      XXZZ    -423.4156   XYZZ       4.3353   YYZZ    -106.9229
      XZZZ       0.0000   YZZZ       0.0000   ZZZZ    -259.1731
 -----------------------------------------------------------------
 Calculating analytic gradient of the SCF energy
 Gradient of SCF Energy
            1           2           3           4           5           6
    1   0.0000003   0.0000212  -0.0000234   0.0002051  -0.0004421   0.0000026
    2   0.0000022   0.0000131  -0.0000205  -0.0013137   0.0029016  -0.0000085
    3  -0.0000033   0.0000031   0.0000426   0.0019014  -0.0019343   0.0000193
            7           8           9          10          11          12
    1   0.0004421  -0.0000003  -0.0002051  -0.0000212   0.0000234   0.0000013
    2  -0.0029016  -0.0000022   0.0013137  -0.0000131   0.0000205  -0.0000225
    3  -0.0019343  -0.0000033   0.0019014   0.0000031   0.0000426  -0.0000252
           13          14          15          16
    1  -0.0000039  -0.0000013   0.0000039  -0.0000026
    2  -0.0000032   0.0000225   0.0000032   0.0000085
    3  -0.0000036  -0.0000252  -0.0000036   0.0000193
 Max gradient component =       2.902E-03
 RMS gradient           =       8.599E-04
 Gradient time:  CPU 1.88 s  wall 1.88 s
 Geometry Optimization Parameters
   NAtoms,    NIC,     NZ,  NCons,   NDum,   NFix, NCnnct, MaxDiis
       16     111       0       1       0       0       0       0

 Cartesian Hessian Update
 Hessian Updated using BFGS Update


** CONSTRAINED OPTIMIZATION IN DELOCALIZED INTERNAL COORDINATES **
   Searching for a Minimum

   Optimization Cycle:   8

                       Coordinates (Angstroms)
     ATOM                X               Y               Z
      1  S         1.7926018718   -1.0395856742   -0.6488771582
      2  C         3.1990144883   -0.1644518365   -0.1420170023
      3  C         2.8669909352    0.9434415390    0.5937730465
      4  C         1.4581828785    1.0906557606    0.7640600880
      5  C         0.7251817163    0.1011465841    0.1487422739
      6  H         0.9938314897    1.8909442355    1.3292383183
      7  C        -0.7251817163   -0.1011465841    0.1487422739
      8  S        -1.7926018718    1.0395856742   -0.6488771582
      9  C        -1.4581828785   -1.0906557606    0.7640600880
     10  C        -3.1990144883    0.1644518365   -0.1420170023
     11  C        -2.8669909352   -0.9434415390    0.5937730465
     12  H        -3.6000987933   -1.6265615016    1.0075565275
     13  H         4.1850515666   -0.5157602779   -0.4147503823
     14  H         3.6000987933    1.6265615016    1.0075565275
     15  H        -4.1850515666    0.5157602779   -0.4147503823
     16  H        -0.9938314897   -1.8909442355    1.3292383183
   Point Group: c2    Number of degrees of freedom:    22


   Energy is  -1104.838190132

              Constraints and their Current Values
                                        Value     Constraint
   Dihedral:        4   5   7   9     -110.000     -110.000
 Hessian Updated using BFGS Update

 21 Hessian modes will be used to form the next step
  Hessian Eigenvalues:
     0.008448    0.018809    0.042257    0.045002    0.045141    0.048015
     0.156022    0.160246    0.160873    0.222242    0.246895    0.275161
     0.296382    0.314953    0.357303    0.359233    0.362304    0.390137
     0.431232    0.479545    0.526366

 Minimum Search - Taking Simple RFO Step
 Searching for Lamda that Minimizes Along All modes
 Value Taken    Lamda =   0.00000000
 Step Taken.  Stepsize is  0.001648

                             Maximum     Tolerance    Cnvgd?
         Gradient           0.000031      0.000300     YES
         Displacement       0.000955      0.001200     YES
         Energy change     -0.000000      0.000001     YES

 Final energy is   -1104.83819013205     


 ******************************
 **  OPTIMIZATION CONVERGED  **
 ******************************

                       Coordinates (Angstroms)
     ATOM                X               Y               Z
      1  S         1.7926018718   -1.0395856742   -0.6488771582
      2  C         3.1990144883   -0.1644518365   -0.1420170023
      3  C         2.8669909352    0.9434415390    0.5937730465
      4  C         1.4581828785    1.0906557606    0.7640600880
      5  C         0.7251817163    0.1011465841    0.1487422739
      6  H         0.9938314897    1.8909442355    1.3292383183
      7  C        -0.7251817163   -0.1011465841    0.1487422739
      8  S        -1.7926018718    1.0395856742   -0.6488771582
      9  C        -1.4581828785   -1.0906557606    0.7640600880
     10  C        -3.1990144883    0.1644518365   -0.1420170023
     11  C        -2.8669909352   -0.9434415390    0.5937730465
     12  H        -3.6000987933   -1.6265615016    1.0075565275
     13  H         4.1850515666   -0.5157602779   -0.4147503823
     14  H         3.6000987933    1.6265615016    1.0075565275
     15  H        -4.1850515666    0.5157602779   -0.4147503823
     16  H        -0.9938314897   -1.8909442355    1.3292383183

Z-matrix Print:
$molecule
0 1
S 
C  1 1.732271
H  2 1.081698 1 120.148350
C  2 1.370786 1 111.636257 3 -179.990953 0
H  4 1.084120 2 123.390996 1 -179.900111 0
C  4 1.426678 2 112.745919 1 -0.427278 0
H  6 1.084210 4 124.146176 2 -178.835740 0
C  6 1.376603 4 113.470634 2 0.489133 0
C  8 1.464403 6 128.804286 4 -177.557783 0
C  9 1.376603 8 128.804286 6 110.000029 0
H  10 1.084210 9 122.379615 8 1.780609 0
C  10 1.426678 9 113.470634 8 -177.557783 0
H  12 1.084120 10 123.860836 9 179.959083 0
C  12 1.370786 10 112.745919 9 0.489133 0
H  14 1.081698 12 128.215393 10 179.582679 0
S  14 1.732271 12 111.636257 10 -0.427278 0
$end

 
 --------------------------------------------------------------
             Orbital Energies (a.u.) and Symmetries
 --------------------------------------------------------------
 
 Alpha MOs, Restricted
 -- Occupied --                  
-88.919 -88.919 -10.236 -10.236 -10.224 -10.224 -10.204 -10.204
  1 B     1 A     2 A     2 B     3 B     3 A     4 A     4 B                  
-10.203 -10.203  -7.979  -7.979  -5.943  -5.943  -5.939  -5.939
  5 B     5 A     6 B     6 A     7 B     7 A     8 B     8 A                  
 -5.936  -5.936  -0.898  -0.878  -0.769  -0.744  -0.740  -0.705
  9 B     9 A    10 A    10 B    11 A    11 B    12 A    12 B                  
 -0.601  -0.572  -0.560  -0.534  -0.523  -0.478  -0.417  -0.417
 13 A    13 B    14 A    14 B    15 A    15 B    16 A    16 B                  
 -0.410  -0.406  -0.395  -0.376  -0.375  -0.353  -0.348  -0.264
 17 A    17 B    18 A    19 A    18 B    19 B    20 A    21 A                  
 -0.258  -0.257  -0.229
 20 B    22 A    21 B                                                          
 -- Virtual --                   
 -0.042  -0.022  -0.006  -0.003   0.007   0.011   0.019   0.022
 23 A    22 B    24 A    23 B    25 A    24 B    25 B    26 A                  
  0.027   0.035   0.037   0.039   0.045   0.053   0.063   0.063
 27 A    28 A    26 B    27 B    29 A    28 B    29 B    30 A                  
  0.071   0.075   0.086   0.098   0.103   0.106   0.109   0.109
 30 B    31 A    32 A    31 B    33 A    34 A    32 B    35 A                  
  0.117   0.121   0.125   0.131   0.132   0.133   0.135   0.143
 33 B    34 B    35 B    36 A    36 B    37 A    38 A    37 B                  
  0.145   0.151   0.154   0.162   0.167   0.174   0.179   0.179
 38 B    39 A    40 A    39 B    41 A    40 B    42 A    41 B                  
  0.187   0.190   0.196   0.208   0.211   0.223   0.225   0.229
 43 A    42 B    43 B    44 A    44 B    45 A    45 B    46 A                  
  0.235   0.244   0.263   0.268   0.274   0.280   0.288   0.291
 47 A    46 B    47 B    48 A    49 A    48 B    50 A    49 B                  
  0.312   0.314   0.324   0.336   0.358   0.360   0.373   0.390
 50 B    51 B    51 A    52 A    52 B    53 A    53 B    54 A                  
  0.435   0.466   0.469   0.508   0.517   0.528   0.531   0.575
 54 B    55 B    55 A    56 A    57 A    56 B    57 B    58 B                  
  0.582   0.595   0.620   0.622   0.647   0.662   0.675   0.682
 58 A    59 A    59 B    60 A    60 B    61 B    61 A    62 A                  
  0.697   0.712   0.723   0.725   0.738   0.755   0.763   0.779
 63 A    62 B    63 B    64 A    64 B    65 B    65 A    66 B                  
  0.790   0.804   0.805   0.826   0.839   0.882   0.914   0.937
 66 A    67 B    67 A    68 A    68 B    69 A    69 B    70 A                  
  0.944   0.951   0.961   0.964   0.970   0.987   0.995   1.013
 70 B    71 B    71 A    72 B    72 A    73 A    73 B    74 B                  
  1.018   1.022   1.028   1.075   1.089   1.091   1.105   1.112
 75 B    74 A    75 A    76 A    76 B    77 A    78 A    77 B                  
  1.137   1.182   1.208   1.213   1.260   1.267   1.320   1.349
 78 B    79 A    80 A    79 B    80 B    81 A    81 B    82 A                  
  1.351   1.352   1.364   1.393   1.460   1.461   1.485   1.535
 82 B    83 A    83 B    84 A    84 B    85 A    85 B    86 A                  
  1.550   1.688   1.695   1.765   1.796   1.866   1.873   1.885
 86 B    87 A    87 B    88 A    89 A    88 B    90 A    89 B                  
  1.919   1.922   1.966   1.994   2.003   2.030   2.068   2.109
 90 B    91 A    92 A    91 B    93 A    92 B    93 B    94 A                  
  2.128   2.140   2.182   2.189   2.210   2.257   2.265   2.342
 95 A    94 B    95 B    96 A    96 B    97 B    97 A    98 A                  
  2.367   2.369   2.424   2.435   2.467   2.470   2.496   2.506
 99 A    98 B    99 B   100 A   101 A   100 B   101 B   102 A                  
  2.520   2.522   2.579   2.587   2.605   2.648   2.699   2.702
102 B   103 A   103 B   104 A   104 B   105 A   106 A   105 B                  
  2.750   2.844   2.853   2.886   2.931   3.159   3.180   3.269
106 B   107 A   107 B   108 A   108 B   109 B   109 A   110 B                  
  3.271   3.403   3.424   3.721   3.741   3.971   3.974   4.275
110 A   111 A   111 B   112 A   112 B   113 A   113 B   114 A                  
  4.303   4.317   4.328   4.430   4.535   4.658   4.710
115 A   114 B   115 B   116 A   116 B   117 A   117 B                          
 
 Beta MOs, Restricted
 -- Occupied --                  
-88.919 -88.919 -10.236 -10.236 -10.224 -10.224 -10.204 -10.204
  1 B     1 A     2 A     2 B     3 B     3 A     4 A     4 B                  
-10.203 -10.203  -7.979  -7.979  -5.943  -5.943  -5.939  -5.939
  5 B     5 A     6 B     6 A     7 B     7 A     8 B     8 A                  
 -5.936  -5.936  -0.898  -0.878  -0.769  -0.744  -0.740  -0.705
  9 B     9 A    10 A    10 B    11 A    11 B    12 A    12 B                  
 -0.601  -0.572  -0.560  -0.534  -0.523  -0.478  -0.417  -0.417
 13 A    13 B    14 A    14 B    15 A    15 B    16 A    16 B                  
 -0.410  -0.406  -0.395  -0.376  -0.375  -0.353  -0.348  -0.264
 17 A    17 B    18 A    19 A    18 B    19 B    20 A    21 A                  
 -0.258  -0.257  -0.229
 20 B    22 A    21 B                                                          
 -- Virtual --                   
 -0.042  -0.022  -0.006  -0.003   0.007   0.011   0.019   0.022
 23 A    22 B    24 A    23 B    25 A    24 B    25 B    26 A                  
  0.027   0.035   0.037   0.039   0.045   0.053   0.063   0.063
 27 A    28 A    26 B    27 B    29 A    28 B    29 B    30 A                  
  0.071   0.075   0.086   0.098   0.103   0.106   0.109   0.109
 30 B    31 A    32 A    31 B    33 A    34 A    32 B    35 A                  
  0.117   0.121   0.125   0.131   0.132   0.133   0.135   0.143
 33 B    34 B    35 B    36 A    36 B    37 A    38 A    37 B                  
  0.145   0.151   0.154   0.162   0.167   0.174   0.179   0.179
 38 B    39 A    40 A    39 B    41 A    40 B    42 A    41 B                  
  0.187   0.190   0.196   0.208   0.211   0.223   0.225   0.229
 43 A    42 B    43 B    44 A    44 B    45 A    45 B    46 A                  
  0.235   0.244   0.263   0.268   0.274   0.280   0.288   0.291
 47 A    46 B    47 B    48 A    49 A    48 B    50 A    49 B                  
  0.312   0.314   0.324   0.336   0.358   0.360   0.373   0.390
 50 B    51 B    51 A    52 A    52 B    53 A    53 B    54 A                  
  0.435   0.466   0.469   0.508   0.517   0.528   0.531   0.575
 54 B    55 B    55 A    56 A    57 A    56 B    57 B    58 B                  
  0.582   0.595   0.620   0.622   0.647   0.662   0.675   0.682
 58 A    59 A    59 B    60 A    60 B    61 B    61 A    62 A                  
  0.697   0.712   0.723   0.725   0.738   0.755   0.763   0.779
 63 A    62 B    63 B    64 A    64 B    65 B    65 A    66 B                  
  0.790   0.804   0.805   0.826   0.839   0.882   0.914   0.937
 66 A    67 B    67 A    68 A    68 B    69 A    69 B    70 A                  
  0.944   0.951   0.961   0.964   0.970   0.987   0.995   1.013
 70 B    71 B    71 A    72 B    72 A    73 A    73 B    74 B                  
  1.018   1.022   1.028   1.075   1.089   1.091   1.105   1.112
 75 B    74 A    75 A    76 A    76 B    77 A    78 A    77 B                  
  1.137   1.182   1.208   1.213   1.260   1.267   1.320   1.349
 78 B    79 A    80 A    79 B    80 B    81 A    81 B    82 A                  
  1.351   1.352   1.364   1.393   1.460   1.461   1.485   1.535
 82 B    83 A    83 B    84 A    84 B    85 A    85 B    86 A                  
  1.550   1.688   1.695   1.765   1.796   1.866   1.873   1.885
 86 B    87 A    87 B    88 A    89 A    88 B    90 A    89 B                  
  1.919   1.922   1.966   1.994   2.003   2.030   2.068   2.109
 90 B    91 A    92 A    91 B    93 A    92 B    93 B    94 A                  
  2.128   2.140   2.182   2.189   2.210   2.257   2.265   2.342
 95 A    94 B    95 B    96 A    96 B    97 B    97 A    98 A                  
  2.367   2.369   2.424   2.435   2.467   2.470   2.496   2.506
 99 A    98 B    99 B   100 A   101 A   100 B   101 B   102 A                  
  2.520   2.522   2.579   2.587   2.605   2.648   2.699   2.702
102 B   103 A   103 B   104 A   104 B   105 A   106 A   105 B                  
  2.750   2.844   2.853   2.886   2.931   3.159   3.180   3.269
106 B   107 A   107 B   108 A   108 B   109 B   109 A   110 B                  
  3.271   3.403   3.424   3.721   3.741   3.971   3.974   4.275
110 A   111 A   111 B   112 A   112 B   113 A   113 B   114 A                  
  4.303   4.317   4.328   4.430   4.535   4.658   4.710
115 A   114 B   115 B   116 A   116 B   117 A   117 B                          
 --------------------------------------------------------------
 
          Ground-State Mulliken Net Atomic Charges

     Atom                 Charge (a.u.)
  ----------------------------------------
      1 S                     0.060636
      2 C                    -0.050092
      3 C                    -0.364309
      4 C                     0.241226
      5 C                    -0.328340
      6 H                     0.135282
      7 C                    -0.328340
      8 S                     0.060636
      9 C                     0.241226
     10 C                    -0.050092
     11 C                    -0.364309
     12 H                     0.118110
     13 H                     0.187487
     14 H                     0.118110
     15 H                     0.187487
     16 H                     0.135282
  ----------------------------------------
  Sum of atomic charges =    -0.000000

 -----------------------------------------------------------------
                    Cartesian Multipole Moments
 -----------------------------------------------------------------
    Charge (ESU x 10^10)
                -0.0000
    Dipole Moment (Debye)
         X      -0.0000      Y       0.0000      Z       0.6586
       Tot       0.6586
    Quadrupole Moments (Debye-Ang)
        XX     -61.1596     XY       1.2971     YY     -71.2898
        XZ       0.0000     YZ       0.0000     ZZ     -75.3359
    Octopole Moments (Debye-Ang^2)
       XXX      -0.0000    XXY       0.0000    XYY      -0.0000
       YYY       0.0000    XXZ      -3.8916    XYZ      12.5400
       YYZ       6.6079    XZZ      -0.0000    YZZ       0.0000
       ZZZ      -1.3325
    Hexadecapole Moments (Debye-Ang^3)
      XXXX   -1893.7893   XXXY     -11.2291   XXYY    -420.6644
      XYYY      10.4784   YYYY    -447.6748   XXXZ       0.0000
      XXYZ       0.0000   XYYZ       0.0000   YYYZ       0.0000
      XXZZ    -423.4156   XYZZ       4.3353   YYZZ    -106.9229
      XZZZ       0.0000   YZZZ       0.0000   ZZZZ    -259.1731
 -----------------------------------------------------------------
Archival summary:
1\1\nid01044\OPT\ProcedureUnspecified\BasisUnspecified\286\FriSep218:10:512016FriSep218:10:512016\0\\#,OPT,ProcedureUnspecified,BasisUnspecified,\\0,1\S\C,1,1.73227\H,2,1.0817,1,120.148\C,2,1.37079,1,111.636,3,-179.991,0\H,4,1.08412,2,123.391,1,-179.9,0\C,4,1.42668,2,112.746,1,-0.427278,0\H,6,1.08421,4,124.146,2,-178.836,0\C,6,1.3766,4,113.471,2,0.489133,0\C,8,1.4644,6,128.804,4,-177.558,0\C,9,1.3766,8,128.804,6,110,0\H,10,1.08421,9,122.38,8,1.78061,0\C,10,1.42668,9,113.471,8,-177.558,0\H,12,1.08412,10,123.861,9,179.959,0\C,12,1.37079,10,112.746,9,0.489133,0\H,14,1.0817,12,128.215,10,179.583,0\S,14,1.73227,12,111.636,10,-0.427278,0\\\@

 Total job time:  61.55s(wall), 68.35s(cpu) 
 Fri Sep  2 18:10:51 2016

        *************************************************************
        *                                                           *
        *  Thank you very much for using Q-Chem.  Have a nice day.  *
        *                                                           *
        *************************************************************


0 sent ACK to 0 
now end server 0 ... 
